53
Lattice="12.336457 0.0 0.0 -6.168228499999997 10.683685154694365 0.0 0.0 0.0 15.0" Properties=species:S:1:pos:R:3:forces:R:3 energy=-456.796025676856 free_energy=-456.796025676856 stress="-5.87700402670833e-05 0.0026781130306585436 3.0273570027716076e-05 0.0026781130306585436 -0.0044527042345021035 -5.343823715905054e-06 3.0273570027716076e-05 -5.343823715905054e-06 -3.1812363497426054e-05" pbc="T T T"
C        0.01095897      -0.02776288       3.91161710      -0.00149184      -0.00582759      -0.00686043
C       -1.20581676       2.12046757       3.99519911      -0.00073460      -0.00606577      -0.00821011
C       -2.44345680       4.25338448       3.98000890       0.00144369      -0.00340083      -0.00024256
C       -3.71112372       6.37402278       3.91284539       0.00079718       0.00027151      -0.00364262
C       -4.95557581       8.49769378       3.86537232      -0.00350812       0.00479529      -0.00188228
C        2.46949865      -0.05708423       3.96544873       0.00134523       0.00411780      -0.00783506
C        1.26090016       2.10694202       4.01635080      -0.00263668      -0.00315289       0.00258512
C        0.02885620       4.26070041       3.84417692      -0.00178015       0.00484154      -0.00101686
C       -1.24093796       6.38452259       3.65370958       0.00299327      -0.00575624      -0.00189290
C       -2.46423290       8.50310373       3.78417148       0.00287818      -0.00799733      -0.00018465
C        4.94108788      -0.04031419       3.89743698      -0.00661822       0.00020654       0.00059098
C        3.71559930       2.05683908       4.09369609       0.01020153       0.00433807      -0.00149831
C        2.53260574       4.18145338       4.03033374       0.00332703       0.00286347      -0.00319475
S        1.22554670       6.31237502       2.54981678       0.00103795      -0.00871502      -0.00459073
C       -0.01577231       8.55494295       3.46053502      -0.00856769       0.00174038       0.00160225
C        7.40390837      -0.00029137       3.76306352       0.00211445      -0.00236710       0.00467521
C        6.18937312       2.09276370       4.06705369      -0.00009183       0.00254651      -0.00039412
C        4.96917900       4.20007793       4.13831397       0.00167998      -0.00234070       0.00588374
S        3.80480455       6.63898660       1.90418318       0.00651468      -0.00267418      -0.01118697
C        2.44461739       8.65301144       3.17684750      -0.00157814       0.00512636      -0.00111763
C        9.88596993       0.00486819       3.77099292       0.00707242       0.00215431       0.00132214
C        8.65843067       2.11622279       4.00471148      -0.00248043       0.00166536      -0.00439867
C        7.42643309       4.24116669       4.08103516      -0.00263326      -0.00039844       0.00367609
C        6.13036364       6.36313375       3.94868370      -0.00412584       0.00023550       0.00145069
C        4.94515530       8.53944078       3.58189657       0.00189662       0.00766304       0.00330916
C        0.02401227       1.40111039       3.98199819      -0.00326674      -0.01057942       0.00061712
C       -1.20291780       3.54687643       3.97618930       0.00172953      -0.00320353      -0.00012440
C       -2.46538976       5.67108267       3.87486553       0.00357604      -0.00346506       0.00711825
C       -3.71297594       7.79356359       3.85690680      -0.00077392       0.00212311       0.00176216
C       -4.93855859       9.92434999       3.91309238      -0.00030785       0.00349674      -0.00271812
C        2.47586690       1.36650159       4.04070715       0.00637129       0.00555896      -0.00106185
C        1.28955653       3.55529684       3.95530323      -0.00135147       0.00239611      -0.01472009
C       -0.05034889       5.62912429       3.50560489       0.00307771       0.00351617      -0.00751982
C       -1.23416303       7.80820453       3.60041923      -0.00088979      -0.00981056      -0.00590199
C       -2.46348220       9.92650534       3.88344420      -0.00284049      -0.00555675       0.00121294
C        4.95159047       1.37158020       4.03956177       0.00380727       0.00086233       0.00655534
C        3.72860571       3.48111632       4.11631701       0.00676212       0.00062735       0.00550525
C        1.22094685       7.97041253       3.08960449      -0.00907051       0.00520791       0.00518087
C        0.00209921       9.96257318       3.71453756      -0.00625993       0.00322705      -0.00041199
C        7.42067884       1.40108329       3.96760996      -0.00130906      -0.00081468       0.00577278
C        6.20895481       3.50826023       4.12961981      -0.00162197      -0.00055130       0.00378345
C        4.95452030       5.59873447       4.08471933      -0.00024539      -0.00157062       0.00075364
C        3.70785704       7.93040227       3.08725623       0.00544150       0.01135338       0.00616156
C        2.47317917      10.01151241       3.58030720       0.00701757       0.00284735      -0.00205461
C        9.89445090       1.41243735       3.94465593      -0.00076532       0.00051026       0.00237676
C        8.66376643       3.53569761       4.05048840      -0.00264099       0.00050907      -0.00853070
C        7.39503762       5.66163833       4.00525149      -0.00070948      -0.00042251       0.00209720
C        6.12843108       7.79190713       3.79320665      -0.00234275       0.00270698       0.00151846
C        4.94479438       9.95335187       3.76000268       0.00163934       0.00183084       0.00301817
Rh       3.04893580       6.14778985       4.03096449       0.00591466      -0.00988362       0.00972214
O        2.51251935       6.65200370       6.08251404      -0.00381347       0.00455324       0.00726779
O        2.90470414       5.54122185       6.89345788      -0.00912329      -0.00394358      -0.00632186
H        3.72909983       5.90050822       7.28071702      -0.00506002       0.00460524       0.01199482
