52
Lattice="12.336457 0.0 0.0 -6.168228499999997 10.683685154694365 0.0 0.0 0.0 15.0" Properties=species:S:1:pos:R:3:forces:R:3 energy=-457.1619220999347 free_energy=-457.1619220999347 stress="-0.010602473709049778 2.4654160723368867e-05 -1.6619754207028876e-05 2.4654160723368867e-05 0.00520303943357973 -1.9255358308168235e-05 -1.6619754207028876e-05 -1.9255358308168235e-05 1.6050680170317164e-05" pbc="T T T"
C       -0.02356118       0.07981620       3.78838641      -0.00255824       0.00059760       0.00053524
C       -1.28723274       2.16747868       3.76305430       0.00013621      -0.00085640       0.00775913
C       -2.52715391       4.32074510       3.65479560       0.00019899       0.00102556       0.00082910
C       -3.73402871       6.48483155       3.61343085       0.00285217      -0.00112210      -0.00195195
C       -4.94873879       8.64450458       3.69317447      -0.00316732       0.00020887       0.00430629
C        2.44576020       0.13358815       3.79226460       0.00256422       0.00243093       0.00447721
C        1.19775538       2.26880398       3.89915189      -0.00640815       0.00203736       0.00049681
C       -0.13201788       4.32833706       3.85988421       0.00319672      -0.00254408      -0.00833322
C       -1.32295277       6.49089381       3.74092383      -0.00087808      -0.00195003       0.00321269
C       -2.50720348       8.64237718       3.72621445      -0.00384322       0.00197506       0.00061267
C        4.91414962       0.06617379       3.76905599       0.00765962      -0.00015015      -0.00578734
C        3.71255498       2.26176574       3.80126486      -0.00747187      -0.00144833      -0.00217813
C        1.09484760       6.40199556       4.00703852      -0.00159082       0.00073729      -0.00619178
C       -0.03493561       8.57641328       3.82441250       0.00021859      -0.00423017       0.00753609
C        7.38624596       0.00210037       3.76417803      -0.00097018       0.00001926       0.00316909
C        6.16640847       2.16541577       3.67052144      -0.00095867      -0.00500453       0.00033674
C        4.97140395       4.30821195       3.64988474       0.00469566      -0.00015894      -0.00058791
N        3.83066947       6.45708526       3.86183998       0.00074193       0.00135500      -0.00265639
C        2.44914951       8.51182306       3.86494885      -0.00021452       0.00398957      -0.00125653
C        9.83660765       0.00747464       3.77174521      -0.00829865      -0.00243454       0.00492750
C        8.60762721       2.15792060       3.66964755       0.00566305      -0.00062013       0.00049043
C        7.39186605       4.32191498       3.57255472      -0.00079345      -0.00235855       0.00620224
C        6.18364979       6.48939962       3.60316842       0.00447753      -0.00098490      -0.00315095
C        4.92810168       8.58868808       3.75676981      -0.00245964       0.00253087       0.00352698
C       -0.03477218       1.50272504       3.82497689      -0.00188734       0.00048724       0.00039836
C       -1.32497174       3.58804094       3.74365256       0.00113493      -0.00099652      -0.00183842
C       -2.52643695       5.75898189       3.65306061       0.00122453      -0.00066847       0.00157828
C       -3.72857702       7.92125496       3.66691064      -0.00386291      -0.00082527       0.00256821
C       -4.95012857      10.07665045       3.76469474       0.00050960       0.00238226      -0.00306436
C        2.45034723       1.56594821       3.84829725      -0.00927326       0.00268727      -0.00242140
C        1.08783013       3.67302266       4.00002747       0.00286125       0.00206913       0.00414960
C       -0.13249021       5.74864727       3.85933619      -0.00043908      -0.00266115      -0.00175084
C       -1.28642880       7.91155411       3.76080721      -0.00415662      -0.00143846      -0.00077520
C       -2.50010214      10.07134761       3.76653497       0.00602890       0.00380250      -0.00212387
C        4.92856909       1.48912631       3.74186521      -0.00396184      -0.00118641       0.00844500
N        3.83406583       3.61663850       3.83378995       0.00731220      -0.00448822      -0.00645019
C        1.19788344       7.81155808       3.90572632       0.00291122       0.00127218       0.00642010
C       -0.02373699       9.99903702       3.78516268       0.00437085      -0.00399763       0.00346765
C        7.38769309       1.43413810       3.69237169       0.00339484      -0.00088657       0.00273797
C        6.18565236       3.58900167       3.59768162       0.00140142      -0.00518023      -0.00633997
C        4.97387007       5.76837137       3.66087857       0.00140383       0.00297513      -0.00754111
C        3.71264854       7.81634202       3.82896063      -0.00084097       0.00288819       0.00193704
C        2.44595022       9.94608986       3.79956446      -0.00661445       0.00141435       0.00163251
C        9.82867742       1.43647075       3.72996403       0.00231161      -0.00442863      -0.00183715
C        8.60255989       3.59408538       3.61569489       0.00112567       0.00105929      -0.00519163
C        7.39138676       5.75688891       3.57276948       0.00505150      -0.00206819       0.00339793
C        6.16521029       7.91354856       3.67688742      -0.00201668       0.00044017      -0.00125548
C        4.91418474      10.01243108       3.77571833      -0.00657961       0.00194770       0.00141947
Rh       2.40379546       5.05196472       4.31718893      -0.00514624       0.00243796      -0.00186757
O        3.21287675       4.93001003       6.10312793      -0.00063634       0.00641993      -0.00005850
O        3.32394262       3.54460287       6.59659297       0.00122887      -0.00727441      -0.01659611
H        2.74235967       3.62397884       7.37859262       0.01035224       0.01077240       0.00463567
