52
Lattice="12.336457 0.0 0.0 -6.168228499999997 10.683685154694365 0.0 0.0 0.0 15.0" Properties=species:S:1:pos:R:3:forces:R:3 energy=-450.2065087656085 free_energy=-450.2065087656085 stress="-0.00741182816123377 -0.0047785540735014315 -1.8384645027718533e-05 -0.0047785540735014315 0.0020252998492345377 4.8869241069771725e-05 -1.8384645027718533e-05 4.8869241069771725e-05 2.2908331246482417e-05" pbc="T T T"
C        0.03927705       0.01014265       3.93702399       0.00432703      -0.00243733      -0.02064798
C       -1.23570707       2.11209267       4.00085580      -0.02036269       0.00359725      -0.01044474
C       -2.44645654       4.27099547       3.89779168      -0.00735247       0.00354878       0.02459277
C       -3.62800601       6.43247653       3.79973016       0.01806493       0.01260493      -0.01765669
C       -4.85829876       8.58972403       3.81586652       0.00922669      -0.00337666       0.01097093
C        2.50537157       0.05198404       3.91475010       0.00989321      -0.01536384       0.00825596
C        1.21098479       2.13719568       4.00759725       0.00621047      -0.00169446      -0.01810452
C       -0.05728825       4.23929504       4.09750253       0.00616260       0.01193295      -0.01636633
C       -1.20278956       6.41037001       3.98258829       0.00142799      -0.00348483      -0.01056694
C       -2.41336052       8.57498734       3.90534464       0.00466281       0.00647813       0.01115551
C        4.97437149       0.01857798       3.77012074       0.01050404      -0.01036395       0.00434142
C        3.69919858       2.13273819       3.50898942       0.00811000       0.01426117       0.02141549
C        1.21707802       6.36933549       3.99158792       0.01056091       0.00278999       0.00361766
C        0.05070690       8.53345674       3.89328788      -0.01358592      -0.01321170      -0.03934194
C        7.44028455      -0.02232556       3.76243596       0.00883699       0.01321992       0.00496926
C        6.20506025       2.14596550       3.52970325      -0.00056858      -0.00931569      -0.01883038
C        5.10087986       4.37426662       3.16592652      -0.01055970      -0.00168738       0.00992860
N        3.94277708       6.45237052       3.54113114      -0.01410315      -0.01326672       0.02184588
C        2.52961293       8.48809487       3.79794213      -0.00280314      -0.00298656       0.00049317
C        9.89629211      -0.02865287       3.85042975      -0.00975156       0.00229130      -0.02087199
C        8.65614066       2.12584711       3.77386144       0.00017593       0.00606153      -0.00563239
C        7.47192441       4.29230940       3.58170570       0.00007878      -0.01110859      -0.00832625
C        6.31732328       6.48691990       3.47780416       0.00203467      -0.00111519       0.00662503
C        5.01638703       8.56280373       3.71678979      -0.00126076       0.00962708      -0.00923392
C        0.01207395       1.42897617       4.02050875      -0.00874547       0.00522849      -0.03243259
C       -1.24239446       3.53162255       4.01859108      -0.00494847       0.00885357       0.02349971
C       -2.41853344       5.69894270       3.90653966       0.00573256       0.00220489      -0.00444740
C       -3.63286384       7.86211671       3.85168750       0.01564726       0.01114651      -0.01631676
C       -4.88134379      10.01290693       3.91311009       0.00503367      -0.01454097       0.02773327
C        2.47472111       1.48556161       3.85006687       0.01185109      -0.01364020      -0.00765607
O        1.11127538       3.50800772       4.23325182       0.01649422       0.01217610      -0.00317612
C        0.01593067       5.65607924       4.04845093       0.00446257       0.01010772      -0.00755625
C       -1.18522245       7.84045413       3.93527369      -0.01383682      -0.00551245       0.00490865
C       -2.42471649      10.00667956       3.87335412       0.01154660      -0.00437623       0.01229461
C        4.95426323       1.44868920       3.58656162       0.00004779      -0.00659945       0.00993786
P        3.53681226       3.71992995       2.66664034      -0.03405412       0.03508990       0.01336651
C        1.28906472       7.76538475       3.88961479      -0.00401836       0.00029634       0.01690486
C        0.03997521       9.96278944       3.80449478       0.01174217      -0.00587056      -0.00546600
C        7.42583240       1.41458888       3.68502223       0.00708998       0.01247210      -0.01686013
C        6.24860793       3.58075530       3.39891895      -0.01060113      -0.01078869      -0.00287694
C        5.11367106       5.79639056       3.30570085      -0.00731578      -0.00397022       0.00663076
C        3.80193914       7.81304786       3.68215641      -0.00386639      -0.00534155      -0.02078692
C        2.50571476       9.92239513       3.80018353      -0.00240067       0.00103595       0.01085618
C        9.88557239       1.40371683       3.88649677      -0.01718950      -0.00247093       0.00746842
C        8.66892166       3.56007721       3.75545221      -0.00091207      -0.00270895       0.01202672
C        7.50245146       5.72440161       3.60680059       0.01273351      -0.00346993       0.00912117
C        6.26536035       7.88670946       3.66156739       0.00095454       0.00180175       0.03775216
C        4.97864656       9.97038529       3.85166463      -0.00364762       0.01068856      -0.01226979
Rh       2.73682072       5.09636052       4.20394050      -0.00345567      -0.01030957      -0.00344411
O        2.84126167       5.00796651       6.17024233      -0.00741735      -0.01188502       0.00219876
O        1.59176820       4.53978333       6.72374973      -0.00260785       0.02921587       0.02858873
H        1.51378510       5.15337550       7.48621257       0.00175224      -0.03583315      -0.02218688
