52
Lattice="12.336457 0.0 0.0 -6.168228499999997 10.683685154694365 0.0 0.0 0.0 15.0" Properties=species:S:1:pos:R:3:forces:R:3 energy=-457.39595792833273 free_energy=-457.39595792833273 stress="-0.006638686306707585 4.755345243614288e-05 6.548643609252888e-06 4.755345243614288e-05 0.004515410661004995 -1.1298401854665972e-05 6.548643609252888e-06 -1.1298401854665972e-05 -2.9988671175749433e-06" pbc="T T T"
C        0.05440830      -0.06646982       3.78139496       0.00061790      -0.00104911       0.00669331
C       -1.19253524       2.04164120       3.74878009       0.00144771       0.00857620       0.00281764
C       -2.42092424       4.18885032       3.63033042      -0.00375262      -0.00758836       0.00480881
C       -3.64391088       6.34525414       3.60019099      -0.00503659      -0.00416433      -0.00020645
C       -4.86888727       8.49818974       3.69078238      -0.00168728       0.00172503       0.00419093
C        2.52369980      -0.03054956       3.80093376       0.00297935      -0.00235729      -0.00369730
C        1.28146541       2.10041592       3.89673403      -0.00314767       0.01041341      -0.00651710
C        0.01086808       4.20745181       3.77680053       0.00166908      -0.00019297      -0.01262844
C       -1.22133017       6.35584582       3.62993761       0.00883726       0.00699230      -0.00043074
C       -2.42038973       8.49917845       3.68358916      -0.00268808      -0.00517758       0.00417450
C        4.99266585      -0.06477225       3.76897079      -0.00277627      -0.00561620       0.01353765
C        3.76633143       2.10189402       3.88906929       0.00377140      -0.00440975      -0.00769190
N        1.14386606       6.32703059       3.88808997       0.00613653      -0.01028241       0.00517482
C        0.04780369       8.45098650       3.73462724       0.00354516       0.00686045       0.00186782
C        7.46600751      -0.11748103       3.76060376      -0.00776490       0.00005273       0.00283838
C        6.24061974       2.04202647       3.73665331       0.00577604       0.00120852       0.00096296
C        5.03826828       4.20678780       3.76458892      -0.00113148      -0.00662084       0.00013420
N        3.89857396       6.31900241       3.88587204       0.01197217       0.00416388      -0.00460758
C        2.52346163       8.38488088       3.80721217      -0.00143923       0.00110706       0.00078118
C        9.91763063      -0.11800464       3.76711779       0.00779352       0.00750972       0.00578788
C        8.69295942       2.03369536       3.69408133      -0.00753303      -0.00615051      -0.00244066
C        7.47100968       4.18817490       3.62189217      -0.00096832       0.00503269       0.00238589
C        6.26882741       6.35531097       3.63283898      -0.00864563       0.00319354      -0.00036249
C        4.99749265       8.44913496       3.75158892       0.00447283      -0.00814439      -0.00510611
C        0.04675510       1.35644712       3.81346054      -0.00342983       0.00371552      -0.00075150
C       -1.19983733       3.47020502       3.70296723       0.00235788       0.00261112      -0.00748456
C       -2.42771306       5.62208496       3.60492642       0.00514827      -0.00203551      -0.00275802
C       -3.64419802       7.77811859       3.64761195      -0.00575290      -0.00348122      -0.00361086
C       -4.87225752       9.92537959       3.76116870       0.00266357       0.00197479       0.00201218
C        2.52441690       1.40158649       3.88727920      -0.00193450       0.00147818      -0.00338098
C        1.22942746       3.52517861       3.97889969       0.00522879       0.00911484      -0.01004409
C        0.00079006       5.64911303       3.72043571       0.00124689      -0.00697091       0.00843397
C       -1.19813832       7.77257416       3.67541127       0.00648260       0.01093884      -0.00266048
C       -2.41673244       9.92648356       3.75337299      -0.00061972      -0.00903393       0.00258646
C        5.00045469       1.35827184       3.80254185       0.00716686      -0.00481878      -0.00691803
C        3.81775769       3.52960361       3.97004235      -0.00525603       0.00086060      -0.00201939
C        1.26439304       7.68448510       3.79605773      -0.00064507      -0.00718117       0.00020882
C        0.05641232       9.87724909       3.75476504      -0.00566712       0.00264488       0.00565028
C        7.46810288       1.31428871       3.72666428      -0.00529358      -0.00559402      -0.00346534
C        6.24891088       3.46994594       3.68839891       0.00622531       0.00212387       0.00333402
C        5.04770967       5.64719344       3.71852062       0.00074081      -0.00638453       0.00433590
C        3.78083364       7.68224837       3.81103999       0.00318918       0.00030635       0.00060284
C        2.52339924       9.82020746       3.77917062       0.00016931       0.00625535      -0.00193344
C        9.91658164       1.31365334       3.73298689       0.00160243       0.01098480      -0.00007539
C        8.69342892       3.46809235       3.63787472      -0.00784521      -0.00827667      -0.00824444
C        7.47650575       5.62148129       3.59991191      -0.01046897       0.00412649       0.01134358
C        6.24455221       7.77174455       3.68706375       0.00055196      -0.00082513      -0.01592947
C        4.99006809       9.87633843       3.76752091       0.00378278      -0.00891249       0.00887222
Rh       2.52347168       4.78222958       4.47468008      -0.00221769       0.00449670       0.00567604
O        2.57674798       6.21922525       6.01231744      -0.00812268       0.00461105       0.00708124
O        1.28050505       6.25068221       6.62836408      -0.00841979       0.00233607      -0.00417906
H        1.52060059       5.99098918       7.54086167       0.00666861      -0.00014689       0.00085027
