51
Lattice="12.336457 0.0 0.0 -6.168228499999997 10.683685154694365 0.0 0.0 0.0 15.0" Properties=species:S:1:pos:R:3:initial_magmoms:R:1:forces:R:3 energy=-623161.5865536917 free_energy=-623161.5865536917 stress="1100.8750464668567 -618.271766318938 371.166407922419 -618.271766318938 1798.0076002443716 136.14705606920495 371.166407922419 136.14705606920495 538.6438255460193" pbc="T T T"
C        1.30469889       1.89636341       7.64948817       0.00000000     169.92341332     -13.47219836      15.28105248
C       -2.48774623       1.06939285       0.24177667       0.00000000       0.02672015       2.99710232      -1.43818715
C        0.16371273      -1.08536463       0.71247568       0.00000000      -5.90704215      -3.40462105       5.51711914
C       -4.48923966      10.77768914       3.99468913       0.00000000     279.51455631    -366.69404738    -296.76862516
C       -5.57320057      10.51322299       4.68163154       0.00000000     -75.58150377    -660.75906183     320.57525144
C        6.16006579      -0.83733441       5.95149649       0.00000000     401.11318085    2260.05564239     212.26352030
C       -1.85662422       3.08436859      13.77487329       0.00000000       0.16378410      -0.93089664       1.76063955
C       -0.13965255       6.22512900       2.09233985       0.00000000   14506.51084765   -2508.16213184   25851.06828796
C       -0.60563267       5.45455852      -2.96434112       0.00000000      -0.87774444      -0.68317770      -0.00468652
C       -6.53098919       6.30062133       1.96134295       0.00000000     488.26606360     137.41821046    -362.50373722
C        8.65491897      -2.37461668       4.16526010       0.00000000   -3335.30977692   -9779.12208087    2123.69140538
C        4.75801008       2.60724919       2.87090447       0.00000000     109.41067287    -186.44112010     -45.95524404
O        0.30647097       7.07663687       4.69943589       0.00000000  248772.35242020 -272931.38464222  135308.09529797
C       -5.60848558       5.17505339       2.13261847       0.00000000      47.40499057       3.99287619     -20.77279197
C        9.27736423      -4.28535939       3.16958971       0.00000000  -13908.09430558    4572.87804258   -5269.86062145
C        4.35848444       1.82941402       0.86642350       0.00000000      34.30868158     -20.66227914     -27.94326171
C        1.49942731       6.85038493      -0.11785416       0.00000000     152.95137638     142.25010969    -889.86708737
O       -0.20238494       7.70207612       4.30222677       0.00000000    5890.11511242  -18091.48671437  -46854.03461867
C        7.75937586       4.79417228       4.85166042       0.00000000     -99.94077762     -35.32762907     -10.81806718
C       12.21646918      -5.74436945      -0.42378152       0.00000000      13.83687763     -12.36588784      -8.74540504
C        4.09829287       8.14670535       0.85955743       0.00000000     168.23273559      84.89234441    -178.13773717
C        7.32221880       5.74697010       9.12821987       0.00000000       0.04996977       0.06341749       0.03960138
C        8.26186849       7.60640334       3.63204999       0.00000000    -178.49456654      66.49386327    -105.20170691
C        2.01046056       6.61207503       5.76177453       0.00000000 -140609.29236152 -309937.60482729 -239492.53379441
C        1.64050839       5.04370724       4.53587603       0.00000000 -511391.00720345 1813546.26018858  355490.31139398
C        0.98216049       5.18196123       4.46093040       0.00000000  418869.20180136  942239.46381548  324430.08256291
C       -0.36425526       6.77246439       5.36128583       0.00000000  239194.56088913  -64680.01413125  -82199.21508944
C       -2.97654220       8.91645006       1.13657330       0.00000000     -58.34377699     -34.78123755     -51.90073736
C       -1.99704291       7.02361957       2.30848344       0.00000000     956.02725030     210.29370191     600.92825966
C        1.61437306       4.93540840       5.45764598       0.00000000 -187129.12362716  628184.80535601 -372938.26539836
C        0.88267906       3.64629496       5.22688326       0.00000000  -54080.51893191  -78883.93392024   52844.67352896
C       -0.74802402       8.08065918       5.58045894       0.00000000  -11432.32481163   28018.99574063    8358.76549919
C       -3.92206880      11.43282730       4.50217496       0.00000000     304.72573573     -42.51169664     155.57574507
C       -3.65158596       8.58592502      10.22634477       0.00000000       0.09228206      -0.27707458      -0.04079228
C        5.48688198      -1.55595611       4.05486812       0.00000000   -2379.15008629    6730.14539699   -2721.17791660
C        4.63976965       3.03535406       0.02407309       0.00000000       4.61584656      -8.85948714      -8.29846580
C        0.34954192       6.96612084       5.43236745       0.00000000  189441.26080141 -191550.25682513  -36518.36906993
C       -2.33760855       7.80823043      -0.21353598       0.00000000      -8.28402923      -6.59345795     -12.56325992
C       11.58365067       0.12864004       5.05861910       0.00000000    -368.53337363    -326.41500512     180.20438576
C        3.48655409       8.34357599       3.27198625       0.00000000   -6754.42844249   -3362.93334361   -2123.86192772
C        3.23173626       6.30332490       0.58846032       0.00000000     224.58948943     201.89952168    -607.48959658
C        4.74408869       8.62290902       9.50611602       0.00000000      18.97319431      14.57710397      36.84501919
C        6.17772816      11.32726367       4.40033221       0.00000000    -761.03112620    -221.85221837      71.96658479
C       10.39063348       1.62663743       3.81910294       0.00000000    -397.30889982    -423.78118963     -78.91670072
C       13.22307974       1.16606831       4.10683078       0.00000000     650.20301335    -227.52769448    -415.15957377
C        5.24163142       1.11970872      -0.55348297       0.00000000      -2.58575241       4.30680365       0.47389695
C        9.63106064       8.20269158       3.41490650       0.00000000     781.35457930      78.96751534      92.81904218
C        3.64232808       8.10567563       3.94567244       0.00000000   -8745.18440268  -12614.76401470   10059.40967237
Rh       1.20058827       5.92805455       4.64691806       0.00000000 1637552.42684969 -2853018.75943865  767581.40348218
O        1.20758247       6.17291510       5.13061159       1.00000000 -249809.14097069   84539.66333872   54975.40771317
O        1.74912411       5.73099575       5.00927662       1.00000000 -1567501.74962249  308911.34195901 -947477.31486146
