51
Lattice="12.336457 0.0 0.0 -6.168228499999997 10.683685154694365 0.0 0.0 0.0 15.0" Properties=species:S:1:pos:R:3:initial_magmoms:R:1:forces:R:3 energy=-443.3934823046811 free_energy=-443.3934823046811 stress="-0.003962943802784751 0.0058164012775888735 -3.5681287075501985e-06 0.0058164012775888735 0.003887579583886917 -2.4173937121469403e-06 -3.5681287075501985e-06 -2.4173937121469403e-06 -8.051853117393232e-06" pbc="T T T"
C        0.05250411       0.02242724       3.73328482       0.00000000       0.00051753      -0.00890388      -0.00585566
C       -1.16376624       2.16027630       3.46017127       0.00000000       0.00715332      -0.00986151       0.00165237
C       -2.43355917       4.29575438       3.47235559       0.00000000      -0.00994795      -0.00416614       0.00387936
C       -3.68405093       6.42813441       3.70531091       0.00000000       0.00173197       0.00477666       0.01241740
C       -4.90400750       8.56828847       3.85720042       0.00000000       0.00681737       0.00127389      -0.01049911
C        2.51997207       0.04028547       3.92036164       0.00000000      -0.00409556       0.00776039      -0.00036684
C        1.34379142       2.14375201       3.54259712       0.00000000      -0.01060186      -0.00035314       0.01434465
C       -0.05605463       4.40746281       3.05937654       0.00000000      -0.01134329       0.00480598      -0.00487619
C       -1.28664217       6.48818317       3.35103900       0.00000000       0.00558349       0.00660862       0.01082535
C       -2.44881634       8.57963718       3.76634857       0.00000000      -0.00625520       0.00143252      -0.00221756
C        4.99038667       0.00463308       3.89890092       0.00000000      -0.00689935      -0.01154883      -0.00688592
C        3.82158099       2.12142630       4.05413938       0.00000000       0.00512300       0.01111168      -0.00487511
O        1.08992733       6.48588216       3.37048954       0.00000000       0.00725338      -0.00198572       0.00758802
C        0.01086221       8.56337585       3.64067712       0.00000000      -0.00382054      -0.00703332       0.00005155
C        7.46930468      -0.02806967       3.76241739       0.00000000       0.00156661       0.00303436       0.00740939
C        6.27011315       2.10980133       3.95440583       0.00000000       0.00015945       0.00621274      -0.00653280
C        5.08157099       4.22710725       4.12968182       0.00000000       0.00366223      -0.00009865       0.00667091
C        3.79183002       6.35461117       3.99582767       0.00000000       0.00286722      -0.00368024       0.00769394
C        2.47635826       8.48049004       3.71368252       0.00000000       0.00242154      -0.00158292      -0.00104037
C        9.92434170      -0.01843834       3.67725774       0.00000000      -0.00445173       0.01221317      -0.00849444
C        8.71419737       2.12996782       3.68354454       0.00000000       0.00788440      -0.00319953      -0.00508410
C        7.47674679       4.26916964       3.82364044       0.00000000      -0.00295775      -0.00049751      -0.00517873
C        6.22620349       6.40286376       3.91537954       0.00000000      -0.01038930      -0.00782298       0.00673938
C        4.96485658       8.52759755       3.82130357       0.00000000       0.00366713       0.00748343      -0.00868178
C        0.08697104       1.46074570       3.56173943       0.00000000      -0.00104361      -0.01533979      -0.00618206
C       -1.20161589       3.59592287       3.29867095       0.00000000      -0.01071233      -0.00270439       0.00639891
C       -2.47504757       5.72315709       3.49909552       0.00000000       0.00392875       0.00351810       0.00441268
C       -3.68217890       7.85690501       3.78409614       0.00000000       0.00295975       0.00344856       0.00171105
C       -4.89002506      10.00187755       3.85456924       0.00000000       0.00465959      -0.00224959      -0.01512463
C        2.55415880       1.47756228       3.88550280       0.00000000      -0.00004401       0.00700110      -0.00895195
P        1.60000366       3.79129663       2.84776951       0.00000000       0.01178576      -0.01164207      -0.00858954
C       -0.11861934       5.80018561       3.11929693       0.00000000       0.00402618       0.00826299      -0.00313977
C       -1.24431167       7.88592047       3.58249600       0.00000000      -0.00713070       0.00293966       0.00377783
C       -2.42759319      10.00335836       3.89793407       0.00000000      -0.01137752      -0.00300295      -0.01584884
C        5.02056863       1.42317765       4.00030405       0.00000000      -0.00056270      -0.00401444      -0.00148181
O        3.93322665       3.48452908       4.37216149       0.00000000       0.01326177       0.00678692       0.00402487
C        1.21053509       7.85808297       3.59114743       0.00000000       0.00113774      -0.00113488       0.00006677
C        0.05134943       9.97450722       3.78089791       0.00000000       0.00064534      -0.00883739       0.01740534
C        7.48334178       1.40702172       3.80803408       0.00000000       0.00385080       0.00739557      -0.00328338
C        6.27466594       3.52819052       3.98471113       0.00000000       0.00283467       0.00558357       0.00604133
C        5.01452185       5.64652907       4.03947578       0.00000000      -0.00877486      -0.00883596       0.01214092
C        3.72952543       7.76847210       3.83201824       0.00000000       0.00630429      -0.00539852       0.00217578
C        2.51816595       9.92421724       3.70687661       0.00000000       0.00066029       0.00515254       0.00335046
C        9.94626978       1.42223659       3.59775031       0.00000000       0.00978308       0.00184672      -0.00506037
C        8.69975776       3.56238997       3.66332856       0.00000000      -0.00748271      -0.00951239      -0.00139143
C        7.44356464       5.69367106       3.82133183       0.00000000      -0.00413297       0.00100100       0.00574862
C        6.20456716       7.83320965       3.86845066       0.00000000       0.00386859      -0.00181676      -0.01056801
C        4.98557941       9.96505669       3.73362470       0.00000000      -0.00628689       0.01172936       0.00141311
Rh       2.39639425       5.16045928       4.47219689       0.00000000       0.00078061       0.01033258      -0.00746724
O        1.49110712       3.96476663       5.95728587       1.00000000      -0.00554345      -0.01049096       0.00237062
O        0.78386588       5.08431161       5.88105550       1.00000000       0.00695844       0.00400235       0.00736704
