51
Lattice="12.336457 0.0 0.0 -6.168228499999997 10.683685154694365 0.0 0.0 0.0 15.0" Properties=species:S:1:pos:R:3:initial_magmoms:R:1:forces:R:3 energy=-1400496.0412749702 free_energy=-1400496.0412749702 stress="261.69044812596024 777.7597013051723 -119.85924415791513 777.7597013051723 2679.114251306251 -2262.3185182661045 -119.85924415791513 -2262.3185182661045 -944.9939653784223" pbc="T T T"
C       -2.28050771       3.83586533       3.19840347       0.00000000     550.13881122     347.50035420    1051.13024643
C        3.69643327      -1.52371065       4.73139380       0.00000000   -8064.16292281    3761.98546192   -2713.72128747
C       -1.63347377       7.09589938       4.09574597       0.00000000    9198.54056599   -9901.29396493  -20188.80941553
C       -0.06502807       2.77793556      -1.09118405       0.00000000      33.06477976      41.25127500      72.00581221
C       -6.40070466       8.54494594       4.40938278       0.00000000    3119.30311085  -10479.09854947    2337.20884479
C        1.35901845      -7.73756093       4.44619862       0.00000000   -2516.50583056    1714.97344310    -737.07901646
C        2.89113595       6.04230750       3.28026175       0.00000000  244630.12101583 -517114.57415972 -1606205.70142250
C       -1.50873651       8.23984640       5.74977968       0.00000000   21565.22472564    6273.24291496    3043.11126165
C       -1.39089652       7.73206723       5.07352695       0.00000000   30358.15877721    -479.52510466   20063.62653500
C       -1.99466498       8.64478947       0.48347063       0.00000000    -358.96901141     272.88460294    -195.65262042
C        7.16011263       2.69127166       5.35817203       0.00000000    -798.16068269    1503.94378685    -992.21763787
C        2.01364849       5.03369666       2.71302012       0.00000000   38021.81053608  106985.32611899   59071.67160338
C        2.67940011       7.24112969       4.59107236       0.00000000 -710028.66615843 -17023559.08451920 22842842.15863046
C       -2.64975269       7.96806872       4.85801353       0.00000000  -45429.71952983   10823.46550599   -7730.82078837
C       11.64899602       1.78863458       5.49517010       0.00000000     199.48856323      76.30593398      64.89239179
C        7.34322620       2.88273217       8.53869556       0.00000000      35.56654535     -49.62894751       4.02242671
C        5.30620758       3.92694148       3.87639340       0.00000000     214.02444980    3834.27325932   10848.67872096
N        3.86985130       2.76283723       4.65871042       0.00000000    4300.43494882   -1459.46286851   -1969.76962035
C        4.85225741      15.01077011       4.30505885       0.00000000     802.33759510    2812.22436660   -1227.76052220
C        6.91311057       3.62893147       9.32223535       0.00000000      80.41630504     -57.05941457      86.65191924
C        9.21984248       2.22908038       0.98781260       0.00000000    -101.91226214      41.42651590      18.15536351
C        5.83498866       4.36441148       1.88535887       0.00000000    3062.67489306   -6049.27476762    -445.30074431
C        4.03975569       3.34871019       9.66040895       0.00000000    -335.96465373     440.21253241    -496.96925288
C        7.32920247       5.07958935       9.00437676       0.00000000     281.81120396     -58.91874552     220.58437333
C        4.01479835       7.83000281      -5.77100199       0.00000000    3348.33772894    2923.24365734    7095.10433578
C        3.73741653       1.65350974      -2.00224428       0.00000000      15.85208611      29.06836891      57.04525385
C       -1.85417743      10.49189155       1.98040431       0.00000000     -90.88543192     408.45080745      53.94649127
C       -2.67002496       7.85634356       2.90848021       0.00000000     501.47857610     -78.94137327    3773.67404249
C       -6.86023240       5.08200968       3.08522270       0.00000000   -4200.33209860   10676.24135114   -6272.65101869
C        0.41013225       7.01977291       2.02374782       0.00000000     371.08112641   -7548.29787843   10702.52608685
N        1.83793306       5.47656805       5.43422203       0.00000000  756217.29524723 1084660.79933806  -39539.72373915
C       -1.49851567      -4.98743580       6.86421340       0.00000000   -6581.54732055    9190.60218915  -21838.39530353
C       -2.40951677       7.54464683       5.23326619       0.00000000  -11698.00654098   -7601.76275073   -1694.79649589
C       -3.72637516       7.85877364       3.61064699       0.00000000    5380.92126430   -1534.47418851    5731.84850996
C        4.01675622       4.41057808       4.06980847       0.00000000    1442.74550042    6274.53938066  -19718.58595823
C       -2.73786018      -1.34477412      -0.81645530       0.00000000      65.94407704     193.24358033    -485.70285256
C        1.37787960       6.73731516      -4.40424249       0.00000000     347.59960919      81.59486146   -1735.73235134
C        0.92712812      15.11914710       3.83943538       0.00000000   -1321.55262454   -3012.37130482    1247.60494888
C        7.72319263      -0.27166454       4.70296643       0.00000000  -11664.74607526   15537.92403292   10159.56846217
C        2.89646981       4.80229017       8.27983482       0.00000000    1574.30652966  -15922.16767300   12520.31855463
C        4.82702671       5.32998914       2.00294045       0.00000000    -225.72081963    2563.85854177    2985.80731790
C        0.90208095      -0.25739681       1.66914877       0.00000000     177.74141375     169.57896733    -245.50108035
C        7.48216714       7.07024537       2.27055110       0.00000000     607.47444297    -619.22668779     634.06338982
C       10.29357854       1.18233657       6.06695951       0.00000000    1254.45101314    2293.02274462    3132.70718250
C        4.35391184       0.52946795       2.81034595       0.00000000    -164.33856246     -31.24600970    -173.57542483
C        4.54588856       3.35252789       3.06607583       0.00000000     -30.50099499   -4937.80045176   -7624.23593554
C        6.30102269       8.56849895       6.51059768       0.00000000    3848.75270683     802.08867549    1579.26570518
C        5.71420274       9.46533727       4.72086663       0.00000000   10667.71700521   13891.19413495    5248.99924644
Rh       2.65011157       7.02203322       4.77996563       0.00000000 -240869.63697301 15969413.02166282 -30019402.57938428
O        2.56754377       8.02930390       6.28739987       1.00000000  100326.38526605 -247938.44627425 -1450303.24529666
O        2.64028728       6.94942934       5.37622876       1.00000000 -198119.87192673  600395.16726744 10207292.14951224
