52
Lattice="12.336457 0.0 0.0 -6.168228499999997 10.683685154694365 0.0 0.0 0.0 15.0" Properties=species:S:1:pos:R:3:initial_magmoms:R:1:forces:R:3 energy=-454.80609655795735 free_energy=-454.80609655795735 stress="0.00033526643281608286 0.0053255567522917805 -1.945136455754863e-05 0.0053255567522917805 -0.0012907800796984731 -1.7461761218111183e-05 -1.945136455754863e-05 -1.7461761218111183e-05 4.212615545336592e-06" pbc="T T T"
C        0.03791694      -0.03339402       3.75483156       0.00000000      -0.00375609      -0.00734387      -0.00380794
C       -1.16111847       2.12679798       3.78070466       0.00000000       0.00864843      -0.00185560      -0.00386848
C       -2.38673286       4.24633027       3.83285596       0.00000000      -0.00089556       0.00417466      -0.00972245
C       -3.66948102       6.36511107       3.84964411       0.00000000       0.00214382       0.00206488      -0.00763120
C       -4.92982682       8.49235043       3.79941903       0.00000000      -0.00579173       0.00495339       0.00687190
C        2.49067597      -0.05177686       3.80731943       0.00000000       0.00316952       0.00223815       0.00278762
C        1.29858417       2.12092033       3.83440055       0.00000000      -0.00099165       0.00262013       0.00490774
C        0.10987868       4.30738074       3.76719824       0.00000000      -0.00351374      -0.00598173      -0.00224696
C       -1.19954263       6.38824151       3.67945220       0.00000000       0.00089199       0.00494174      -0.00966698
C       -2.45380467       8.50213520       3.72636138       0.00000000      -0.00135696       0.00076573       0.01349999
C        4.96422890      -0.04524781       3.75096425       0.00000000       0.00445722       0.01058001       0.00436730
C        3.74834077       2.04921504       3.91529987       0.00000000      -0.00795246      -0.00096489      -0.00110201
N        2.59183342       4.14625992       3.99346776       0.00000000      -0.00277830      -0.00362659       0.00519656
O        1.15737565       6.47762063       3.36539962       0.00000000      -0.00316875      -0.00267098      -0.00623753
C       -0.00826774       8.53093283       3.48230394       0.00000000      -0.00410696       0.00132456       0.00388187
C        7.43262613      -0.03191013       3.63409103       0.00000000       0.00067892      -0.01122932      -0.00262863
C        6.22927512       2.07512094       3.88979255       0.00000000      -0.01307347       0.00933547       0.00508028
C        5.00890559       4.16531934       4.07798777       0.00000000       0.00736966      -0.00102013      -0.01804480
S        3.76283253       6.49549271       2.04666873       0.00000000      -0.00015298      -0.00669378       0.00742734
C        2.43048247       8.55111339       3.27899902       0.00000000       0.00148856       0.00171727       0.00139637
C        9.91043531      -0.02363292       3.62860238       0.00000000      -0.00026802       0.00354799       0.00481594
C        8.70092223       2.10028731       3.80269723       0.00000000      -0.01023764      -0.00754037      -0.00133384
C        7.47508651       4.22030100       3.95713625       0.00000000       0.00471909       0.00360247       0.00197221
C        6.19516992       6.34903857       3.94974712       0.00000000       0.00245528      -0.00296487      -0.00312614
C        4.96461655       8.50427945       3.57806609       0.00000000       0.00564443      -0.00340572      -0.00284586
C        0.05974695       1.40381043       3.78542695       0.00000000       0.00507747      -0.00772377       0.00128114
C       -1.12890388       3.56406993       3.79882662       0.00000000      -0.00309509      -0.00272353       0.00001765
C       -2.42314768       5.66410815       3.80320692       0.00000000       0.00578222       0.00827434       0.00567728
C       -3.69186385       7.78743248       3.80189000       0.00000000      -0.00901489       0.00090892      -0.00803628
C       -4.91615354       9.92008765       3.78434241       0.00000000      -0.00068318       0.00268879       0.00558551
C        2.50724045       1.37149002       3.85555707       0.00000000      -0.00539399       0.00330185       0.00080990
C        1.35716532       3.55821169       3.85541381       0.00000000      -0.00226334       0.00179523       0.01250258
C        0.02172736       5.71334790       3.62380315       0.00000000      -0.00526101      -0.00800985      -0.01377164
C       -1.22974826       7.80770997       3.61849635       0.00000000      -0.00375510       0.00275999       0.00813381
C       -2.44567797       9.92742517       3.76069034       0.00000000       0.00778144       0.00415465      -0.00882675
C        4.98617754       1.36646902       3.86141083       0.00000000      -0.00919580       0.01370801       0.00305053
C        3.75216773       3.46180264       4.00459547       0.00000000       0.00435773      -0.01087949       0.01203554
C        1.19420925       7.87063369       3.28183572       0.00000000      -0.00485033       0.00185793      -0.01149789
C        0.02506545       9.94708036       3.61759070       0.00000000      -0.00050259       0.00140608      -0.00259089
C        7.45992905       1.38188178       3.78316381       0.00000000      -0.01630830      -0.01120568      -0.00237936
C        6.24943812       3.48694368       3.99733733       0.00000000       0.00067874       0.00791819      -0.00250653
C        5.01506052       5.57529548       4.10991702       0.00000000       0.02470677      -0.00329898       0.00468856
C        3.71938972       7.83135506       3.20012464       0.00000000       0.00944938      -0.00212478       0.01581671
C        2.49106378       9.94597821       3.50894932       0.00000000       0.00742139      -0.00383048      -0.00209430
C        9.93371450       1.39958138       3.73830966       0.00000000       0.00173709       0.00511191      -0.00540546
C        8.71269338       3.52120956       3.87614576       0.00000000       0.00054762      -0.00137445       0.00322198
C        7.44602292       5.64367650       3.94150958       0.00000000       0.00647911      -0.00059593       0.01069459
C        6.15726950       7.77298519       3.78552853       0.00000000       0.00066642       0.00156425      -0.00827033
C        4.96964774       9.92987951       3.65488957       0.00000000      -0.00465258      -0.00555193      -0.00751363
Rh       3.24205901       6.14713002       4.28211150       0.00000000      -0.01044771      -0.00403667      -0.00135760
O        2.15873354       5.91120192       5.93959254       1.00000000       0.01554732      -0.03696138      -0.00936923
O        1.46716200       7.01273375       5.96968126       1.00000000       0.00156861       0.04629818       0.01016180
