51
Lattice="12.336457 0.0 0.0 -6.168228499999997 10.683685154694365 0.0 0.0 0.0 15.0" Properties=species:S:1:pos:R:3:initial_magmoms:R:1:forces:R:3 energy=-436.9856263987838 free_energy=-436.9856263987838 stress="-0.004719800222559758 0.0009292663868573733 -1.009934801839439e-05 0.0009292663868573733 -2.5268614608476992e-05 -1.531573293177439e-05 -1.009934801839439e-05 -1.531573293177439e-05 -3.499407945553717e-06" pbc="T T T"
C        0.00406207      -0.01734701       3.96531359       0.00000000      -0.00524918       0.00600786       0.00300428
C       -1.23697650       2.11500605       3.95090307       0.00000000      -0.00051940       0.00225558      -0.00006937
C       -2.47091359       4.25954644       4.22174924       0.00000000       0.00341544      -0.00089049      -0.00578422
C       -3.69605711       6.40665942       4.23592563       0.00000000      -0.00258098      -0.00506143       0.00272968
C       -4.93454283       8.54083935       4.05835492       0.00000000       0.00093664      -0.00425509      -0.00058338
C        2.47102154       0.00103794       3.88543933       0.00000000       0.00057836      -0.00213329      -0.00279008
C        1.20113449       2.04338435       3.41012564       0.00000000       0.00340474       0.00707894      -0.01201610
C       -0.14984753       4.31744418       3.59711690       0.00000000       0.00538384      -0.00326490      -0.00308928
C       -1.26391629       6.42596167       4.12319781       0.00000000      -0.00660805      -0.00106185      -0.00096635
C       -2.47127807       8.55470391       4.14436172       0.00000000      -0.00250418      -0.00404590      -0.00254436
C        4.93924228      -0.01581927       3.89609259       0.00000000       0.00342511       0.00902723      -0.00204923
C        3.73043007       2.03728342       3.29416163       0.00000000      -0.00739121      -0.00017816      -0.00956658
N        1.06139069       6.42414839       3.49187165       0.00000000      -0.00172778       0.00114036       0.00591776
C       -0.00774796       8.51914167       3.93206558       0.00000000       0.00484469      -0.00182140      -0.00000311
C        7.41000817      -0.04227219       3.94208077       0.00000000      -0.00046610      -0.00721100       0.00641877
C        6.19564205       2.10459160       3.75403357       0.00000000       0.00376075       0.00419637      -0.00234574
C        5.20451778       4.28937242       3.12989118       0.00000000      -0.00279732       0.00454256       0.00011804
S        3.95236752       6.56201431       2.28329496       0.00000000      -0.00620928      -0.00034217       0.00141816
C        2.46950692       8.48573746       3.65892847       0.00000000       0.00457406       0.00633162       0.00567272
C        9.86591170      -0.04241426       3.98322833       0.00000000      -0.00359068       0.00317594      -0.01698402
C        8.64138154       2.10638642       4.09063125       0.00000000      -0.00197878      -0.00198685      -0.00117519
C        7.43482583       4.25250857       4.03423157       0.00000000       0.00217090       0.00247518       0.00571283
C        6.25225417       6.41068401       3.74382949       0.00000000       0.00999907      -0.00152879       0.00247050
C        4.94833738       8.52955689       3.77206259       0.00000000      -0.00132566      -0.00795337       0.00132014
C       -0.00194169       1.40643481       3.81536298       0.00000000       0.00023559       0.00818429      -0.00726679
C       -1.25855962       3.54509849       3.99501835       0.00000000       0.00434332      -0.00045447      -0.00393591
C       -2.47031434       5.68959691       4.25298352       0.00000000      -0.00450834      -0.00155702       0.00123323
C       -3.69949929       7.83383172       4.17776271       0.00000000      -0.00253611      -0.00809937       0.01122588
C       -4.92744262       9.97154797       3.99460185       0.00000000      -0.00270321      -0.00082190       0.00122566
C        2.46911633       1.40158286       3.51903509       0.00000000      -0.00326443       0.00014338      -0.00366055
S        0.94794914       3.51127518       2.50206057       0.00000000      -0.00848800      -0.01184528      -0.00325553
C       -0.08315205       5.72558539       3.75990548       0.00000000      -0.00060719      -0.00217560       0.00869306
C       -1.24234866       7.84095286       4.10204342       0.00000000      -0.00025429      -0.00037376      -0.00183400
C       -2.46702206       9.97563314       3.99197614       0.00000000       0.00451572       0.00123809       0.00299778
C        4.95009468       1.40034178       3.65716793       0.00000000      -0.00026254       0.01122808      -0.00455050
S        3.87357745       3.48700058       2.31399832       0.00000000       0.00025709      -0.01227425       0.00019395
C        1.19683595       7.76902225       3.68338024       0.00000000       0.00800284       0.00117766       0.00005387
C        0.00454960       9.94221572       3.93903904       0.00000000       0.00029505      -0.00197527       0.00126639
C        7.40644062       1.39223546       3.96393886       0.00000000      -0.00012260      -0.00787506       0.00402110
C        6.25600764       3.52843151       3.67803035       0.00000000      -0.00020290       0.00642176       0.00560330
C        5.20614860       5.67654318       3.15345159       0.00000000      -0.00046001       0.00346152       0.01689507
C        3.72660535       7.88533165       3.40952202       0.00000000      -0.00097078       0.00218806      -0.00998789
C        2.46802626       9.91397601       3.89879682       0.00000000       0.00031769       0.00128229       0.00751694
C        9.87693172       1.39436951       4.05571590       0.00000000      -0.00235548       0.00160549       0.00311831
C        8.64571158       3.53208698       4.18287698       0.00000000       0.00273217       0.00094765      -0.00252417
C        7.43370769       5.68149009       4.06604394       0.00000000       0.00379840      -0.00175110       0.00126424
C        6.19087662       7.82998310       3.85676228       0.00000000       0.00401680      -0.00379023      -0.00462381
C        4.93568256       9.94609801       3.95947010       0.00000000      -0.00711038      -0.00318723       0.00226881
Rh       2.42796432       5.12055885       2.95332326       0.00000000       0.00418018       0.00241464      -0.00168905
O        1.55838171       5.48636778       6.11271986       1.00000000       0.00347241      -0.00050448      -0.00215214
O        2.63497508       5.22249380       5.54907186       1.00000000      -0.00186602       0.01189513       0.00308690
