52
Lattice="12.336457 0.0 0.0 -6.168228499999997 10.683685154694365 0.0 0.0 0.0 15.0" Properties=species:S:1:pos:R:3:forces:R:3 energy=-452.5348720034646 free_energy=-452.5348720034646 stress="-0.00840296797916918 -0.0023779306367488484 -1.3087245196325851e-05 -0.0023779306367488484 0.0028379047854091054 -9.573631080175494e-06 -1.3087245196325851e-05 -9.573631080175494e-06 -7.984923643888105e-06" pbc="T T T"
C        0.03937269      -0.03699120       3.95399284      -0.00323172       0.00805759      -0.00583327
C       -1.22087775       2.06695333       3.95746872       0.00114474      -0.00152863      -0.01253019
C       -2.43947769       4.21871789       3.88082758      -0.00205973       0.00093923       0.00710686
C       -3.63569209       6.37940193       3.84176345      -0.00385980      -0.00009374      -0.00230522
C       -4.86818581       8.53299767       3.89496221       0.00049216       0.00006459      -0.00430796
C        2.51032607      -0.00829316       3.93028835      -0.00285310       0.00578099      -0.00843184
C        1.23763039       2.14165591       3.96285707       0.00718502      -0.00461823      -0.00624069
C       -0.01521961       4.20509794       3.98139664      -0.00546538      -0.00404429      -0.00186802
C       -1.21535582       6.37660135       3.92965453      -0.00428665       0.00031103      -0.00343825
C       -2.41871482       8.52466567       3.92270545       0.00458184      -0.00281138      -0.00584520
C        4.97946161      -0.03968615       3.76658600      -0.00018615      -0.00039386      -0.00229517
C        3.71275963       2.06031331       3.50699055       0.00614488       0.01104791      -0.00503057
N        1.15948503       6.34838983       3.95543085      -0.00504498      -0.00108186       0.00660415
C        0.04525657       8.47685990       3.85914672       0.00449051      -0.00524468      -0.00202291
C        7.44777243      -0.08427154       3.75719117       0.00083155      -0.00053400      -0.00180449
C        6.21857715       2.08138299       3.53102656      -0.00140141       0.00132793       0.00252267
C        5.12165456       4.31781885       3.19126406       0.00484098      -0.00364934       0.00412031
N        3.91729653       6.35826308       3.61681770       0.00639711      -0.00505802       0.01280135
C        2.51936844       8.41394108       3.80244949      -0.00478009      -0.00051391       0.00610866
C        9.89864024      -0.08837856       3.85983697       0.00106133       0.00221631      -0.00119113
C        8.66753990       2.06730014       3.76945034      -0.00272079       0.00390871      -0.00309321
C        7.47758879       4.23389946       3.62077494       0.00190262       0.00352120      -0.00519369
C        6.30382618       6.42206519       3.58411734       0.00161986      -0.00100471      -0.00497695
C        4.99955270       8.49320577       3.79048058      -0.00320663      -0.00141348      -0.00182300
C        0.02060566       1.38697422       3.98442744       0.00503197       0.00273330      -0.00532683
C       -1.23106345       3.48890553       3.95234331      -0.00524784      -0.00467924       0.00456154
C       -2.42677313       5.64946315       3.89766513      -0.00454466       0.00096437      -0.00473748
C       -3.64164261       7.80926628       3.90134479       0.00268794      -0.00131059      -0.00399601
C       -4.88302148       9.95572543       3.95744274      -0.00508778       0.00426317       0.00078052
C        2.49834543       1.41917482       3.83349526       0.00792800       0.00526208      -0.00604901
N        1.14888881       3.50709191       4.04754572      -0.01215319      -0.01103664       0.00043614
C       -0.00074097       5.66227800       3.94128013      -0.00177100       0.00194856      -0.00622392
C       -1.19443590       7.79860664       3.91298405       0.00443816      -0.00226541       0.01021294
C       -2.42217145       9.95312463       3.88677580      -0.00054840       0.00007881       0.00038349
C        4.97126520       1.38322511       3.58543516       0.00009158       0.00593024       0.00462735
P        3.53939693       3.67429291       2.72377752      -0.00234770      -0.00482351      -0.00655468
C        1.26311252       7.70715849       3.85272550      -0.00227263      -0.00144006       0.01688942
C        0.04472784       9.90590987       3.79010124       0.00243500      -0.00448182       0.00653885
C        7.43727735       1.35396351       3.68000728      -0.00298222       0.00085494       0.00745618
C        6.25659178       3.52183733       3.42616082       0.00570604       0.00102231      -0.00640811
C        5.10379358       5.73144918       3.37530773       0.00399190      -0.00167195      -0.00732400
C        3.78727551       7.73024508       3.73020345      -0.00551018      -0.00448189       0.01199899
C        2.50688871       9.85214829       3.80799806       0.00125382       0.00041583       0.00187715
C        9.88941490       1.34445306       3.87551263      -0.00227148       0.00417488       0.00099143
C        8.67620306       3.50158085       3.76349646      -0.00212280       0.00463181       0.01488321
C        7.49411271       5.66524702       3.67836742      -0.00293191      -0.00041077       0.00499075
C        6.25347855       7.82134979       3.76852199      -0.00050769      -0.00272067       0.00017292
C        4.97668721       9.91124536       3.88558193      -0.00105591       0.00185287      -0.00072405
Rh       2.65707472       4.94492777       4.24589091       0.00494692      -0.00896029      -0.00347125
O        2.72007504       5.86607002       6.03309565       0.01153993       0.00461900       0.00320663
O        1.40279900       5.78986160       6.65078601      -0.01244715       0.00592760      -0.01167162
H        1.64772914       5.32759972       7.47665414       0.01215511      -0.00158230       0.01144722
