51
Lattice="12.336457 0.0 0.0 -6.168228499999997 10.683685154694365 0.0 0.0 0.0 15.0" Properties=species:S:1:pos:R:3:initial_magmoms:R:1:forces:R:3 energy=-442.1224725684597 free_energy=-442.1224725684597 stress="-0.0050883891951069606 -7.148695400952749e-06 -1.3286185799795116e-05 -7.148695400952749e-06 0.0027691974761161523 2.609261267592524e-06 -1.3286185799795116e-05 2.609261267592524e-06 -1.6540113921399387e-06" pbc="T T T"
C        0.00248055       0.15209384       3.81505896       0.00000000      -0.00036481       0.00498156      -0.00128211
C       -1.24870290       2.25018394       3.99717998       0.00000000       0.00124564      -0.00095370       0.00411157
C       -2.48405818       4.40302539       4.12742449       0.00000000       0.00486049       0.00309728       0.00731836
C       -3.70225002       6.56061309       4.05438056       0.00000000       0.00269516      -0.00503091      -0.00116392
C       -4.93600764       8.70337805       3.82040819       0.00000000      -0.00364677      -0.00384757       0.00068573
C        2.46505457       0.19728120       3.73606263       0.00000000       0.00430359       0.00968760      -0.00637624
C        1.20243803       2.32412441       3.64902023       0.00000000      -0.00212688       0.00234277      -0.00215060
C       -0.10401680       4.36433013       3.63310644       0.00000000      -0.00315161      -0.00253871      -0.00266925
C       -1.28065952       6.54494629       3.74476409       0.00000000      -0.00456049      -0.00167173       0.00661748
C       -2.46950723       8.70237619       3.80404168       0.00000000       0.00385804       0.00399385      -0.00264624
C        4.92739892       0.15184674       3.81217016       0.00000000       0.00618311      -0.00021503       0.00085398
C        3.72776038       2.32461673       3.66538369       0.00000000      -0.00431667      -0.00405427      -0.00347847
S        1.01757943       6.51509942       2.34359932       0.00000000       0.00001538      -0.00871881      -0.00071008
C       -0.01350375       8.68744912       3.56242002       0.00000000       0.00257866      -0.00226793       0.00987165
C        7.40304739       0.11205054       3.88083054       0.00000000      -0.00321220      -0.00398547      -0.00671663
C        6.17764626       2.24964361       4.02381105       0.00000000      -0.00652876      -0.00468986      -0.00761063
C        5.03051806       4.36578079       3.68427656       0.00000000      -0.00243780       0.00202100      -0.01107798
S        3.92846799       6.51064800       2.37041499       0.00000000       0.00013012       0.00291015      -0.00252068
C        2.46592322       8.68472389       3.37804279       0.00000000       0.00199209      -0.00096445       0.00102218
C        9.86316441       0.11246483       3.88251020       0.00000000      -0.00502788      -0.00686284      -0.00871564
C        8.63299720       2.24774201       4.14284260       0.00000000       0.00445333       0.00454664      -0.00008317
C        7.41369295       4.40318729       4.15693261       0.00000000       0.00071014       0.00306549       0.00026765
C        6.20936597       6.54671954       3.79193937       0.00000000       0.00454003      -0.00271721      -0.00061900
C        4.94385956       8.68683379       3.58764630       0.00000000      -0.00251324      -0.00340073       0.00438356
C       -0.01109690       1.57364913       3.83709913       0.00000000       0.00161277       0.00323817      -0.00171789
C       -1.28154137       3.66483916       3.99758877       0.00000000       0.00093280       0.00037846       0.00255682
C       -2.48458856       5.83302634       4.03902902       0.00000000      -0.00005071      -0.00388597       0.00129291
C       -3.70254010       7.98613483       3.90412610       0.00000000       0.00226618      -0.00434005       0.00771670
C       -4.92714864      10.14260703       3.77691431       0.00000000       0.00309059       0.00305422      -0.00732703
C        2.46535386       1.63416422       3.64543795       0.00000000      -0.00445947       0.00387885       0.00794596
N        1.06473638       3.67667366       3.47903627       0.00000000      -0.00419554      -0.00224883       0.00728735
C       -0.17321449       5.75892965       3.38496712       0.00000000      -0.00244770       0.00114813       0.00667273
C       -1.25172788       7.97860751       3.68002153       0.00000000       0.00118863      -0.00109073       0.01100792
C       -2.47908948      10.14198203       3.76878795       0.00000000       0.00768257       0.00856988       0.00178891
C        4.94073805       1.57354839       3.85320086       0.00000000      -0.00715292      -0.00497416      -0.00021531
N        3.86459120       3.67893545       3.50965219       0.00000000       0.00223883      -0.00653103      -0.00467473
C        1.20338709       8.03747255       3.21314286       0.00000000       0.00152735       0.01223326       0.00207750
C       -0.00580704      10.10823014       3.77426967       0.00000000       0.00022938      -0.00483440       0.00406921
C        7.40461337       1.53114004       4.06061043       0.00000000       0.00052974      -0.00230141      -0.00034462
C        6.20902228       3.66475447       4.04269272       0.00000000      -0.00217026       0.00098939      -0.00434916
C        5.10040373       5.76026011       3.43766826       0.00000000      -0.00348105       0.00819024       0.00086914
C        3.72972159       8.03654294       3.23032411       0.00000000       0.00384022      -0.00059737       0.00272373
C        2.46506539      10.08614419       3.75459424       0.00000000      -0.00487089      -0.00607369      -0.00873775
C        9.86122988       1.53207299       4.05119276       0.00000000       0.00120627      -0.00179458      -0.00362581
C        8.63341407       3.67946647       4.20401365       0.00000000       0.00451749       0.00889643       0.00115598
C        7.41574605       5.83362405       4.06927583       0.00000000       0.00067666      -0.00119376      -0.00153115
C        6.18178815       7.97930167       3.71361509       0.00000000      -0.00269630      -0.00649140      -0.00150018
C        4.93594406      10.10847905       3.78557138       0.00000000      -0.00387105       0.00068738       0.00011692
Rh       2.46758836       4.92916750       3.00092394       0.00000000      -0.00259370       0.01047103      -0.00293976
O        2.53221576       0.84799400       6.58709650       1.00000000       0.00761056       0.01614466      -0.00339403
O        2.43998068       2.07334066       6.60821583       1.00000000      -0.00083913      -0.01624984       0.00576414
