51
Lattice="12.336457 0.0 0.0 -6.168228499999997 10.683685154694365 0.0 0.0 0.0 15.0" Properties=species:S:1:pos:R:3:initial_magmoms:R:1:forces:R:3 energy=-444.8217132083032 free_energy=-444.8217132083032 stress="-0.004848131544313304 -9.396797775464548e-06 1.0802290306775763e-05 -9.396797775464548e-06 0.002263828364716654 7.5688259961147045e-06 1.0802290306775763e-05 7.5688259961147045e-06 -7.639573249568563e-06" pbc="T T T"
C        0.13657053       0.01323369       3.46355652       0.00000000       0.00343541      -0.00300693       0.00149017
C       -1.10712186       2.11883014       3.30523660       0.00000000       0.00006880      -0.00376456      -0.00286467
C       -2.33626136       4.26536542       3.21496274       0.00000000      -0.00232966      -0.00486776      -0.00560636
C       -3.55789647       6.41600528       3.33701866       0.00000000      -0.00467811       0.00532450       0.01071348
C       -4.79448051       8.56192435       3.49724763       0.00000000      -0.00379359       0.00354263      -0.00311169
C        2.59777858       0.03594641       3.49671998       0.00000000       0.00117426      -0.00304360       0.00074130
C        1.33833208       2.19751566       3.62153217       0.00000000       0.00227089      -0.00221218      -0.00354892
C        0.09672686       4.25037444       3.39831232       0.00000000       0.00671731       0.00165944      -0.00440094
C       -1.11923655       6.42406924       3.24048716       0.00000000      -0.00149736      -0.00610018      -0.00469928
C       -2.33907079       8.56629554       3.32510732       0.00000000       0.00161067      -0.00003985       0.00194763
C        5.07501162      -0.00435065       3.51703577       0.00000000      -0.00136365       0.00852362       0.00004932
C        3.84080077       2.06132904       4.01386131       0.00000000      -0.00098276       0.00633523      -0.00625920
N        1.22357172       6.40041895       3.69415380       0.00000000       0.01423123      -0.00685964      -0.00745050
C        0.12977226       8.52026129       3.43641010       0.00000000       0.00172938       0.00337118      -0.01473212
C        7.54145527      -0.03359818       3.46655658       0.00000000       0.00270853       0.00610553      -0.00348231
C        6.33737588       2.11154635       3.73690691       0.00000000       0.00333986       0.00180282      -0.00509036
C        5.35456670       4.27666780       4.48709155       0.00000000      -0.00927967      -0.00477032      -0.00613292
P        3.87274751       6.47709482       5.11565171       0.00000000       0.00166543      -0.00213931       0.00359069
C        2.59756992       8.50087986       3.71135070       0.00000000      -0.00753960       0.00015102       0.00224097
C        9.99964195      -0.03223268       3.43586516       0.00000000       0.00237455       0.00154810      -0.00027636
C        8.77124416       2.11322948       3.35997644       0.00000000      -0.00284875       0.00740623       0.01336211
C        7.58565867       4.26445399       3.57945414       0.00000000      -0.00592186       0.00022506       0.00335326
C        6.41177514       6.42908852       3.92583521       0.00000000       0.00453831      -0.00187097       0.00522890
C        5.08682049       8.55509498       3.76261783       0.00000000      -0.00199491      -0.00375439       0.00256632
C        0.12950443       1.44134566       3.43403389       0.00000000       0.00313815      -0.00493632      -0.01147385
C       -1.11931137       3.53815241       3.23818369       0.00000000       0.00300014      -0.00301364       0.00188956
C       -2.33604577       5.69651115       3.21592541       0.00000000      -0.00880169      -0.00257250      -0.00635827
C       -3.56511329       7.84746005       3.36290956       0.00000000      -0.00230728       0.00613531       0.00937655
C       -4.79503987       9.99466039       3.46645452       0.00000000       0.00114537      -0.00032988       0.00212245
C        2.59696665       1.46104286       3.70685053       0.00000000       0.00055392      -0.00467170       0.00692232
N        1.22359778       3.56162042       3.69209246       0.00000000       0.00867015       0.00016164      -0.01204947
C        0.09670645       5.71179555       3.39996146       0.00000000       0.00840454      -0.00071215      -0.00960299
C       -1.10700359       7.84320448       3.30630188       0.00000000       0.00096651      -0.00422830       0.00799376
C       -2.33706058       9.99351637       3.43471040       0.00000000       0.00142025       0.00021583       0.00228344
C        5.08631628       1.40636746       3.75788860       0.00000000       0.00213359       0.00657634       0.00693066
P        3.87452394       3.48362630       5.11204075       0.00000000      -0.01483965      -0.00219499       0.01098535
C        1.33865781       7.76457213       3.62568568       0.00000000      -0.00062301      -0.00435836      -0.00912867
C        0.13673111       9.94795968       3.46355911       0.00000000      -0.00012912       0.00866974       0.00261880
C        7.54146380       1.39913478       3.49397403       0.00000000       0.00230411       0.00403585       0.00219769
C        6.41175620       3.53269027       3.92300442       0.00000000       0.00042618      -0.00327921       0.00766012
C        5.35358874       5.68552082       4.48839186       0.00000000       0.00174244      -0.00596301      -0.00454130
C        3.84128840       7.90010700       4.01820697       0.00000000      -0.00780847      -0.00144046      -0.00291453
C        2.59809251       9.92548112       3.49869197       0.00000000       0.00068762       0.00313119       0.00345627
C        9.99764619       1.39485752       3.32340560       0.00000000      -0.00464452       0.00454280       0.00779470
C        8.77866330       3.54496373       3.33566309       0.00000000      -0.00440299       0.00334629       0.00567353
C        7.58537457       5.69693099       3.58048099       0.00000000      -0.00228958      -0.00090271       0.00480269
C        6.33797498       7.85013381       3.74108982       0.00000000      -0.00076083      -0.00284096      -0.00610764
C        5.07506465       9.96545974       3.51952799       0.00000000       0.00308400      -0.00274808      -0.00044394
Rh       2.48821486       4.98020349       4.40464526       0.00000000       0.00512346       0.00381418       0.00102750
O       -0.75628195       4.98842113       9.58786439       1.00000000      -0.00237987       0.00001331      -0.00199338
O       -1.69416653       4.99377088       8.78180231       1.00000000       0.00255186      -0.00001592       0.00325012
