52
Lattice="12.336457 0.0 0.0 -6.168228499999997 10.683685154694365 0.0 0.0 0.0 15.0" Properties=species:S:1:pos:R:3:forces:R:3 energy=-448.3511412272555 free_energy=-448.3511412272555 stress="-0.0046794679363364325 -7.021787660854972e-07 3.171784517453958e-05 -7.021787660854972e-07 0.0027080207924925115 7.153815923950449e-06 3.171784517453958e-05 7.153815923950449e-06 -2.781375904253741e-05" pbc="T T T"
C       -0.00385271       0.01174258       3.54689467       0.00132702       0.00603945       0.00749590
C       -1.24790136       2.11789615       3.38924478       0.00061125       0.00341846      -0.01047185
C       -2.47752144       4.26504387       3.32088460      -0.00675730      -0.00003705       0.00043150
C       -3.69737054       6.41548377       3.46320968      -0.00114091      -0.00246461      -0.01239918
C       -4.93486198       8.56129322       3.60631783      -0.00044978      -0.00073217      -0.00585444
C        2.45707369       0.03566044       3.58605692       0.00435396       0.00075056      -0.00610282
C        1.19974022       2.19850336       3.68093067       0.00359018       0.00255987       0.00792234
C       -0.04198602       4.25039169       3.45093104       0.00382947      -0.00315263      -0.00120610
C       -1.26031707       6.42411831       3.31739977      -0.00130312       0.00094644       0.00477801
C       -2.47953050       8.56623761       3.42192276      -0.00198960       0.00009707       0.00894461
C        4.93404921      -0.00230548       3.60805115       0.00605297      -0.00226082       0.00862057
C        3.69745674       2.06613120       4.09598287      -0.00586605       0.00662373      -0.00881745
N        1.09146451       6.39705609       3.73110580      -0.00280511      -0.00306815       0.01062137
C       -0.01037575       8.52116754       3.50552956       0.00524406      -0.00469075       0.00879573
C        7.40102096      -0.03267750       3.56113345      -0.00291452       0.00207019       0.00107875
C        6.19592766       2.11183420       3.84717697       0.00501850      -0.00150296      -0.00020218
C        5.19918265       4.27692743       4.57955773       0.00989702      -0.00422808       0.00373899
P        3.71634490       6.48036966       5.20754303       0.00543292       0.00302240       0.00130107
C        2.45680594       8.49895250       3.78395689      -0.00151814       0.00240000      -0.00501109
C        9.85965501      -0.03272611       3.52564868      -0.00707226      -0.00217012       0.00829809
C        8.63098317       2.11397148       3.47759141       0.00255337       0.00105115      -0.00659162
C        7.44593287       4.26400603       3.70956027       0.00060845       0.00617013      -0.00135209
C        6.26905982       6.42950439       4.04063574       0.00133145       0.00170217       0.00000294
C        4.94523789       8.55344764       3.85519284      -0.00309773      -0.00295741      -0.00854294
C       -0.01007530       1.44020451       3.50500991       0.00139607       0.00960322       0.00492051
C       -1.26042728       3.53725140       3.31896669      -0.00232361       0.00332971       0.00336450
C       -2.47744499       5.69615498       3.32202693      -0.00167293      -0.00246758      -0.00623460
C       -3.70495633       7.84707674       3.47825121      -0.00249356      -0.00122923      -0.00344104
C       -4.93561237       9.99354786       3.55964364       0.00239816       0.00331328       0.00606876
C        2.45633067       1.46237889       3.78332261      -0.00027038       0.00103731      -0.00677301
N        1.09141471       3.56510894       3.73015448       0.00820025       0.00187727       0.01292159
C       -0.04168211       5.71172581       3.45017262      -0.00185549      -0.00323547       0.00380074
C       -1.24780912       7.84345586       3.38619456       0.00027977       0.00184161       0.00527616
C       -2.47752714       9.99391840       3.52760788       0.00420010       0.00003163      -0.00301958
C        4.94456498       1.40796857       3.85439392       0.00028109       0.00048674      -0.00282399
P        3.71655431       3.48253416       5.20449534      -0.00765469      -0.00757605       0.00930370
C        1.19948995       7.76356554       3.68409836       0.00656574      -0.00481810      -0.01108409
C       -0.00422093       9.94950946       3.54920525       0.00516214      -0.00514640      -0.00127782
C        7.40109753       1.39968157       3.60659478       0.00340216       0.00260636      -0.00819292
C        6.26844392       3.53186760       4.03956650       0.00608106       0.00245607      -0.00818363
C        5.19964357       5.68570050       4.58138087       0.00304758      -0.00279805       0.00098342
C        3.69792301       7.89482702       4.09600982      -0.00444846      -0.00065940      -0.00353502
C        2.45788406       9.92543418       3.58478549      -0.00953975       0.00098745       0.00246771
C        9.85681921       1.39513929       3.42303549       0.00082194      -0.00323277       0.00324430
C        8.63863312       3.54551972       3.45956630      -0.00484433       0.00101330       0.00391152
C        7.44640947       5.69663526       3.71175629      -0.00103459       0.00303915      -0.01216003
C        6.19672319       7.84959417       3.84814817       0.00015459      -0.00200721      -0.00231540
C        4.93473044       9.96354205       3.60712991      -0.00152266      -0.00047990       0.00549188
Rh       2.34765591       4.98199957       4.44605582      -0.00893999      -0.00802024      -0.00781198
O        2.13853306       4.98898349       7.64601414       0.00742408      -0.00022214      -0.00275581
O        2.26384456       4.99377582       9.01214814      -0.00928071       0.00087321       0.01068647
H        3.23170182       4.98801888       9.18500603      -0.00846967      -0.00019064       0.00168950
