51
Lattice="12.336457 0.0 0.0 -6.168228499999997 10.683685154694365 0.0 0.0 0.0 15.0" Properties=species:S:1:pos:R:3:initial_magmoms:R:1:forces:R:3 energy=-442.47785982229885 free_energy=-442.47785982229885 stress="-0.0041653967558560575 -1.3256201908839549e-05 2.290769874636241e-05 -1.3256201908839549e-05 0.0033140000148439647 2.386471203028312e-05 2.290769874636241e-05 2.386471203028312e-05 -3.5952260416418797e-06" pbc="T T T"
C        0.17086436       0.01260600       3.85839039       0.00000000       0.00149504      -0.00185739       0.00112688
C       -1.07644506       2.11940846       4.00200416       0.00000000       0.00375580      -0.00380195      -0.00058710
C       -2.30526583       4.26510832       4.08136965       0.00000000       0.00249407      -0.00742649      -0.00050955
C       -3.52153078       6.41245226       3.96241389       0.00000000       0.00328459       0.00299730      -0.00713404
C       -4.76593157       8.55694445       3.81858096       0.00000000       0.00112901      -0.00226079      -0.00649942
C        2.63282176       0.03376176       3.82627335       0.00000000      -0.00048332       0.00356128      -0.00431280
C        1.37910753       2.19743742       3.74287974       0.00000000       0.00030694      -0.00094083       0.00281736
C        0.12697673       4.25151209       3.96723350       0.00000000       0.00885536       0.00451366       0.00043983
C       -1.09091510       6.42005005       4.06933245       0.00000000       0.00160759      -0.00733383      -0.00207031
C       -2.30565205       8.56119317       3.96620524       0.00000000       0.00606021       0.00384110       0.00891564
C        5.10627979      -0.00688795       3.80341811       0.00000000       0.00341510      -0.00617154       0.00254949
C        3.87291339       2.06919197       3.32242108       0.00000000       0.00438006       0.00014642      -0.00167514
N        1.28144130       6.38870727       3.72725306       0.00000000       0.00737741       0.00841440       0.00482159
C        0.16704336       8.51416133       3.89272388       0.00000000      -0.00725662       0.00240458       0.00488523
C        7.57368874      -0.03640654       3.85290842       0.00000000       0.00274266       0.00650578      -0.00378652
C        6.36116631       2.11130696       3.59865456       0.00000000      -0.00525249      -0.00004537       0.00319737
C        5.34876478       4.28302102       2.93894503       0.00000000       0.00070644       0.00105440       0.00320969
S        3.93058184       6.48147565       2.27984649       0.00000000       0.00549126       0.00366027       0.00627961
C        2.63427462       8.48816567       3.64602648       0.00000000      -0.01108903      -0.00445371      -0.00792637
C       10.03244733      -0.03302476       3.87850348       0.00000000      -0.00291241      -0.01167220       0.00459580
C        8.80376800       2.11398596       3.93764693       0.00000000       0.00605172       0.00082367      -0.00176199
C        7.61235083       4.26315542       3.75863984       0.00000000      -0.00158377       0.00544725      -0.00244029
C        6.42708281       6.42353159       3.45075736       0.00000000      -0.01182218       0.00227929       0.00368911
C        5.11644352       8.54548311       3.58216038       0.00000000      -0.00324625       0.00609435      -0.01347986
C        0.16553745       1.44281090       3.89566339       0.00000000       0.00212423      -0.00270282       0.00795550
C       -1.09146020       3.53787517       4.07391120       0.00000000       0.00811878      -0.00139882       0.00025259
C       -2.30492310       5.69351071       4.07903240       0.00000000       0.00031611      -0.00812759      -0.00516137
C       -3.53210382       7.84249373       3.93069585       0.00000000       0.00666348       0.00525675       0.00520704
C       -4.76324638       9.99260449       3.85204995       0.00000000       0.00028655      -0.00123233      -0.00597364
C        2.63215901       1.46799020       3.64446443       0.00000000       0.00256928       0.00586362       0.00444711
N        1.28111670       3.56765195       3.73090204       0.00000000       0.00661435       0.00097409      -0.00498530
C        0.12693769       5.70525952       3.96440110       0.00000000       0.01039954       0.00491111       0.00249579
C       -1.07548703       7.83830197       3.99512847       0.00000000      -0.00166443      -0.00622984      -0.00205781
C       -2.30443592       9.99000955       3.87450677       0.00000000       0.00072421       0.00219490      -0.00023666
C        5.11566442       1.41085492       3.58059160       0.00000000      -0.00068124      -0.00898746      -0.00159563
S        3.92975207       3.47397056       2.28060266       0.00000000       0.00716753       0.00815820       0.00012548
C        1.38087371       7.75894900       3.74114352       0.00000000      -0.01051852       0.00690876       0.00632191
C        0.17123632       9.94409084       3.85766860       0.00000000       0.00483025       0.00177394      -0.00620167
C        7.57032624       1.39922780       3.82040449       0.00000000       0.00087704       0.00904664       0.00263818
C        6.42607939       3.53224803       3.45272892       0.00000000      -0.00235175       0.00128253       0.00064406
C        5.34941632       5.67254851       2.93828768       0.00000000      -0.00643320      -0.00047402       0.00066695
C        3.87457569       7.88713723       3.32201421       0.00000000      -0.00521666       0.00049220       0.00378280
C        2.63386323       9.92272855       3.82836576       0.00000000      -0.00598270      -0.00784054      -0.00228136
C       10.03038283       1.39582570       3.97534229       0.00000000       0.00396575      -0.00968582      -0.00701308
C        8.81470444       3.54434926       3.96603398       0.00000000      -0.00124364       0.00050486       0.00050948
C        7.61289296       5.69242994       3.75720585       0.00000000      -0.00341427       0.00785922      -0.00181437
C        6.36168691       7.84470628       3.59771995       0.00000000      -0.00673234      -0.00025089       0.00565931
C        5.10648505       9.96363841       3.80553284       0.00000000       0.00131012      -0.00154437       0.00338336
Rh       2.54019915       4.97844338       3.14443623       0.00000000      -0.00904646      -0.00545749      -0.00702681
O       -2.62255050       5.08014239       6.95174311       1.00000000      -0.01134151      -0.00588688      -0.01152036
O       -1.39490236       5.02438205       6.93721347       1.00000000      -0.00684768      -0.00118759       0.01743433
