51
Lattice="12.336457 0.0 0.0 -6.168228499999997 10.683685154694365 0.0 0.0 0.0 15.0" Properties=species:S:1:pos:R:3:initial_magmoms:R:1:forces:R:3 energy=-762125.4905296117 free_energy=-762125.4905296117 stress="170.52846678909424 -169.45113165445972 170.54358547596033 -169.45113165445972 622.1571722511152 -463.1193697143867 170.54358547596033 -463.1193697143867 404.44180654091525" pbc="T T T"
C        0.65249988      -2.04460045       4.41642656       0.00000000      79.09385415     -86.47543224     136.34117803
C       -7.23669072       4.13977700      -2.38019831       0.00000000      -0.01074286       0.01373985       0.02456201
C       -0.62805861       5.47490299       4.80188368       0.00000000    4028.67020040    1041.50799949    5414.24411720
C       -2.96733610       5.58501540       1.13822101       0.00000000      -3.62162616       0.74955781      -1.80639702
C       -1.77631580       6.77498450       1.42311623       0.00000000    -238.52595114      16.59870031    -192.53040995
C        1.26033854      -0.50649286       5.83778612       0.00000000     -49.50856078     128.86068570       6.23923632
C       -2.24623402       3.54606351      -3.82026955       0.00000000      -1.25301417      -3.18822035       0.35801570
C        4.58032012       4.34423782       1.84924333       0.00000000     116.26026437    -107.59756047      98.69299457
C       -1.09327271       1.93876385       7.85700144       0.00000000     762.59899658     967.72550600    -310.07496168
C       -2.84486299       7.84486295       5.83327457       0.00000000     966.50967259    -413.01026717     218.07748610
C        1.85849934       2.08096999       5.31120848       0.00000000     252.09952869     765.39699545     289.97781463
C        5.87808755       2.44068384       2.55759787       0.00000000      24.84521517     -15.82232220     -65.19342644
N        2.65131975       6.99813364       2.80091599       0.00000000    3793.06210405    2352.66650378   -7292.34696847
C       -3.03967377       3.64373136      10.02312292       0.00000000       4.57118778       4.40358137       0.79879522
C        8.87591533      -1.31110295       1.07735724       0.00000000      95.45326026     290.10760728    -305.31070780
C        4.81253620       4.92191016       4.39802324       0.00000000   -2890.35293169     573.08944440    2151.24875763
C        2.99347066       7.82508037       5.26331873       0.00000000   -6166.12578277  -10617.69815496   22923.83832130
N        6.05215069       9.27051411       3.75773321       0.00000000     719.74991172     291.21637428    -379.23171226
C        3.95382024       8.50053436       6.03747759       0.00000000  -23661.06910952  -23329.65375886    7891.78103480
C       13.22201504      -1.28835261       1.33181418       0.00000000       0.95902199       0.36367087      -1.17653563
C        6.30807486       0.83347307       5.06669251       0.00000000     -56.80240006     141.40459921       9.13433315
C        9.50131429       2.83197816       1.96322372       0.00000000     -18.37632497      -6.94306858      -5.58961067
C        1.87172371       6.70187674       4.19259530       0.00000000 -121385.38434386  -56055.94042388   45208.81040677
C       -0.35652246       3.74793890       2.57023786       0.00000000     378.54544768     225.97592094     814.28236482
C        2.44887746      -0.52365465       5.27207045       0.00000000      68.13523097     -35.21936055     -23.64169980
C        4.77857282       3.06333715       1.15013085       0.00000000      25.61625088     -34.44970474     -19.28951978
C       -2.81609970       5.12035249       8.83195535       0.00000000     987.70731595     154.22036455    -434.69508352
C       -3.34903147       5.34992330       5.24117891       0.00000000     643.75766949      53.74987525     192.01679601
C       -5.00559845      11.72659838       5.46254677       0.00000000     381.59791857    1179.95994979     409.27831941
C        1.67389097       7.95521338       0.14472961       0.00000000     -42.59214807     132.79676883    -444.10718426
N        1.33649305       3.89004122       4.51793984       0.00000000   -1147.14836592  -15208.64074727  -14368.30378921
C        2.17526219       8.73992949       8.25895966       0.00000000     -57.89075355   -4912.53397512   -3083.32245231
C       -1.65821884       6.15942569       6.29551835       0.00000000    2751.86379530    -509.34750737    -445.89895004
C       -1.07276485       9.71831891       1.99563906       0.00000000    -134.81571591     131.74982219     -99.48671591
C        2.00907995      -0.55347839       3.89358616       0.00000000       3.56820033      10.78220892     -23.34858453
N        7.45845716       8.74198269      -6.45785397       0.00000000      73.48397928      31.16727174      32.08640124
C        1.29655983       7.42104493       5.58064697       0.00000000   40127.71396012  -47923.55826993   23771.59227578
C       -1.53448489       8.23638092       0.27330206       0.00000000     -37.07251852      15.93281409     -34.42485951
C        5.10761781       2.80531063       4.36063896       0.00000000    -803.90151933     870.63603847     655.27156915
C        9.68917291       3.27551963       6.73674836       0.00000000    1200.47571188     594.22088552     -24.88329525
C        1.56604370       6.50193856       4.31169508       0.00000000  123653.41661136   53057.58900395    8613.35822137
C        3.19548502       8.14246794       6.02756500       0.00000000   -1285.71920525    2233.47396245  -17782.48241740
C        4.49832544       8.57576827       4.82817765       0.00000000    -439.34298810    -647.80659828    -877.18632311
C        9.10171572       0.16491132      -1.25852543       0.00000000       0.01592551       0.48212130      -0.43834860
C       13.11489798       3.91629538       2.53344880       0.00000000     334.58167034     482.14338100    1154.76316599
C        6.65259794       6.66723207       1.46054890       0.00000000      32.19187226      -5.32703163     -12.63088904
C        2.75560182       6.65717907       6.66274397       0.00000000   -2794.58005842 -157663.92974469   81815.55413879
C        4.63329710      10.95986987       4.85605317       0.00000000      59.91058465    -245.38137544      89.82002283
Rh       1.63104916       5.94555737       6.37472743       0.00000000  816290.72006976 -2053757.46610111 1655309.20948208
O        1.91367032       5.55526414       6.76505583       1.00000000 1302193.84799380 -348101.77340767  679886.75887038
O        1.88587085       5.53285796       6.76098843       1.00000000 -2138836.92936482 2653932.77767770 -2490866.15783907
