51
Lattice="12.336457 0.0 0.0 -6.168228499999997 10.683685154694365 0.0 0.0 0.0 15.0" Properties=species:S:1:pos:R:3:initial_magmoms:R:1:forces:R:3 energy=-604435.034831892 free_energy=-604435.034831892 stress="316.1603385708815 -3.5079172177864892 186.17257713760415 -3.5079172177864892 628.5086689891315 361.9287686038196 186.17257713760415 361.9287686038196 1193.8534932358027" pbc="T T T"
C        1.92460162       0.98325576       5.52873307       0.00000000   -1194.10197668    1206.98312715    -326.84318471
C       -3.22533267      -1.57534254      11.10388782       0.00000000       0.30440546      -0.19113501      -0.16125488
C       -2.61937087       5.15787837      -0.28726599       0.00000000       6.26502150       2.71701257      -6.56886164
C        3.08946184       7.51099125       4.54776701       0.00000000      -5.45565106    -213.38295841    -175.79964542
C       -5.45539961       9.45463972       6.34633050       0.00000000    -132.51934489     -47.95920862     -33.87732206
C       -1.07387519       1.57095083       6.88135896       0.00000000      13.52071644      -8.94777526      14.48428246
C       -5.39238043       9.39390673       8.30575315       0.00000000     -11.80027352      -7.54402683      18.48905500
C        5.72640325       3.85285289       5.49313323       0.00000000 -193415.24821095 -1207740.37769733 -3105035.23762528
C       -6.49913409       6.35643290      -3.26683612       0.00000000       8.83400481       0.55651796       8.25808997
C       -4.88782570       5.05370753      -2.68220418       0.00000000      -4.10740246       4.00402909      -0.86280875
C        1.77125965       3.07489831       3.72959599       0.00000000     167.78423254     109.26437346      87.41942900
C        3.86692509       1.49728413       5.39853950       0.00000000   -9648.52731573   -2280.94963733   -5244.11814144
N        4.64711421       0.97853735       1.19565869       0.00000000    -441.90255912    -331.65431091   -1132.27806004
C       -0.99763774      12.05359595       4.29374578       0.00000000   18980.22062790   92664.85259704   21448.39794631
C        8.33828336      -4.23316015       6.86331473       0.00000000      69.43673203    -110.83609863     -63.59336558
C        4.74972205       6.04064654       2.57846918       0.00000000     498.82570183    -573.34602080    1679.02292683
C        4.92946498      -2.11541472      -5.05988794       0.00000000       0.06268936      -0.59136779       2.14127532
N        5.20485907       4.03104459       5.47145271       0.00000000  381101.05272242 -429436.84870555 -407234.24612710
C        4.32900686       5.34712257       9.52742818       0.00000000     229.72421867    -235.00987880    -336.07290367
C        8.31454017       6.22853440       4.87215844       0.00000000   -1656.07964754      33.53109264    2827.78358526
C        7.98536142       0.57120986       1.39699594       0.00000000      19.55196267      23.47118627      -3.85269790
C        8.15111852       6.63298393       1.08510984       0.00000000      -8.15402442     -28.76763833      -7.71264279
C        8.57892938       6.05723641       4.08058341       0.00000000     918.35510641    -575.56971649   -2761.02328907
C        7.52472319       8.49853911       5.91483823       0.00000000    -858.69766364    -689.92325185      50.60355199
C        2.40187934       2.18510449      -2.70116257       0.00000000      -0.68561654      -0.58226956      -5.56680089
C        1.99499498       4.41501380      16.11799768       0.00000000     152.65327133     -75.46727545       7.64599074
C       -5.25573518       4.48967933       1.58728718       0.00000000      35.97379102    -333.92496767     988.45297070
C       -1.15955093       9.32505137       6.60159738       0.00000000      18.37476296    -494.55541434     155.80979966
C       -6.20467608      10.44124533       3.34748410       0.00000000     -17.52439281      -2.15998630     -11.65456501
C        2.62534857       0.03689167       5.25138721       0.00000000    -161.34459088    -645.66450824   -1250.51456167
N       -3.69375202       2.33148307      13.12299002       0.00000000      -0.87419574       0.74198195       0.82537053
C        7.26471492       7.99996587       2.31742628       0.00000000      47.39339616     120.49059087    -106.76421458
C       -4.20288391      10.20248191       7.00500817       0.00000000    -644.08977604    -917.17141247    1649.43557545
C       -4.08556947      13.37794735      -1.56350653       0.00000000     -12.99758605      -0.69407500     -16.38115171
C        4.62056829      -0.69934086       5.30932443       0.00000000      96.42166949     126.74077810    -475.45115124
O        5.04207376       3.87918934       2.82200017       0.00000000   16017.99792793   -6465.74416592   57243.54201870
C        3.45873588      10.30949473      -3.67871755       0.00000000      -0.08947155      -0.38836636      -0.17589391
C       -3.08103428      11.57025675       6.58044382       0.00000000    1416.03626232     909.40608786     -90.18895959
C        3.64050359       3.28723518       0.97428475       0.00000000    -543.56217219    -185.04216871    -700.79539733
C        0.91905148       1.65109706       2.50498418       0.00000000     -72.46125374      28.29929808     -14.29460023
C        3.12196422       1.20166207       0.98931232       0.00000000     198.73945253     128.03538450     -23.63178005
C        8.04754695       8.94696131       5.90464442       0.00000000     727.32330291     174.64376984     -63.20490199
C        3.34971939       8.30948136       5.11987681       0.00000000     129.39449948     186.59062527      91.58625087
C       14.33980385      -0.25971119       6.33244833       0.00000000    -437.63604617     -72.46654179     290.37902355
C        9.54020352       2.91915049       4.96651794       0.00000000    -824.34776816      66.05875085     -86.32616481
C        7.30054845       7.77189115      -1.77442825       0.00000000      -1.67213505      -2.36885267      -1.84366326
C       -0.54756305       8.14533065      -0.60423839       0.00000000       4.36557942       4.04528558      -1.78979147
C        0.33662180       9.55375257      -0.78212691       0.00000000      -0.23473368     -12.92566777      -6.60094003
Rh       5.43510147       3.58077591       4.75841002       0.00000000  840279.32181383  318277.19021662 2689551.80626361
O        5.63733053       3.11150134       5.16781629       1.00000000  -40005.70867975 1139158.12449314 -397369.05859845
O        5.90764452       3.70139862       5.18945864       1.00000000 -1011038.11138310   98265.30790131 1146470.40766059
