52
Lattice="12.336457 0.0 0.0 -6.168228499999997 10.683685154694365 0.0 0.0 0.0 15.0" Properties=species:S:1:pos:R:3:forces:R:3 energy=-445.52210375153584 free_energy=-445.52210375153584 stress="-0.0017735434714619984 -0.0027367569418397355 -1.064240397330846e-05 -0.0027367569418397355 0.0019803752029878396 -4.222599296132677e-06 -1.064240397330846e-05 -4.222599296132677e-06 1.775455804434704e-05" pbc="T T T"
C       -0.08971654      -0.10516677       3.96276028       0.00782942       0.00219480      -0.00589567
C       -1.34425315       2.02900487       4.12029213      -0.00191346       0.00688171       0.00047501
C       -2.57025487       4.17967741       3.85875470      -0.00336570      -0.00186287       0.00412845
C       -3.76725375       6.32419561       3.63556076      -0.00154273      -0.00165019       0.00474076
C       -5.00652600       8.46446579       3.70689346      -0.01004186      -0.00669461      -0.00589773
C        2.38923306      -0.11443512       3.92696487      -0.00269878       0.00556827       0.00601251
C        1.14996381       1.95387082       4.40100877      -0.00162489       0.00527733      -0.00201255
C       -0.22416756       4.25388217       4.45544680       0.00439208      -0.00298720       0.00295252
C       -1.34286634       6.33711056       3.89997865      -0.00520441      -0.00538568       0.00075353
C       -2.53994171       8.45686185       3.75728989      -0.00014085      -0.00166841      -0.00194577
C        4.85862818      -0.09822395       3.76080583      -0.00464669      -0.00297535       0.00881413
C        3.57889367       2.00103718       3.74504014       0.01310660      -0.00852764       0.00384856
N        1.04310609       6.32976656       4.32373857      -0.00962878       0.00271971      -0.00217819
C       -0.06472230       8.42433865       3.85971943       0.00332312       0.00489012       0.01033317
C        7.32525203      -0.11983520       3.76401752      -0.00664435       0.00553587       0.01030759
C        6.07218521       2.05319078       3.56914579       0.00314190       0.00327175      -0.00039399
C        4.92278164       4.28800391       3.27845966       0.00899241       0.00389438       0.00261783
O        3.73940243       6.36235722       3.52505910      -0.00016459      -0.00733768      -0.00422813
C        2.41053829       8.37139164       3.84325159       0.00605136      -0.00179896      -0.00561129
C        9.77480041      -0.12204109       3.85931614       0.00311873      -0.00104956       0.00324559
C        8.54268843       2.03487703       3.76054327      -0.00229753       0.00201697       0.00723066
C        7.32870495       4.18934472       3.52149865       0.00156661       0.00267977      -0.00124052
C        6.13958268       6.36471340       3.41711140       0.00095791       0.00124018      -0.00297330
C        4.86251676       8.45248679       3.68034237      -0.00588022       0.00196042      -0.00701312
C       -0.10016373       1.30870477       4.18873375      -0.00178895       0.00520381      -0.00244909
C       -1.36373654       3.47182219       4.15159438       0.00443307       0.00607458      -0.01444057
C       -2.55192843       5.60492422       3.78179398      -0.00475298      -0.00516627       0.00090075
C       -3.76922226       7.74844575       3.68705336      -0.00525043      -0.00206941      -0.00265969
C       -5.01741475       9.87572283       3.88099100       0.00101834      -0.00536121       0.00129323
C        2.37949620       1.29794393       4.07456049       0.00549059       0.00672999       0.00809366
P        1.16898850       3.51441750       5.27810027       0.00004136      -0.01109656      -0.00414355
C       -0.13549769       5.65982475       4.22137495      -0.00553235      -0.00409152      -0.00207232
C       -1.31184815       7.74169444       3.81895570       0.00493818      -0.00329086      -0.00458865
C       -2.54041695       9.87736563       3.80599680      -0.00635645       0.00136197       0.00424051
C        4.83759137       1.34150333       3.67456818       0.01015284      -0.00680808       0.00400390
S        3.33689734       3.61700575       3.16002457      -0.00554173      -0.00959520       0.00305289
C        1.14926629       7.66400205       4.00509638       0.00388141       0.00014941      -0.01010528
C       -0.07164327       9.85535102       3.77848937      -0.00531028       0.00462944      -0.00058210
C        7.30580468       1.32453681       3.68281966      -0.00340367       0.00588635       0.00486999
C        6.08483570       3.48760420       3.42828720       0.00485891       0.00344460      -0.00296093
C        4.94490983       5.68303124       3.31256014       0.00430414       0.00150050      -0.00054535
C        3.66209436       7.74141084       3.67371314       0.00218163      -0.00522488      -0.00769764
C        2.38651552       9.81740015       3.81669398      -0.00248403       0.00083553      -0.00216519
C        9.77463239       1.31854300       3.91443442      -0.00115443       0.00095529       0.00543842
C        8.54900855       3.46433460       3.70332012      -0.00243280      -0.00012302      -0.00004741
C        7.34897671       5.61325828       3.50180495       0.00015128       0.00203060       0.00563911
C        6.11283073       7.77212129       3.58501155      -0.01177434      -0.00198719      -0.00448496
C        4.84680799       9.86961278       3.84069544       0.00791606       0.00206933      -0.00018873
Rh       2.62923805       4.98385232       5.09588369       0.00233208       0.00842157      -0.00326839
O        4.19407998       5.47790716       6.10600619       0.00586187       0.00601456       0.00346001
O        4.03131650       6.90240076       6.33379389      -0.00388253      -0.01053057       0.01221658
H        4.45092470       6.94633939       7.21924405       0.00541790       0.00384411      -0.01687928
