51
Lattice="12.336457 0.0 0.0 -6.168228499999997 10.683685154694365 0.0 0.0 0.0 15.0" Properties=species:S:1:pos:R:3:initial_magmoms:R:1:forces:R:3 energy=-448.44141969546155 free_energy=-448.44141969546155 stress="-0.0061303716622094695 -0.0005637528033974989 -4.140427094050147e-06 -0.0005637528033974989 0.0045643612892996505 1.1728372548479118e-05 -4.140427094050147e-06 1.1728372548479118e-05 -1.32218360201223e-05" pbc="T T T"
C        0.05706202      -0.12618719       3.80355952       0.00000000       0.00127077       0.00872514       0.00540065
C       -1.19388554       1.97662740       3.89467933       0.00000000      -0.00381774      -0.00662106      -0.00099027
C       -2.42004845       4.12574276       4.03154419       0.00000000      -0.00369102      -0.00245498       0.00125180
C       -3.63121095       6.28569126       4.00628635       0.00000000       0.00569826      -0.00156429      -0.00472435
C       -4.86009401       8.44026890       3.89436021       0.00000000       0.00048246       0.00359717       0.00138870
C        2.52432168      -0.09444427       3.75788871       0.00000000       0.00259414      -0.00500365       0.01232111
C        1.25626949       2.06414610       3.64144470       0.00000000       0.00835600       0.00644136      -0.00021481
C        0.00586657       4.11948440       3.88413299       0.00000000      -0.00679006      -0.00121169      -0.00154477
C       -1.20140734       6.29043095       4.01885105       0.00000000       0.00196438      -0.00560809      -0.00392204
C       -2.40750143       8.43429533       3.91793251       0.00000000      -0.00306113      -0.01094611      -0.00101571
C        4.99970927      -0.14293832       3.68380804       0.00000000      -0.00183130      -0.00690239       0.00437318
C        3.76032903       1.94550025       3.28070192       0.00000000      -0.00079994       0.00194443      -0.00205387
N        1.15353899       6.25832598       3.69475252       0.00000000       0.00433913      -0.00232792       0.00967101
C        0.05538658       8.38096907       3.76950619       0.00000000      -0.00403522       0.00524687       0.01136471
C        7.46855695      -0.18608821       3.71108804       0.00000000       0.01459470       0.00253031       0.00344271
C        6.25016943       1.98120789       3.54855401       0.00000000      -0.00182193      -0.00324691       0.00366028
C        5.16824432       4.20986109       3.18527873       0.00000000      -0.00279679      -0.00453135      -0.00377487
N        3.91640561       6.26902382       3.36713885       0.00000000      -0.00093169       0.00996407      -0.00046544
C        2.52831789       8.31553854       3.64002675       0.00000000      -0.00523383      -0.00450032       0.00353983
C        9.91642820      -0.18469467       3.77914019       0.00000000       0.00074114      -0.00220048      -0.00526250
C        8.69008704       1.97061243       3.84201661       0.00000000      -0.00114760       0.00756694       0.00533586
C        7.49093176       4.13467630       3.80527558       0.00000000      -0.00350810       0.00567679       0.00401416
C        6.29734823       6.31001683       3.72383278       0.00000000      -0.00468624      -0.00372652       0.00499164
C        5.00728718       8.39003739       3.72062022       0.00000000       0.00265100       0.00753899       0.00144608
C        0.04646646       1.30256143       3.79022831       0.00000000       0.00481239       0.00614755      -0.00080535
C       -1.20568734       3.39665066       3.98494343       0.00000000      -0.00681205      -0.00581179      -0.00847272
C       -2.41427597       5.55974886       4.05777885       0.00000000       0.00249668      -0.00570619       0.00467412
C       -3.63353697       7.71934998       3.96647518       0.00000000      -0.00183930      -0.00341792      -0.00094224
C       -4.86812667       9.86681116       3.83496343       0.00000000      -0.00071140       0.00453609      -0.00717688
C        2.51645375       1.33240222       3.55778848       0.00000000       0.00450732      -0.00474080      -0.00762810
N        1.15567402       3.44092309       3.61245258       0.00000000       0.00003810       0.00770689      -0.00608916
C        0.00738523       5.57185867       3.90889088       0.00000000       0.00482967       0.00018414      -0.00062485
C       -1.18048817       7.70806862       3.91888514       0.00000000      -0.00316278      -0.00467357       0.00059837
C       -2.41107532       9.86080515       3.79256487       0.00000000      -0.00181878      -0.01372949      -0.00243679
C        5.00608102       1.27424595       3.49892498       0.00000000      -0.00482550      -0.00626928      -0.00392190
P        3.81162864       3.45538367       2.29895098       0.00000000      -0.00196463       0.01230064      -0.01062736
C        1.27099038       7.62161590       3.67677247       0.00000000      -0.00748866       0.00182463       0.00572940
C        0.06330922       9.80348118       3.72131448       0.00000000       0.00874432       0.00692569       0.00413953
C        7.46295710       1.25328483       3.70733833       0.00000000       0.00584408       0.00444723       0.00035646
C        6.28834395       3.42290071       3.51997046       0.00000000      -0.00167458      -0.00069555      -0.00060671
C        5.11518114       5.61892629       3.40091866       0.00000000      -0.00662298      -0.00210639       0.00186054
C        3.79180767       7.62700073       3.57530251       0.00000000      -0.00044959       0.00842895       0.00694346
C        2.52468745       9.75579826       3.71714066       0.00000000       0.00678524      -0.00811889      -0.01270159
C        9.91436588       1.24857691       3.86085201       0.00000000      -0.00582141      -0.00260045      -0.00664979
C        8.69449476       3.40454045       3.92493799       0.00000000      -0.00452593       0.00657751      -0.00172943
C        7.49470140       5.56587328       3.87214887       0.00000000       0.00191634       0.00303175       0.00134006
C        6.25585350       7.71930639       3.80278453       0.00000000       0.00170890       0.00063071      -0.01160597
C        4.99282408       9.81374208       3.77921928       0.00000000       0.00250910       0.00677950       0.00646800
Rh       2.49742529       4.87117738       3.21296916       0.00000000       0.00303480      -0.00957392      -0.00212933
O        0.44845761       7.88580572       6.65402163       1.00000000       0.00057370      -0.01702922       0.00303612
O        1.22319846       8.83530095       6.55147559       1.00000000       0.00137756       0.01656587       0.00076903
