52
Lattice="12.336457 0.0 0.0 -6.168228499999997 10.683685154694365 0.0 0.0 0.0 15.0" Properties=species:S:1:pos:R:3:forces:R:3 energy=-449.0801017225522 free_energy=-449.0801017225522 stress="-0.0042102675430073025 6.26019837881263e-05 1.789702558109218e-05 6.26019837881263e-05 0.0013263276346638048 -4.9465290950087145e-05 1.789702558109218e-05 -4.9465290950087145e-05 4.785700822566489e-06" pbc="T T T"
C        0.05238470       0.14924109       3.69258402       0.01433347      -0.00685869       0.00631593
C       -1.19635759       2.25508041       3.50224320      -0.00067438      -0.00010293      -0.01185358
C       -2.42518274       4.40413882       3.38573593       0.00272762      -0.00351384       0.00782650
C       -3.64903676       6.55582794       3.48270322       0.00481486       0.00173985       0.00840309
C       -4.88184090       8.69832968       3.70549351      -0.01447519      -0.00362980      -0.01051687
C        2.51605406       0.19017850       3.75681213       0.00673442       0.00324583      -0.00827183
C        1.24899899       2.31954268       3.86158555      -0.00263182       0.00485948       0.01037077
C       -0.02125810       4.33703093       3.87622592       0.00232301      -0.00390613      -0.00756030
C       -1.22015301       6.53422755       3.80503239      -0.00769024      -0.00798497      -0.00513593
C       -2.41893256       8.69719364       3.72886352      -0.00274537      -0.00310482      -0.01610286
C        4.98088614       0.14778572       3.70318277      -0.01606075       0.00495195       0.00921799
C        3.78192629       2.32054746       3.84174389       0.00745529      -0.01611369       0.00487965
P        1.13063091       6.46295503       5.16646525       0.01921570      -0.00491617      -0.01075083
C        0.03338250       8.70140015       4.02427372       0.00500647       0.01162750      -0.01685208
C        7.45169023       0.12511764       3.68127961      -0.00460812      -0.00145705      -0.01221847
C        6.22807539       2.25290879       3.47624431       0.00148409      -0.00467699      -0.01469328
C        5.04878513       4.33841302       3.79657189      -0.00429966       0.00342799       0.01231734
P        3.88773245       6.45002402       5.05425962       0.00163803       0.00427563       0.00259544
C        2.51373124       8.73289249       4.21364972       0.01106076       0.00191496      -0.01016857
C        9.91608126       0.12484752       3.67471405       0.00164125       0.00148214      -0.01258900
C        8.68448130       2.25307793       3.37529236       0.00419130       0.00190554       0.00516696
C        7.46020919       4.40428857       3.35283308       0.00053166      -0.00822358       0.00280562
C        6.25379719       6.53706219       3.73845426       0.00439510       0.00235018       0.00468137
C        5.00048077       8.70172909       3.98162701      -0.01032318       0.00473394      -0.00303924
C        0.04200003       1.57130430       3.65042108       0.00095077      -0.00312106      -0.00404084
C       -1.21586727       3.66696104       3.49880737      -0.00132322      -0.00196335       0.01475879
C       -2.42717458       5.83309988       3.49595289      -0.00319129      -0.00634101       0.00202137
C       -3.64968687       7.98279866       3.62621370      -0.00960767       0.00264830      -0.00674622
C       -4.87903181      10.13464622       3.72771843       0.01334855      -0.00636379       0.01102509
C        2.51574507       1.62076306       3.83743365      -0.00243678       0.00190176       0.01601082
N        1.10641516       3.64287102       4.15071027       0.00482653       0.00643840      -0.00259109
C       -0.09301363       5.74401372       4.11012579      -0.01141759      -0.00822435      -0.00826818
C       -1.19864889       7.97716371       3.87072535      -0.00106440      -0.00116153       0.01415209
C       -2.42446140      10.13383291       3.74109450      -0.00543788      -0.00275217      -0.00024066
C        4.98972519       1.56983634       3.63618997       0.00427687      -0.00528596       0.00704921
N        3.91762436       3.65476083       4.09112548       0.00801414      -0.01913180      -0.01684440
C        1.25696169       8.06950746       4.39191308       0.01050732       0.01065484       0.00129038
C        0.04579345      10.11173866       3.78387327      -0.01544206       0.01502958      -0.01035562
C        7.45565962       1.53612481       3.46488263       0.00446655      -0.00224888       0.00081756
C        6.24818908       3.66579092       3.44731961      -0.00703821      -0.00314839       0.00064297
C        5.11924077       5.74720193       4.01335779      -0.00528824       0.01417249       0.00258626
C        3.77541118       8.07059365       4.34965537       0.00498160       0.00099644      -0.00595498
C        2.51519420      10.10966013       3.83151064       0.00150374       0.00095774      -0.00044232
C        9.91261676       1.53716972       3.47172864       0.00050020       0.00295790       0.00224512
C        8.68599048       3.68382654       3.30877196       0.00472125      -0.00206689      -0.00368357
C        7.46432948       5.83430828       3.45570076       0.01267936      -0.00512124       0.02538039
C        6.23213942       7.97806737       3.82418711      -0.01526013       0.00102616       0.00412323
C        4.98743824      10.11291427       3.76160784       0.00433233       0.00441439       0.00528561
Rh       2.51919716       4.79330949       5.36585125      -0.01421021       0.00606846       0.01496445
O        2.72150044       3.28858677       6.60616618       0.00945064       0.00692243       0.00972212
O        1.39451631       2.67633862       6.81487949       0.01093623      -0.01188669      -0.01088591
H        1.64066208       2.11407210       7.57604786      -0.02782272       0.02260189       0.00315049
