53
Lattice="12.336457 0.0 0.0 -6.168228499999997 10.683685154694365 0.0 0.0 0.0 15.0" Properties=species:S:1:pos:R:3:forces:R:3 energy=-455.3084487569396 free_energy=-455.3084487569396 stress="0.0015096998184383542 0.0005869928827719976 0.00015409364449320612 0.0005869928827719976 -0.006421214524582823 1.0729934248040753e-05 0.00015409364449320612 1.0729934248040753e-05 8.290705743005451e-05" pbc="T T T"
C       -0.05498367       0.09711281       3.78308312       0.01221195       0.00565236      -0.03163852
C       -1.27171980       2.25122184       3.75928099      -0.00065386       0.00113343      -0.01106282
C       -2.50377994       4.37818894       3.79273856      -0.01020526       0.00316401       0.00155567
C       -3.75628568       6.50372501       3.81228351      -0.01352184      -0.01191977      -0.01548477
C       -4.99733943       8.63441622       3.79064769       0.02644076      -0.00542474      -0.01833432
C        2.41124520       0.08057290       3.72042699      -0.02594368      -0.00200807       0.01937509
C        1.19229431       2.21729292       3.75871485      -0.00695840      -0.01513181      -0.02023517
C       -0.00462534       4.35358393       3.99182049       0.00580837      -0.01897189       0.01269285
C       -1.27648674       6.49655912       4.09502167       0.00340739       0.01028490       0.00268416
C       -2.51958457       8.63039132       3.89152900      -0.01069605       0.02650629       0.01616460
C        4.87262506       0.09627362       3.74964287       0.01553474      -0.00483632      -0.03780908
C        3.63608914       2.19872833       3.55431467      -0.00491267      -0.02246234       0.01603580
O        2.45249611       4.20884793       3.88735427      -0.03255444       0.04269062       0.00707813
P        1.32812292       6.50675733       5.08701795      -0.03727138      -0.00284237      -0.02586405
C       -0.08390284       8.69699214       4.13242500       0.00017059      -0.00676604      -0.01045169
C        7.33033624       0.13927816       3.81649064       0.00491366       0.00858227       0.01900811
C        6.10019069       2.23726102       3.59342279       0.00935544       0.01409490      -0.00655132
C        4.83637236       4.32649862       3.48919577       0.00176233       0.00606633      -0.00329699
S        3.47607366       6.63970807       2.74115662       0.03283730       0.00380140       0.01841880
C        2.38260936       8.75621763       4.12274851       0.00068372       0.00898554       0.00951590
C        9.81748367       0.13922829       3.81560847       0.02047875      -0.01370744      -0.00785731
C        8.58203190       2.25730699       3.69090788       0.00398030      -0.01858244       0.00852540
C        7.33947522       4.37465920       3.64318638       0.00670358      -0.00720017      -0.02788091
C        6.09585770       6.51219585       3.65876128       0.00144586       0.02073068       0.03226394
C        4.89194668       8.66260415       3.89132809       0.01496563       0.00982712       0.00106465
C       -0.05294524       1.52067428       3.76658858      -0.00238718       0.00472555       0.00447895
C       -1.25436962       3.66781413       3.81555140      -0.00603004      -0.00012572       0.04003186
C       -2.51528917       5.79569010       3.88659396      -0.00977447       0.00592939       0.01813370
C       -3.76124149       7.92267493       3.83212069       0.00910149      -0.00729672      -0.00233095
C       -4.99732240      10.05511227       3.76852845      -0.00437190      -0.00871905       0.02219655
C        2.41083808       1.48949315       3.66672712      -0.01989507      -0.01355592      -0.02264441
C        1.21243317       3.60058470       3.88804861      -0.01056049      -0.01298992      -0.01290826
C       -0.07352100       5.74742231       4.28448481       0.00674484      -0.00915661       0.01761309
C       -1.29079206       7.93425319       4.07264691      -0.00885595       0.01174023      -0.00703233
C       -2.52172623      10.05190578       3.77839931      -0.01365230       0.02777887       0.02741630
C        4.87924470       1.51073454       3.60083226       0.01461507       0.00228719       0.02128483
C        3.64170146       3.58277568       3.53486542       0.00421806      -0.01659408       0.01503187
C        1.17513179       8.09490343       4.37714555      -0.00197916      -0.01016251      -0.04298113
C       -0.06651899      10.09962128       3.89216141       0.01556088      -0.01209477      -0.02465979
C        7.34123838       1.54618529       3.68226021      -0.00233279       0.00760565       0.01581901
C        6.09084856       3.65680984       3.54677735       0.00943615       0.01274823       0.02202761
C        4.85246064       5.78665968       3.51025182      -0.00134437       0.01960822      -0.01313752
C        3.61211175       7.96504408       4.02716708      -0.00330343      -0.00433536       0.01112323
C        2.40632277      10.13949036       3.89998025       0.01137068       0.00506868       0.00316775
C        9.82053031       1.55137098       3.74306920       0.00837685      -0.01924494      -0.00485505
C        8.58491644       3.67565866       3.69379201       0.00090935      -0.01944372      -0.00225818
C        7.33395268       5.79887151       3.70013863      -0.01260454      -0.00526772      -0.01388431
C        6.08843577       7.92595927       3.77185025       0.02538956       0.01660210       0.00404639
C        4.87554879      10.07840314       3.84122587       0.02643280      -0.00191886       0.00347873
Rh       3.49627361       6.28757000       5.18705481       0.02075729       0.00716847      -0.00761096
O        4.58494700       5.37662206       6.45222140      -0.03103116       0.00838557      -0.00074681
O        4.09195606       3.98548988       6.56152741       0.02209445      -0.03811010       0.01788660
H        4.69392333       3.71356116       7.28801230      -0.06486740       0.01770140      -0.03660295
