52
Lattice="12.336457 0.0 0.0 -6.168228499999997 10.683685154694365 0.0 0.0 0.0 15.0" Properties=species:S:1:pos:R:3:initial_magmoms:R:1:forces:R:3 energy=-585693.290299231 free_energy=-585693.290299231 stress="229.80513601961326 -46.92563970682999 52.9245748509858 -46.92563970682999 296.64472915827474 -63.97106659564272 52.9245748509858 -63.97106659564272 -23.526529320353124" pbc="T T T"
C       -4.39692249       0.09251762       5.33243792       0.00000000     864.55233234   -2538.24478840     375.69932839
C       -9.54684320       4.70618987       1.65288541       0.00000000   -1340.67375195    3891.31193019    7910.64780838
C       -6.92881186       4.87708269      -0.74817089       0.00000000      27.48129555      -6.14633362     -35.95680972
C       -3.34168433       8.41545488       1.02224937       0.00000000      45.87534606      -0.16075693     -60.50490810
C       -8.02925553       8.98148594       6.59351079       0.00000000    2300.41927142    1776.03340546     108.18506481
C       10.76206573       1.70531034      -0.90374894       0.00000000      -4.05003145      -1.68268733       2.02237275
C        2.08318119       1.04768798       0.22893323       0.00000000      -0.34244950      -0.98705278      -0.76282341
C       -0.81034085       4.14157889       7.33481394       0.00000000    2334.45309083    1198.15806924    -813.81519677
C       -4.03049440      -2.21414997      -6.66311317       0.00000000   -1916.60444723    1663.58639506    2636.86777554
C       -2.72332507      11.43650231       3.38974067       0.00000000      51.56091792    -200.93462976     -89.49756230
C        2.11488885      -2.14443400       1.33563258       0.00000000    -146.23392179      71.86976169      15.20211755
C        2.40570579       1.95199437       7.53974987       0.00000000     315.86757478    1304.95790472    -919.97269721
O        0.83958301       3.15169960       5.18365084       0.00000000   -5048.93955339  -12725.80352226     112.40690246
P        0.39068518       5.42213793       5.66293463       0.00000000  109560.69573442   83420.28994000  -15547.91168686
C        0.15577139       6.08315617       4.24014907       0.00000000   19477.88280435    7385.15882637    3132.98462960
C        5.07934419      -2.64364501       2.31471719       0.00000000   -1091.35034450    -174.55953522     453.77240479
C        5.05400268       4.22701212      -2.11709506       0.00000000      -4.64597664       5.63239593     -15.68395407
C        6.46130094       5.14119207       6.94702783       0.00000000    1040.09985413    -147.56624546    -228.21243222
S        8.12252302      12.44361411      -1.32374178       0.00000000      -3.44243489      -5.82692833     -11.76648927
C        6.81941472       8.28471831      15.24639710       0.00000000      -5.66358507       1.46962694      26.90037479
C       12.85949571      -2.29281587       3.70080565       0.00000000   -1911.94442413   12724.01991101  -16427.04902881
C       11.56662512       2.39361290       1.88579156       0.00000000     -47.80464086     -70.92951274     -24.67271264
C        9.92300130       1.34543902       4.81009830       0.00000000      79.57470610     -86.80864689      94.29392932
C       -3.55029845       9.74184653       5.56152617       0.00000000       0.37765394      43.18546296      53.86959694
C        1.08711594       5.97074971       2.66553027       0.00000000   63616.84640163   32790.86290339  -48395.50655574
C        4.10095317       1.66471529       6.76669481       0.00000000    -809.97083262    1381.48320388    -308.04872150
C        3.07881979       3.35498840       2.58532654       0.00000000    -733.78773208    3061.82725594    3277.38457262
C       -1.19833567       6.75909604       4.97746595       0.00000000    2419.59008525     509.35585983    -381.40198028
C       -7.46525907      11.28144986       2.39153224       0.00000000       1.16015672     -25.74326847      12.08869513
C       -2.38390475       4.25628379       6.41502323       0.00000000     677.15638856     274.52967094    -159.26364889
C       -1.23839021      -0.38850363      11.85577168       0.00000000      -1.25980265      -9.68866986     -13.11978834
C        3.00368477       3.93729093       4.14270971       0.00000000    8757.31330209  -75545.15163462  -47228.56338342
C        1.17839202       6.21504932       4.02751224       0.00000000  110621.92452006   26399.79333380  107857.10636445
C        0.77130103       5.75367700       2.99395664       0.00000000  -19825.74652670  -40377.61693089   81982.74549009
C        3.05498869      11.18452403       0.07588668       0.00000000       2.31345308       6.98014693       2.21077801
C        4.43271545       8.36486424      -5.64474516       0.00000000    -952.47971596    -558.56280303   -1538.32485993
C        2.33256635      -2.80888850       6.98938772       0.00000000     -35.34235600      37.91832401      58.86606199
C       -0.54037445       5.77389174       4.56809937       0.00000000  -11158.32870536   -3095.38835338   -2359.40281628
C        2.71857606      12.74044927       0.94779681       0.00000000       3.19183488      -5.27342763      -1.59851641
C        7.30228120      -2.15419414       5.86280006       0.00000000  -22268.53256682   24818.73351623    -212.77882632
C       10.11650262      15.48077102       9.50599167       0.00000000    -187.95657925    -259.32273477     946.58793399
C        9.43800762      -0.98438174       5.59696306       0.00000000     241.75476414    3896.76377463    -308.39571694
C        2.42810648       5.62371782       4.10495526       0.00000000  -99356.28851181  112755.20778592  -67195.63783819
C       -0.04844239       7.12002223       2.91025205       0.00000000    6481.25748617    2170.90176831    5786.90795882
C       11.65760022      -3.04742070       4.81385738       0.00000000    7000.03551929    3004.59538744   -1785.21109602
C        8.46914496       6.08843879       6.07132607       0.00000000    -112.36600815     -65.77639749      39.34364305
C        2.44477717       4.01455522       9.97931597       0.00000000     -29.50642394     707.10255280   -1293.84361173
C        6.61707660       8.04912000       4.09034243       0.00000000   -2781.25052249  -14583.61644054   19174.06247790
C        9.56694725      23.15422566      -3.17446507       0.00000000       2.36427598      -1.29538339       2.17909927
Rh       2.71436534       5.70638537       5.38026248       0.00000000 -349324.15792308  825607.44814238 -188462.53230789
O        2.83034439       6.08847508       5.78511724       1.00000000  -38667.02862521 4764109.80692671 1214984.41026818
O        2.74353599       6.16255155       5.68194933       1.00000000  221841.94962382 -5764531.89749896 -1055227.30967957
