51
Lattice="12.336457 0.0 0.0 -6.168228499999997 10.683685154694365 0.0 0.0 0.0 15.0" Properties=species:S:1:pos:R:3:initial_magmoms:R:1:forces:R:3 energy=-519592.08956001984 free_energy=-519592.08956001984 stress="750.0663424133307 -64.26786125286803 -11.166323951231368 -64.26786125286803 335.9601943237816 -11.371771256953517 -11.166323951231368 -11.371771256953517 468.6335988012966" pbc="T T T"
C       -0.00384114       1.11434265       3.66925865       0.00000000   -5591.02403694  -15507.96667455   -7993.67024242
C        0.69976351      -1.71771142       8.61156734       0.00000000     -56.29033074     -65.62864711      85.61139627
C       -1.92206447      10.31537115      -3.55658379       0.00000000      16.43949974      11.57434147      -7.88238950
C       -2.25985570       1.83276702       1.44827647       0.00000000       6.17306173      16.32048389      -4.85667976
C       -6.52208841       7.40436455       6.27003139       0.00000000     415.57212158    1299.65139910     -84.18214948
C       -3.98553137       4.28731990       2.15798599       0.00000000      11.23825060      25.97838814      26.66654598
C        4.04009910       1.90869519       5.94241407       0.00000000 -118067.47482163  471945.61674641  -72895.65532757
C        1.57218544       4.68694877       6.57304533       0.00000000  202964.98401759  -39538.81728455 -131369.81421480
C        2.19678095       3.96346739       3.94682796       0.00000000    7595.40915082   36574.20543812  170486.84856573
C      -12.90431976      11.29351938      10.78676672       0.00000000      73.35524185    -103.46972278     262.46729268
C        1.66784270      -4.13943513      -1.74385984       0.00000000      -2.34469167       2.93166805      -4.96523057
C        2.94079687       6.83468647      -2.18123902       0.00000000       0.01560863       5.95596615       4.76825574
O        2.89698641       4.44817680       5.72413369       0.00000000  398739.64879373  -57718.47490743 1265121.56957698
C       -0.97069616      12.02588974       4.28870629       0.00000000   -7207.62035710    1783.28041275   14271.73288329
C        5.99129984       0.60614114       5.51731077       0.00000000  -19008.83500188   10165.52890735    1959.82076927
C        6.79003173       4.45964798       2.23298479       0.00000000     589.24612827     105.86125990    -828.73481685
C        8.13703738       2.09239833      -4.91964351       0.00000000      20.98139677      -4.49938625      12.96343343
O        1.45401696      16.53962518       2.39262989       0.00000000     -62.91942605      69.38013998      15.30797274
C        3.22134742       6.21052143       4.51425409       0.00000000  -10867.25598879  -77505.73113969   61048.07528693
C        6.18451812      -3.12207918       2.37963137       0.00000000     413.94244328    -456.93070303     411.21595149
C       11.53275953       1.96486647       8.04012616       0.00000000       2.95541969     335.63660460    -218.32643016
C       11.88767096       7.78851663      -3.93544420       0.00000000      -0.49276007      -2.52872555      -3.56514322
C        5.01597122      -4.88553388       7.09850411       0.00000000    1119.58985151    -449.17299923    -486.41848876
C        7.30276032       7.30617099      -2.97088775       0.00000000       1.00279899      -0.06889187       4.45240914
C        1.86777690       3.43326895       5.77408480       0.00000000  123879.72446562   58734.09926980   33512.54906565
C        1.27439047      10.49998213       6.21423239       0.00000000    1289.45884821    -666.50401345     205.30757717
C        1.21455683       3.88250916       4.74521154       0.00000000   78276.68282072   10111.19046005   13276.57860754
C       -0.89707085       7.27360296       0.95476281       0.00000000      12.68999490     -28.98395530      22.10013650
C        1.40999238      15.35948211       3.50924622       0.00000000    1267.79560211     122.63525207    -804.10007031
C       -2.27679766       3.31493757      12.51645349       0.00000000       0.12373217      -0.00141603      -0.28111502
O        3.76525693       2.21084918       6.11440338       0.00000000  -86379.71032935 -470177.10364575  478460.29048879
C        1.49394823       5.34339209       5.74228950       0.00000000  172056.80620660  -84812.09853998   24469.43376194
C       -0.81302615       0.53340289       5.22642537       0.00000000     102.49096815     408.72052743     222.64996637
C       -3.53862185       6.38716085       2.58391905       0.00000000      90.54479478      67.41719079     -29.72980647
C        5.74299147       2.79651418       4.95568420       0.00000000    1628.62336193  -11446.18092905   -2067.76677984
O        4.96417564       4.99408002       5.49143723       0.00000000 -150516.87646276  -82115.19627966   69119.64028072
C        2.94104197       4.45678134       5.75740509       0.00000000 -800833.50658426   74799.55557074 -1435567.95390969
C       -3.06586703       7.59531528       0.79601929       0.00000000      -0.88830299      -6.90004741       7.77286428
C        6.39436384       0.80838914       4.90940903       0.00000000   -5151.54760725    2433.43282548    2899.24405297
C       -3.67933082       1.67870711       4.32718170       0.00000000     445.34428200     -32.73950379    -140.62841076
C       -1.28761015       6.21039620       7.98591546       0.00000000      94.25868176    -147.79605825    -174.12044598
C        2.16448764       5.03215145       4.60677968       0.00000000   79881.55889232   38313.25941410   17579.33354871
C        6.50889837       9.33749458      -3.66631636       0.00000000       1.26923579      -2.87020766       0.37184116
C        7.03593710      -0.55711162       3.56721858       0.00000000     391.39949518    -699.95429829    -396.91006123
C       11.86751353       7.94787870       4.87063607       0.00000000     327.53441533    -654.89357472      51.03450658
C        2.94690884       8.34877185      -0.97956868       0.00000000      -0.16092908      -5.94519241      -4.57807133
C        6.38014089      12.31059098       3.91665449       0.00000000    5075.49997663   14045.37501795    6987.98793971
C        6.37958813      12.25267363       1.35572265       0.00000000      35.64626797      60.93517352     130.71115226
Rh       3.39410140       2.06303884       6.52110521       0.00000000  197226.25770451   36673.50740655 -359947.89264296
O        4.47773117       3.99238380       7.27955865       1.00000000  -79437.43524241   12389.85744122 -111878.03391672
O        4.14120589       3.31536084       6.82276109       1.00000000    9130.11934147   71648.54943817  -35746.43978662
