52
Lattice="12.336457 0.0 0.0 -6.168228499999997 10.683685154694365 0.0 0.0 0.0 15.0" Properties=species:S:1:pos:R:3:forces:R:3 energy=-445.1263351232358 free_energy=-445.1263351232358 stress="-0.004990999047813436 -0.00020407165244792097 1.4428926547375785e-05 -0.00020407165244792097 0.007939528246321962 -4.7991681717205054e-05 1.4428926547375785e-05 -4.7991681717205054e-05 2.2286771619262578e-05" pbc="T T T"
C        0.02218366       0.02020557       3.78974669      -0.00346209       0.00892524       0.00397542
C       -1.23254968       2.12706099       3.88271879       0.00831197      -0.00484232      -0.00322887
C       -2.46060291       4.28114582       3.87233749       0.00228554       0.00228961      -0.00296257
C       -3.67468563       6.43034192       3.77530390      -0.00251063      -0.00427639      -0.00082869
C       -4.90690693       8.58227373       3.73661284       0.00381887       0.00238442       0.00037046
C        2.49122403       0.08620432       3.77044749       0.00448584       0.00573555       0.01421617
C        1.21677136       2.17377379       3.84065146       0.00361044       0.00611733       0.01070543
C       -0.08341983       4.29053301       4.03145619      -0.01226526       0.00881648       0.01142799
C       -1.24632039       6.43268316       3.95848294      -0.01516939      -0.00190984      -0.00337422
C       -2.44730023       8.58338750       3.83450458       0.01481271      -0.00842427       0.00117022
C        4.95798726       0.02486876       3.77621544      -0.00137556       0.00666129      -0.00024504
C        3.76287487       2.17752224       3.66586386      -0.00621848       0.00036400      -0.00427833
O        1.12691719       6.41810208       4.16738470       0.00729212      -0.00741666       0.00060386
C        0.02236275       8.53081790       3.88756985       0.00537694      -0.00420929      -0.01276077
C        7.43518050      -0.03900475       3.78853910      -0.00058291      -0.01519085      -0.00426056
C        6.21385251       2.13131399       3.65693097      -0.00367243      -0.01229130       0.00458003
C        5.07151723       4.29377694       3.42584894      -0.00128811      -0.00051081       0.00615593
O        3.85187997       6.40989128       3.48330724       0.00612903       0.01129028      -0.01363146
C        2.49056686       8.44109581       3.81538884      -0.00176722       0.00685642      -0.00748530
C        9.88140414      -0.04192594       3.80785534       0.00473368      -0.01081247      -0.00081538
C        8.65865258       2.12074811       3.77867683       0.00516944       0.00208441       0.00596945
C        7.44550804       4.28241655       3.65755024      -0.01384795       0.00376293       0.00348620
C        6.23492752       6.43342637       3.57988984       0.00316137      -0.00144010       0.00605535
C        4.95933872       8.52656657       3.72392464      -0.00125131      -0.00147162      -0.00869967
C        0.01978436       1.45407711       3.84266878       0.00694763       0.00438735       0.00100831
C       -1.24921595       3.55075694       3.94017613      -0.00103033      -0.00407871      -0.00239330
C       -2.45856328       5.70415943       3.87571145      -0.00907477      -0.00262134       0.00489047
C       -3.67625650       7.86556355       3.78105744       0.00801337      -0.00535259       0.00656112
C       -4.90090814      10.02578821       3.76661858      -0.00183063       0.01083719       0.00413069
C        2.49228501       1.54280320       3.75881207      -0.00177057       0.00614465       0.00846256
O        1.12761581       3.56140881       4.09023609      -0.00358505       0.00610711      -0.00852362
C       -0.08238561       5.68940252       4.05284935      -0.01278052       0.00789527       0.00042621
C       -1.23125577       7.85782578       3.91018226       0.00982204      -0.01002381      -0.01311837
C       -2.45363935      10.02739664       3.79330556       0.00792799      -0.00159841       0.00842506
C        4.95921359       1.45954600       3.69679396      -0.00943979       0.00261035      -0.00496914
O        3.85224225       3.57471604       3.41963238       0.00581640      -0.01125804       0.00809046
C        1.21842263       7.81257324       3.90808681       0.00581653       0.00032082       0.00840218
C        0.02325221       9.96537493       3.81165976      -0.00496212      -0.00214700       0.00345841
C        7.42834651       1.40485744       3.73641934       0.00375404      -0.01370199       0.00799111
C        6.23392840       3.55446469       3.56555774      -0.00855553      -0.00958093       0.01172655
C        5.07326559       5.69334915       3.44014645       0.00053607       0.00296284      -0.00349934
C        3.76287021       7.80773218       3.71417561      -0.00332095       0.00618399      -0.00434433
C        2.48997225       9.89939825       3.80762448       0.00227398      -0.00316830      -0.01163947
C        9.88751880       1.40231683       3.82900011       0.00889887      -0.00938068       0.00451843
C        8.65973518       3.55564629       3.77171428      -0.00384141       0.01466045      -0.00621267
C        7.44656259       5.70457219       3.66108228      -0.00254421       0.00098240       0.00255761
C        6.21416036       7.85604608       3.67461737       0.00112517      -0.00089838      -0.00651541
C        4.95682071       9.96082603       3.78404803       0.00202605      -0.00328112      -0.00061083
Rh       2.49815147       5.00136898       3.80103042       0.00090258      -0.00743456      -0.01036010
O        2.97128264       4.99532408       5.65572636       0.00334615      -0.00011237      -0.00895862
O        1.85534075       4.49980292       6.47723897      -0.00369215       0.01200240       0.00213122
H        2.13198640       4.88541871       7.33352306      -0.00655545       0.01705138      -0.00778084
