52
Lattice="12.336457 0.0 0.0 -6.168228499999997 10.683685154694365 0.0 0.0 0.0 15.0" Properties=species:S:1:pos:R:3:initial_magmoms:R:1:forces:R:3 energy=-447.22751628595336 free_energy=-447.22751628595336 stress="-0.004579260856069538 -0.00018485457749882857 2.3981309465549438e-05 -0.00018485457749882857 4.9840432527417234e-05 -1.6770994961520485e-05 2.3981309465549438e-05 -1.6770994961520485e-05 6.330495114611687e-06" pbc="T T T"
C        0.07851497       0.08862294       3.97309684       0.00000000       0.00143907       0.00443863       0.00584185
C       -1.16701163       2.20776213       4.05880396       0.00000000      -0.00581762      -0.00018767      -0.00312638
C       -2.39604157       4.35732152       4.19774913       0.00000000      -0.00045245      -0.00322593       0.00115532
C       -3.61659395       6.50929731       4.16964717       0.00000000      -0.00342790       0.00201598       0.01056902
C       -4.85512684       8.64470778       3.99020201       0.00000000       0.00333078       0.00125773      -0.00242519
C        2.54266750       0.12055621       3.88221811       0.00000000      -0.00594626      -0.00561691       0.00188757
C        1.27905151       2.20842241       3.65159248       0.00000000      -0.00042983      -0.00326219      -0.00045619
C       -0.04289467       4.33973122       3.59395796       0.00000000      -0.00004414       0.00028062      -0.00198207
C       -1.20257854       6.50273041       3.82200882       0.00000000       0.00224818       0.00064278       0.00449169
C       -2.38465197       8.64853379       3.96051330       0.00000000       0.00560554       0.00736094      -0.00330390
C        5.01043642       0.10455912       3.93499138       0.00000000       0.00144875      -0.00321414      -0.00984070
C        3.78867742       2.26064233       3.68559095       0.00000000       0.00391470       0.00077847      -0.00809098
S        1.15469332       3.56456171       1.27677215       0.00000000       0.01063035       0.00016467       0.00791687
S        1.06604413       6.52995974       2.37592633       0.00000000      -0.00261885       0.00598221       0.00327899
C        0.06996659       8.64343046       3.68755048       0.00000000      -0.00466946      -0.00533872      -0.01173334
C        7.48309757       0.07165395       3.99007562       0.00000000       0.00435155       0.00321706       0.00135281
C        6.25699062       2.20924459       4.06903286       0.00000000      -0.00550795       0.00009508      -0.01112590
C        5.11215358       4.34130209       3.64462118       0.00000000       0.00380749      -0.00065426       0.00670449
S        4.05585391       6.55300350       2.42278363       0.00000000       0.00517702      -0.01143407       0.00916471
C        2.54458030       8.64687004       3.48829129       0.00000000       0.00305444      -0.00412140      -0.00981638
C        9.94203466       0.06791114       4.00887982       0.00000000       0.00770169       0.01359143       0.00127925
C        8.71601423       2.20587000       4.21624206       0.00000000      -0.01033403       0.00487903       0.01262834
C        7.49671108       4.35536038       4.20287927       0.00000000      -0.00473264      -0.00964543       0.00118255
C        6.29957971       6.50419818       3.86598985       0.00000000      -0.00387429      -0.00098998       0.00402900
C        5.02270223       8.63817994       3.74331002       0.00000000       0.00303109       0.00779537       0.00006083
C        0.07668795       1.51274903       3.92660430       0.00000000      -0.00304871       0.00138130      -0.00200095
C       -1.18380595       3.63419609       4.02792983       0.00000000      -0.00032679      -0.00335508       0.00080761
C       -2.39719719       5.78626445       4.12694711       0.00000000      -0.00090653       0.00068501      -0.00008875
C       -3.61801330       7.93329151       4.05574262       0.00000000       0.00666688       0.00766058       0.00705759
C       -4.85130925      10.07712371       3.95079520       0.00000000      -0.00409743      -0.00209807       0.00427131
C        2.52093978       1.55474371       3.71257232       0.00000000      -0.00027621      -0.00218264       0.00741741
C        1.06472081       3.53722395       3.04346756       0.00000000      -0.00148052      -0.00110647      -0.00961473
C       -0.10466065       5.71771488       3.39430979       0.00000000      -0.00491327      -0.00154003      -0.01503536
C       -1.16622706       7.92935111       3.80287321       0.00000000      -0.00094264      -0.00100030      -0.00946664
C       -2.39475392      10.08385540       3.92374668       0.00000000      -0.00108522       0.00253258      -0.00007057
C        5.01899548       1.52364276       3.91391374       0.00000000      -0.00088808      -0.00298388       0.00606550
C        3.92536336       3.62672640       3.41919814       0.00000000       0.01005640       0.00185174      -0.00091902
C        1.28179005       8.00547192       3.30978205       0.00000000      -0.00149125      -0.01180320       0.00557306
C        0.07664568      10.06308351       3.90142552       0.00000000       0.00267369      -0.00635248       0.00238541
C        7.48744982       1.49108424       4.13970621       0.00000000      -0.00723604       0.00671933      -0.00463656
C        6.29035384       3.62905037       4.04895845       0.00000000      -0.00171030      -0.00516733      -0.00422304
C        5.19891451       5.74166189       3.44596299       0.00000000       0.00081436      -0.00372373       0.00300090
C        3.81281499       8.00528295       3.35059268       0.00000000       0.00483753      -0.00233445      -0.01389779
C        2.54443210      10.04401891       3.87280766       0.00000000       0.01056761       0.00113153       0.01245828
C        9.94649724       1.49255698       4.13901887       0.00000000      -0.00964067       0.01118401      -0.00735291
C        8.72024640       3.63569564       4.26841405       0.00000000      -0.00262218      -0.00247444       0.00270137
C        7.50178129       5.78514925       4.14509375       0.00000000      -0.00529843      -0.00791148       0.00078058
C        6.26202817       7.93046111       3.84950796       0.00000000       0.00095691       0.00283019      -0.00028964
C        5.01211985      10.05557531       3.94677697       0.00000000       0.00619888       0.00998872       0.00688590
Rh       2.60553497       4.78758685       2.61122735       0.00000000      -0.00382499      -0.00041047      -0.00003543
O        1.86236750       3.23650329       6.29965535       1.00000000       0.01110641       0.00185506      -0.00444712
O        0.65236919       3.40675858       6.42761223       1.00000000      -0.01197469       0.00181469       0.00303130
