52
Lattice="12.336457 0.0 0.0 -6.168228499999997 10.683685154694365 0.0 0.0 0.0 15.0" Properties=species:S:1:pos:R:3:forces:R:3 energy=-446.96667646554226 free_energy=-446.96667646554226 stress="-0.0038364643456907234 0.00187223141529252 -3.20376003462394e-05 0.00187223141529252 -0.01024596457143848 1.3479695725606041e-05 -3.20376003462394e-05 1.3479695725606041e-05 -7.287949222964374e-06" pbc="T T T"
C       -0.00361428       0.08263721       3.71907348       0.00056879      -0.00420309      -0.00652695
C       -1.22269864       2.23902869       3.59411489      -0.00135154       0.00160528       0.00404885
C       -2.46440779       4.37615717       3.70862674      -0.00217296       0.00501033      -0.00740772
C       -3.70408084       6.50662570       3.80590731       0.00267791       0.00157089      -0.00272063
C       -4.95088123       8.62463971       3.77396741      -0.00081645       0.00357228      -0.00224897
C        2.45882290       0.06421223       3.88634978      -0.00392677       0.00134757       0.00373637
C        1.26445773       2.14868568       3.52064614       0.00026462       0.00057556      -0.00226254
C       -0.05850193       4.39941207       3.30265325      -0.00282050       0.00695498      -0.00537545
C       -1.25511281       6.53030083       3.69354896       0.00467990       0.00615646      -0.00227429
C       -2.47635567       8.64082247       3.86603831      -0.00523299      -0.00062295       0.00221367
C        4.92168028       0.10361572       4.01675156      -0.00170382      -0.00091840      -0.00109339
C        3.67028947       2.18202437       4.18896080      -0.00078049      -0.00638911       0.01325756
B        1.27641762       6.54891991       3.71880387      -0.00112676      -0.00416637       0.00278939
C       -0.02309250       8.69111358       3.85540107       0.00230534       0.00149007      -0.00460791
C        7.39384409       0.13682288       3.95325479       0.00269695       0.00009758       0.00525165
C        6.17313210       2.23861316       4.15366748       0.00198753      -0.00123167      -0.00551525
C        5.00466677       4.37799637       4.20767631       0.00217784      -0.00012153       0.00466706
P        3.37483143       6.27436702       3.29810406      -0.00631919      -0.00124000      -0.00051811
C        2.45452235       8.73474006       3.76021142      -0.00333388       0.00414908      -0.00499514
C        9.87885578       0.12856502       3.78678893       0.00129680       0.00010577      -0.00349035
C        8.64633679       2.25200155       3.89403475      -0.00199686      -0.00268757       0.00207324
C        7.42393743       4.37523777       3.97532240       0.00355646      -0.00367004      -0.00264584
C        6.16748775       6.49477910       3.78877877       0.00013348       0.00218443       0.00013674
C        4.91464550       8.63766144       3.68204923      -0.00694777      -0.00106778       0.00252591
C        0.00714604       1.50825673       3.59636757      -0.00051603      -0.00102717       0.00347250
C       -1.25013215       3.64811942       3.51666429      -0.00266502       0.00500050      -0.00047441
C       -2.47164572       5.80262553       3.73760609       0.00457414       0.00602359      -0.00576443
C       -3.71091504       7.92588291       3.81350104      -0.00436523       0.00166898       0.00356278
C       -4.94312696      10.04674866       3.78497264      -0.00062977       0.00143710      -0.00272623
C        2.47093276       1.49306999       3.89423985      -0.00017992      -0.00112130      -0.00438766
S        1.38698064       3.65738199       2.62358736      -0.00016096      -0.00018276      -0.00344815
C       -0.03039433       5.79361148       3.51395122       0.00128386       0.00240578       0.01139612
C       -1.24610085       7.94764153       3.82163282      -0.00061333       0.00354411      -0.00346190
C       -2.47297504      10.05930347       3.94235099      -0.00588426      -0.00135679       0.00449323
C        4.91989312       1.52452244       4.14274816       0.00311772      -0.00284237       0.00295456
B        3.72250666       3.62650259       4.66686978       0.00383844      -0.00380393      -0.00784055
C        1.22412049       8.04654842       3.77349070       0.00050245      -0.00356651       0.00570873
C       -0.01350403      10.10579811       3.95454796       0.00305356       0.00184245       0.00537592
C        7.40334868       1.54838427       4.01904636      -0.00172893      -0.00036730      -0.01219326
C        6.20479808       3.65716489       4.15795652       0.00308727      -0.00157201      -0.00239555
C        4.97117883       5.71696338       3.84947496      -0.00420774       0.00018891      -0.00181401
C        3.65604314       7.99638185       3.62295035      -0.00830151       0.00080933      -0.00163180
C        2.46537986      10.13884287       3.84935209       0.00158944       0.00289656       0.00322534
C        9.88311283       1.54699744       3.76407143      -0.00110713      -0.00113970       0.00977147
C        8.64860024       3.66792489       3.87066343       0.00164014      -0.00306156       0.00090755
C        7.40530612       5.79259562       3.86157713       0.00423339      -0.00062704       0.00469232
C        6.15190629       7.91431516       3.71566031      -0.00198914       0.00357923       0.00468642
C        4.92793780      10.07143357       3.72792252      -0.00028308      -0.00360955      -0.00120480
Ru       1.91759072       4.80578597       4.46865093       0.00698909      -0.00575215      -0.00823371
O        3.11846994       4.11998384       5.96448412       0.00212189      -0.00548091       0.00779806
O        2.49469899       2.89800667       6.67114423       0.00845134      -0.01517205      -0.00800748
H        2.99067430       2.98471016       7.51425445       0.00433369       0.01278479       0.00652107
