52
Lattice="12.336457 0.0 0.0 -6.168228499999997 10.683685154694365 0.0 0.0 0.0 15.0" Properties=species:S:1:pos:R:3:forces:R:3 energy=-447.9666799446551 free_energy=-447.9666799446551 stress="-0.00088371258867488 -0.0028363669007210016 -3.120409366913022e-05 -0.0028363669007210016 0.0021845837820367838 -2.294978082804686e-05 -3.120409366913022e-05 -2.294978082804686e-05 5.852304008377137e-06" pbc="T T T"
C       -0.01628651       0.09533326       3.77921892       0.00011396       0.00075295       0.00282222
C       -1.27988692       2.19311126       3.55928247       0.00145103       0.00038490       0.00075086
C       -2.53842002       4.33320575       3.57479498      -0.00079169      -0.00216931      -0.00516991
C       -3.73515191       6.48478796       3.73961013       0.00278563      -0.00104417       0.00476735
C       -4.94675996       8.62765816       3.82390525      -0.00306799       0.00472625      -0.00351097
C        2.45558773       0.06797338       3.79905128       0.00041806      -0.00224533       0.00078448
C        1.23042553       2.22784082       3.52849095       0.00094405      -0.00641695       0.00360329
C       -0.14788937       4.32744414       3.08569084      -0.00381401       0.00126199      -0.00359241
C       -1.29110082       6.48032711       3.57018207       0.00043126       0.00281155      -0.00655665
C       -2.47144176       8.61275907       3.78600504      -0.00194808      -0.00560820       0.00541737
C        4.92078800       0.05984851       3.91759853      -0.00576544      -0.00100679      -0.00429152
C        3.65560645       2.17733623       4.05980257      -0.00210208       0.00197050       0.00555701
B        1.18074698       6.37139035       3.79402194      -0.00364274      -0.00020388       0.00160910
C        0.00757591       8.58697170       3.84235677       0.00439791      -0.00022489      -0.00956789
C        7.38203816       0.05922914       3.92611547      -0.00037770      -0.00099243       0.00188702
C        6.12582429       2.22343773       3.99630649       0.00081430      -0.00116402       0.00019927
C        4.91550429       4.43070091       4.10841003       0.00272398      -0.00097628       0.00239255
O        3.76992472       6.55602487       4.16851395      -0.00216287       0.00201690      -0.00521677
C        2.48575225       8.58964253       3.95656048      -0.00110537      -0.00168418      -0.00383687
C        9.84591369       0.06574827       3.85405710       0.00053645       0.00261227      -0.00336904
C        8.59047120       2.20358227       3.79840417      -0.00156572       0.00215817       0.00477157
C        7.35309200       4.35460797       3.85116676       0.00288223       0.00030408      -0.00657610
C        6.15439929       6.50918420       3.91629074       0.00062036      -0.00128170      -0.00111900
C        4.93282973       8.63007221       3.93117515      -0.00060677       0.00047297       0.00199947
C       -0.02960667       1.51610797       3.63137568       0.00197292      -0.00114936       0.00091151
C       -1.33705018       3.59117841       3.37672982      -0.00099291      -0.00122178       0.00011248
C       -2.52234664       5.76604871       3.61228195       0.00309595      -0.00196220       0.00244743
C       -3.71261500       7.91008563       3.77743785      -0.00389274      -0.00044987       0.00136134
C       -4.94771837      10.05399009       3.79537654      -0.00059993       0.00385728       0.00895045
C        2.46048352       1.50022615       3.79495441       0.00117826      -0.00334559       0.00159793
S        1.19591078       3.52805132       2.21986995      -0.00374527      -0.00127863      -0.00318817
C       -0.09651618       5.72844619       3.36026736      -0.00194782      -0.00225214       0.00725696
C       -1.23829149       7.89076959       3.74355627       0.00355009       0.00114634      -0.00018366
C       -2.47641446      10.03670015       3.84486749      -0.00372136      -0.00649899      -0.00027635
C        4.90157085       1.49464661       4.01266610      -0.00303323       0.00125330      -0.00000307
B        3.63522187       3.66393207       4.47783855       0.00055655      -0.00040887      -0.00506158
C        1.25593069       7.87592249       3.88010848       0.00163205      -0.00594242      -0.00124403
C       -0.01280758      10.02414199       3.90731139      -0.00222348      -0.00047169       0.00760450
C        7.35944929       1.49702219       3.91675481       0.00034696      -0.00119944      -0.00195989
C        6.11365500       3.66488612       3.98873384       0.00433458      -0.00088070      -0.00331515
C        4.93678473       5.83005479       4.04549963      -0.00139841       0.00016780       0.00030572
C        3.73609384       7.91530999       4.00405453      -0.00180649       0.00206656       0.00539013
C        2.45706503      10.02368638       3.92381056       0.00062451      -0.00090811       0.00285944
C        9.82763874       1.48849128       3.74157966      -0.00023846       0.00510216       0.00509007
C        8.57581351       3.62732571       3.74219786      -0.00009207       0.00016964      -0.00074816
C        7.36903154       5.77459270       3.83010642       0.00269858      -0.00071073      -0.00224553
C        6.16448582       7.92389690       3.89229345      -0.00059426       0.00023141      -0.00427996
C        4.91728529      10.05715754       3.85636583       0.00051219       0.00098563       0.00010824
Ru       1.66919023       4.43513614       4.17414826      -0.00406870       0.00735152       0.00064542
O        2.87002758       4.19589915       5.68966341       0.00353216       0.00498076      -0.00237721
O        2.56253293       2.95891599       6.60548008      -0.00213839      -0.00486428      -0.00593019
H        2.92948940       3.34687977       7.42965561       0.01528993       0.01177797       0.00241687
