52
Lattice="12.336457 0.0 0.0 -6.168228499999997 10.683685154694365 0.0 0.0 0.0 15.0" Properties=species:S:1:pos:R:3:forces:R:3 energy=-447.95230612256296 free_energy=-447.95230612256296 stress="-0.004618019761830127 -0.004210889983195731 5.389467146144149e-05 -0.004210889983195731 -0.003105265320924535 -2.6565701427448562e-06 5.389467146144149e-05 -2.6565701427448562e-06 1.9426233405642494e-05" pbc="T T T"
C       -0.00412945      -0.03847200       3.84609429      -0.00477674       0.00177536       0.00206858
C       -1.27402052       2.08474137       4.03317612       0.00437931       0.00076905       0.00199852
C       -2.49499129       4.23820848       3.78667455       0.00149703       0.00076428       0.00662824
C       -3.67586695       6.39143288       3.54184286       0.00413273      -0.01350199       0.00716972
C       -4.90819740       8.53582165       3.59775251       0.00184701      -0.00353349       0.00171039
C        2.47300159      -0.04997642       3.86267348      -0.00065324       0.00422217      -0.00218738
C        1.21665566       2.01263404       4.35355062       0.00124061       0.00401798      -0.00881890
C       -0.17442682       4.25921157       4.47521648      -0.00726386      -0.00037128       0.00421402
C       -1.25915681       6.38335507       3.90789036       0.00545590       0.00065203      -0.00381643
C       -2.44586534       8.51741289       3.70950424       0.00088403       0.00090247       0.00011826
C        4.93425295      -0.02179364       3.71681581       0.00387164       0.00243109       0.00450288
C        3.65069216       2.07022648       3.75106246       0.00177081       0.00045263      -0.00434590
B        1.22183308       6.37052947       4.33465921      -0.00215753      -0.00059614      -0.01481336
C        0.01206771       8.51876126       3.85273784      -0.00109140      -0.00578162      -0.00146766
C        7.39942585      -0.03210691       3.68260149      -0.00743117      -0.00121817      -0.00617704
C        6.14373178       2.12255923       3.51024901      -0.00234778      -0.00093168      -0.00363631
C        5.00650041       4.34226573       3.30267299       0.00856900      -0.00208678       0.00519634
N        3.84033849       6.40522778       3.69109864       0.00325786       0.00409332       0.00949134
C        2.49248680       8.50007585       3.81862778       0.00412588       0.00309694       0.00014484
C        9.86324306      -0.03787611       3.73543536      -0.00350335      -0.00099003       0.00238554
C        8.61928597       2.10523026       3.64835951       0.00365720       0.00004366       0.00234063
C        7.41711721       4.25957583       3.42121564      -0.00032236      -0.00067896       0.00389668
C        6.23394561       6.43965985       3.35199639      -0.00567675       0.00278448       0.00021566
C        4.95936286       8.52369326       3.61053728       0.00258125       0.00637346      -0.00654529
C       -0.02420773       1.36923346       4.10308772       0.00270222       0.00300707      -0.00614466
C       -1.31221950       3.50758938       4.11004224      -0.00481158      -0.00072222       0.00794895
C       -2.47318213       5.66632742       3.72568862       0.00944292      -0.00417312       0.00615779
C       -3.67554181       7.81476002       3.59938617       0.00356326      -0.01027947       0.00502727
C       -4.93025140       9.94173476       3.77777431      -0.00300121       0.00048610       0.00256717
C        2.45400918       1.36102046       4.04628765      -0.00096280       0.00388869      -0.01168886
P        1.20371114       3.51584153       5.31423690       0.00068191       0.00352148      -0.00587281
C       -0.10415250       5.64339123       4.24972178      -0.00151276      -0.00187325       0.00089070
C       -1.21999274       7.80330569       3.81728297      -0.00010060      -0.00110446      -0.00137875
C       -2.45633877       9.94120290       3.75397719       0.00390776       0.00530962       0.00974768
C        4.90977141       1.41838697       3.64013166       0.00106464       0.00185345       0.01148854
S        3.41002251       3.71587953       3.24973645       0.00242799       0.00046154      -0.00375193
C        1.26055041       7.82924057       3.97967338       0.00311539       0.00149739      -0.00012535
C        0.00142968       9.94502427       3.73225127      -0.00296522      -0.00641978       0.00223862
C        7.37909146       1.40139326       3.59122205      -0.00261053       0.00123777      -0.00110501
C        6.16939786       3.55198868       3.37595236       0.00463802      -0.00355476      -0.01019636
C        5.00531456       5.75378664       3.37510603      -0.00218012      -0.00073489       0.00003889
C        3.74499876       7.77596202       3.71547785       0.00616129       0.00627216      -0.00510612
C        2.47193908       9.93032362       3.72007513      -0.00569067       0.00117252       0.00549530
C        9.85017594       1.38749678       3.79213996       0.00544881      -0.00153270       0.00527556
C        8.62612269       3.53143041       3.59531742       0.00141286       0.00194835       0.00231241
C        7.43758435       5.68554943       3.39819070      -0.00501069      -0.00224585       0.00166482
C        6.20224405       7.84242920       3.49723917      -0.00075914       0.00236065      -0.00381992
C        4.93571912       9.93939465       3.72382120      -0.00394469       0.00249617       0.00065033
Ru       2.72425241       5.13999546       4.94746105      -0.00092122      -0.00273450      -0.00563433
O        3.36559318       5.75794621       6.58555118       0.00121928      -0.00144491      -0.01356447
O        2.43928629       5.28454979       7.66276704      -0.00617982      -0.00816475       0.00040155
H        3.09928417       4.87700162       8.26204890      -0.01718137       0.00678296       0.00620960
