51
Lattice="12.336457 0.0 0.0 -6.168228499999997 10.683685154694365 0.0 0.0 0.0 15.0" Properties=species:S:1:pos:R:3:initial_magmoms:R:1:forces:R:3 energy=-446.16184210887303 free_energy=-446.16184210887303 stress="-0.004876743894044747 -0.0017260349935127011 2.552722245025273e-05 -0.0017260349935127011 -0.007221718006717664 -1.5042316237924234e-05 2.552722245025273e-05 -1.5042316237924234e-05 8.961951016749706e-05" pbc="T T T"
C        0.03799177       0.01167046       3.66362350       0.00000000       0.00230824       0.00141314      -0.00160516
C       -1.20755527       2.15050685       3.80450384       0.00000000      -0.00147086      -0.00126455       0.00231273
C       -2.43838001       4.29785793       3.50751621       0.00000000       0.00283840       0.00113365      -0.00348186
C       -3.64987657       6.43954682       3.30062650       0.00000000      -0.00306451      -0.00039288      -0.00176658
C       -4.88157218       8.58108229       3.38800884       0.00000000       0.00364575      -0.00342469      -0.00432942
C        2.50904300      -0.01233469       3.70074330       0.00000000      -0.00677344       0.00006184       0.00128964
C        1.25350689       2.00419022       4.30867961       0.00000000      -0.00251433      -0.00266398       0.00487785
C       -0.11701157       4.34597482       4.17445895       0.00000000       0.00709886      -0.00591520      -0.00078088
C       -1.21146219       6.44418925       3.59959888       0.00000000       0.00645767      -0.00024121       0.00227233
C       -2.41367588       8.57034197       3.44992472       0.00000000      -0.00164401       0.00345051       0.00188949
C        4.98043191       0.01923076       3.63446794       0.00000000       0.00567800       0.00043707      -0.00886284
C        3.73795793       2.06826173       4.09729227       0.00000000       0.00092326       0.00294956      -0.00179026
B        1.27108736       6.45272822       4.25482694       0.00000000      -0.00621353      -0.00239827      -0.00914234
C        0.04606556       8.57921142       3.66898245       0.00000000      -0.00056827      -0.00321224      -0.00140932
C        7.44514476       0.03173608       3.59353495       0.00000000       0.00161964       0.00397642       0.00125150
C        6.20386812       2.16597437       3.61702756       0.00000000       0.00033337       0.00544014       0.00688886
C        5.06526504       4.37082540       3.71214468       0.00000000       0.00178672      -0.00334741       0.00239389
C        3.85259774       6.48227238       4.02718449       0.00000000       0.00553968       0.00599304      -0.00293546
C        2.51950784       8.59551788       3.79552163       0.00000000      -0.00912020       0.00299798      -0.00674644
C        9.91115066       0.02910113       3.60788811       0.00000000       0.00288535      -0.00376383      -0.00744068
C        8.67474391       2.16372340       3.50882697       0.00000000      -0.00036879      -0.00571580      -0.00345804
C        7.45189317       4.30336730       3.35367883       0.00000000      -0.00067699       0.00201589       0.00701597
C        6.23738966       6.46920282       3.35512743       0.00000000      -0.00146917       0.00057758       0.00285450
C        4.98401859       8.57838090       3.55947692       0.00000000       0.00488758       0.00522387       0.00622036
C        0.02374601       1.41376406       3.93137976       0.00000000      -0.00075105      -0.00102022      -0.00172659
C       -1.24338697       3.57833064       3.81506845       0.00000000       0.00392122      -0.00052202       0.00384361
C       -2.42922475       5.72236327       3.42863301       0.00000000       0.00134632       0.00460012       0.00272655
C       -3.64816817       7.86493702       3.34566107       0.00000000       0.00236223      -0.00254453       0.00156655
C       -4.89344577       9.98630467       3.56972510       0.00000000      -0.00294253      -0.00457648       0.00045651
C        2.49485698       1.35881317       4.05379012       0.00000000      -0.00087906       0.00114636      -0.00394518
P        1.24898349       3.60618056       5.00723692       0.00000000      -0.01284428      -0.00789084      -0.01078133
C       -0.04885580       5.72488452       3.97029821       0.00000000       0.00494136      -0.00455241       0.00167588
C       -1.18473245       7.86350518       3.55419041       0.00000000      -0.00120328       0.00125527       0.00563910
C       -2.41811557       9.98495072       3.57645444       0.00000000      -0.00202383       0.00504382      -0.00171462
C        4.98137276       1.43854039       3.77500860       0.00000000       0.00139786       0.00468057      -0.00455342
P        3.67744042       3.73956318       4.49738188       0.00000000       0.00429785      -0.01166048      -0.00139803
C        1.28731159       7.91489804       3.87972276       0.00000000      -0.00571842      -0.00374534       0.00044546
C        0.04527835      10.00100721       3.60214791       0.00000000       0.00662451      -0.00226164       0.00625637
C        7.43802212       1.45593750       3.54332044       0.00000000      -0.00305841       0.00274054       0.00234410
C        6.23049730       3.58922437       3.52307320       0.00000000       0.00022126       0.00243543       0.00127750
C        5.02850332       5.78697172       3.63880595       0.00000000       0.00479027      -0.00317328       0.00581577
C        3.75780955       7.86978346       3.79535540       0.00000000      -0.00232292       0.00667087      -0.00492728
C        2.51314921      10.00966393       3.63697303       0.00000000      -0.00174536       0.00350550      -0.00753274
C        9.91022794       1.45248872       3.61241646       0.00000000       0.00013552      -0.00611102       0.00319482
C        8.67510502       3.58584964       3.41575495       0.00000000       0.00012447      -0.00256539       0.00156237
C        7.45405939       5.73091294       3.28551707       0.00000000      -0.00485210       0.00129552       0.00416525
C        6.22123032       7.88255480       3.39985855       0.00000000       0.00346685       0.00163068       0.00001671
C        4.97506096       9.99509955       3.58497091       0.00000000       0.00538579       0.00391351      -0.00415613
Ru       2.65954061       5.47223692       5.38957165       0.00000000      -0.00222177      -0.01422230       0.12713282
O        1.05490647       3.71037831       6.62888467       1.00000000      -0.01019379      -0.00970689      -0.02735264
O        1.89752078       4.94150432       7.02602135       1.00000000      -0.00037716       0.03230405      -0.08554925
