52
Lattice="12.336457 0.0 0.0 -6.168228499999997 10.683685154694365 0.0 0.0 0.0 15.0" Properties=species:S:1:pos:R:3:forces:R:3 energy=-447.36017474506286 free_energy=-447.36017474506286 stress="-0.006750353560161519 0.005397284082851078 -1.4608186434855595e-05 0.005397284082851078 -0.004468283587680381 -2.9009553219884246e-05 -1.4608186434855595e-05 -2.9009553219884246e-05 6.404585895346803e-06" pbc="T T T"
C        0.08078182      -0.02094393       3.73850754      -0.00052292       0.00015994       0.00381265
C       -1.12320852       2.13894843       3.81877988      -0.00151545      -0.00336013       0.00583836
C       -2.35271462       4.26804245       3.67758323      -0.00376841       0.00557224      -0.00633486
C       -3.61031353       6.39604197       3.52038090      -0.01222592      -0.00509548       0.00238014
C       -4.87745906       8.52276633       3.54000276       0.00194371      -0.00202642       0.00429790
C        2.54035683      -0.03673683       3.77038185       0.00050011      -0.00335909       0.00460313
C        1.34353233       2.10364973       3.95804433       0.00276785       0.00306751      -0.00044386
C        0.07402812       4.35242644       3.92958221       0.00349274       0.00413010      -0.00392784
C       -1.18457377       6.43684608       3.71359232       0.00191999       0.00341540      -0.00974835
C       -2.40387352       8.53705776       3.66015003      -0.00113431       0.00441202      -0.00470674
C        5.01893481      -0.02465674       3.80370330       0.00047283       0.00766342      -0.00179878
C        3.79920192       2.05764337       3.95039617      -0.00776714      -0.00913927       0.00282287
O        1.12557944       6.50218656       4.22416776       0.00824251       0.00212188       0.00496129
C        0.05374323       8.54065648       3.82396133      -0.00033993      -0.00132543      -0.00558641
C        7.49321285      -0.02472362       3.84842286      -0.00159814      -0.00020371       0.00910593
C        6.28995655       2.09720791       3.79261211      -0.00022740      -0.00234728       0.00984289
C        5.13176949       4.24619538       3.64564555       0.00327962       0.00330835       0.00021175
S        3.54732326       6.19021953       3.09834228      -0.00786979      -0.01099604      -0.00581241
C        2.50822232       8.51137152       3.84661457      -0.00039892       0.00504596      -0.00752444
C        9.95925866      -0.02282651       3.80143971      -0.00054064      -0.00622435      -0.00434151
C        8.75109874       2.11680958       3.75886202       0.00424310      -0.00077457      -0.00976606
C        7.54095217       4.24437267       3.56758909      -0.00501471      -0.00502651       0.00877254
C        6.28602723       6.38912345       3.34356410       0.00081701      -0.00181313      -0.00201269
C        4.98521958       8.50845033       3.56172760       0.00623848      -0.00326018       0.00252810
C        0.10214551       1.41375466       3.84512682       0.00148164       0.00065066       0.01605684
C       -1.12251332       3.57197282       3.80147484      -0.00377361       0.00168134       0.00009491
C       -2.38297573       5.68820828       3.62057656      -0.00585329       0.00552670       0.00427289
C       -3.63522003       7.82003613       3.55250888      -0.00147340      -0.00346347       0.00411732
C       -4.86461654       9.94610845       3.67825586       0.00026154      -0.00090118       0.00540599
C        2.55672183       1.38090824       3.91304901      -0.00545440      -0.00733577      -0.00612521
B        1.38145801       3.61412410       4.12876358       0.01843502       0.00264784       0.00513375
C        0.00598644       5.75520949       3.90019089       0.00551064       0.00475028      -0.00936036
C       -1.18388976       7.84411545       3.72702559      -0.00160687       0.00399105      -0.01095414
C       -2.39397861       9.95589083       3.74231413       0.00436082       0.00550099      -0.00675263
C        5.04200749       1.38976072       3.85139355      -0.00465612       0.00402478      -0.00196209
B        3.85960144       3.54691700       4.07405137       0.00939081      -0.00591835       0.00129133
C        1.24367651       7.84918493       3.92882981       0.00172684      -0.00134956      -0.01483753
C        0.08318296       9.96151742       3.81897760      -0.00261176       0.00048576       0.00111952
C        7.51445473       1.39807976       3.79985598       0.00234855      -0.00081450       0.00059147
C        6.33271568       3.50872367       3.66727601      -0.00141669      -0.00372269      -0.00370996
C        5.13288691       5.60112209       3.32165151      -0.00071419       0.00536582       0.00621276
C        3.73152265       7.84363622       3.58528461       0.00235238       0.00758240       0.00216534
C        2.54763750       9.94517918       3.85533145      -0.00174804       0.00215775      -0.00119319
C        9.98004250       1.41228739       3.79547111       0.00060042      -0.00598523       0.00895978
C        8.76263798       3.53901174       3.66109288      -0.00111998       0.00095556      -0.00594797
C        7.51942869       5.66668319       3.45562214      -0.00965908      -0.00953443      -0.00165464
C        6.23011625       7.80964667       3.44325603       0.00638559      -0.00562652       0.00706042
C        5.01247297       9.94694533       3.70751246       0.00106013      -0.00379597       0.00746166
Ru       2.72169989       4.93853826       4.90724260      -0.00889624       0.00859298      -0.00140043
O        2.52523211       5.14920955       6.73656943       0.00364262       0.00053410      -0.00493281
O        1.15892490       5.69368516       7.02070609      -0.00534788       0.00734540       0.00165453
H        1.04456124       5.31098516       7.91628563       0.00578031       0.00270902       0.00005882
