51
Lattice="12.336457 0.0 0.0 -6.168228499999997 10.683685154694365 0.0 0.0 0.0 15.0" Properties=species:S:1:pos:R:3:initial_magmoms:R:1:forces:R:3 energy=-445.109406596242 free_energy=-445.109406596242 stress="-0.005996078994652665 -0.0034016530119820357 5.559159372302873e-06 -0.0034016530119820357 -0.009262473714267909 9.276196547849211e-06 5.559159372302873e-06 9.276196547849211e-06 -2.444183385976804e-05" pbc="T T T"
C       -0.05501185       0.04254701       3.81012531       0.00000000      -0.00848426      -0.00018606      -0.02507184
C       -1.30347092       2.16843673       3.70668016       0.00000000      -0.00778430      -0.00435712       0.00160884
C       -2.52163177       4.31782224       3.56755985       0.00000000       0.00731192      -0.00145191      -0.00817554
C       -3.73942157       6.45809709       3.60144422       0.00000000      -0.01012811       0.01322184      -0.00408226
C       -4.97756153       8.58949808       3.74433222       0.00000000       0.00468936       0.01464771       0.01977011
C        2.41339840       0.01954864       3.74865366       0.00000000       0.01780245      -0.00847450      -0.00109268
C        1.16777165       2.15643888       3.85489338       0.00000000       0.00155912       0.01947960      -0.00323872
C       -0.08246899       4.26230902       3.80639610       0.00000000      -0.00344530      -0.00518612       0.00204772
C       -1.28247478       6.45177212       3.73161151       0.00000000      -0.00491333       0.00011259      -0.00761489
C       -2.50426942       8.58513333       3.72548690       0.00000000      -0.00310994      -0.01047846       0.01742504
C        4.87595485       0.05397092       3.62565148       0.00000000       0.01099506       0.01497060      -0.00676783
C        3.60281576       2.12780535       3.44098413       0.00000000      -0.00643395      -0.01774878      -0.00163353
P        1.45919411       6.29347457       4.21118449       0.00000000      -0.01483444      -0.00656738      -0.00947436
C       -0.05130270       8.61692121       3.86224252       0.00000000      -0.01167704       0.03052178      -0.01070003
C        7.33574991       0.08030627       3.66945871       0.00000000       0.01560298      -0.01373990       0.00744842
C        6.10120387       2.19478850       3.39359440       0.00000000       0.01081789      -0.00370458      -0.03784350
C        4.94994804       4.38470936       3.29612952       0.00000000      -0.02474247       0.01914607      -0.00960194
B        3.61111021       6.42274980       4.07376536       0.00000000      -0.00392621      -0.01394527       0.00316617
C        2.43787172       8.68347432       3.95765963       0.00000000      -0.00395069      -0.00459240      -0.00218163
C        9.81743524       0.07321393       3.74941251       0.00000000       0.00624618       0.01030619      -0.00550000
C        8.57238846       2.19410095       3.52676761       0.00000000      -0.01127360      -0.00615747       0.01841488
C        7.36276911       4.33397881       3.42183659       0.00000000      -0.01321913      -0.00226476       0.00169313
C        6.14396541       6.47961356       3.63809972       0.00000000       0.01718950       0.00283475       0.03402400
C        4.89429147       8.61277482       3.86745224       0.00000000       0.01645465      -0.02036170      -0.02307196
C       -0.06919578       1.45831103       3.81043547       0.00000000       0.00731887      -0.00020592      -0.03260171
C       -1.31166515       3.57964029       3.66064850       0.00000000      -0.00012289      -0.00669596       0.01092948
C       -2.51272480       5.74134842       3.61042797       0.00000000       0.00991608       0.02337166       0.00040116
C       -3.74013325       7.87831439       3.68772684       0.00000000      -0.01232084      -0.00454107       0.01452162
C       -4.98705057      10.00685750       3.79080587       0.00000000       0.00534928       0.00889626       0.00897491
C        2.40345652       1.43673786       3.71130062       0.00000000      -0.00192039      -0.00206318       0.00236768
C        1.13946702       3.56349498       4.02250415       0.00000000      -0.00530592       0.00191931       0.00162983
C       -0.10086329       5.67382310       3.81415904       0.00000000      -0.01889060      -0.01001495       0.01139805
C       -1.27015992       7.87773198       3.78412272       0.00000000      -0.00080845       0.01355151      -0.03571804
C       -2.51462425      10.00883369       3.70599400       0.00000000       0.02140195      -0.01040850      -0.00251068
C        4.86247700       1.47822232       3.45858625       0.00000000       0.00869811       0.00841721       0.01045992
P        3.32841004       3.80032318       2.87041863       0.00000000       0.02344655      -0.00981236       0.01028425
C        1.20800910       7.98747403       4.03316500       0.00000000      -0.03625850      -0.03868538       0.00136270
C       -0.05931065      10.04079771       3.71799764       0.00000000       0.00823140       0.02812044       0.00057358
C        7.33100437       1.49289605       3.51090863       0.00000000       0.00551288      -0.02476289       0.00382296
C        6.13285605       3.61712050       3.31900171       0.00000000      -0.01550033       0.00234189      -0.02428247
C        4.92557622       5.75038182       3.62314914       0.00000000      -0.01964033       0.01923057      -0.00241194
C        3.65394038       7.94848708       3.98517412       0.00000000       0.00702472      -0.00249092      -0.00179394
C        2.41084605      10.08023438       3.78436710       0.00000000       0.01905285       0.00212507       0.02859585
C        9.80199274       1.48060844       3.64929452       0.00000000      -0.00666972       0.01128136      -0.00968911
C        8.58258283       3.61524201       3.48304745       0.00000000      -0.00529781      -0.00392839       0.00198398
C        7.36739163       5.75596956       3.52883155       0.00000000      -0.01252060      -0.00021590       0.02151126
C        6.13081441       7.89212627       3.76518623       0.00000000       0.02640754      -0.00111079       0.03544929
C        4.88245591      10.03456961       3.81754113       0.00000000      -0.00894877      -0.01541858      -0.02551148
Ru       2.64867060       4.62452672       4.93767808       0.00000000       0.03063086       0.01435684      -0.00039105
O        4.68187709       3.50639225       6.28019439       1.00000000       0.02001494      -0.02267624      -0.00262877
O        3.40589559       3.48213991       6.42624531       1.00000000      -0.02954721       0.01339418       0.02372509
