53
Lattice="12.336457 0.0 0.0 -6.168228499999997 10.683685154694365 0.0 0.0 0.0 15.0" Properties=species:S:1:pos:R:3:forces:R:3 energy=-467.41246921178737 free_energy=-467.41246921178737 stress="-0.005022108411951398 -0.0012319766370592774 -2.0224131026746092e-05 -0.0012319766370592774 -0.0016384573613793256 -5.762142512905059e-05 -2.0224131026746092e-05 -5.762142512905059e-05 -2.7748515952172638e-05" pbc="T T T"
C        0.05819321      -0.03644682       3.61503892      -0.00675921       0.00273231       0.00067454
C       -1.19047782       2.09148613       3.63192834      -0.00116615      -0.00618578       0.00209744
C       -2.42523323       4.23365449       3.62008092       0.00692391       0.00070554       0.00358875
C       -3.64206764       6.37828790       3.59636848       0.00056912       0.00504887      -0.00036410
C       -4.86561778       8.52111506       3.59867259      -0.00524203       0.00186277       0.00268623
C        2.53025917      -0.02227752       3.65742572      -0.00509990      -0.00247543       0.00632761
C        1.27495933       2.08884685       3.77329620      -0.00226942       0.00618996       0.00919138
C        0.01505889       4.22324917       3.84614865       0.00179304       0.00047386       0.00991430
C       -1.19232066       6.37599943       3.70984073       0.00201376      -0.00162728       0.00247860
C       -2.40557545       8.51840026       3.62391111      -0.00505850       0.00255932       0.00183950
C        4.99701333      -0.03475124       3.68720759       0.00671353      -0.00136514      -0.00419496
C        3.76684775       2.10401455       3.83266896      -0.00629302       0.00282920      -0.00599908
B        2.49062535       4.19826052       4.30081918       0.00415261       0.00192102      -0.00290914
C        1.20611889       6.39289028       4.15740373       0.01054565       0.00017575      -0.00693775
C        0.05838411       8.50724008       3.75170699      -0.00324680      -0.01019282       0.00154293
C        7.46234832      -0.04730470       3.69596248       0.00326398      -0.00734841      -0.00170564
C        6.22778947       2.10341445       3.71984463       0.00203995      -0.00478693      -0.00467039
C        5.00706557       4.25739648       3.91861288      -0.00129296       0.00165731      -0.00027796
N        3.90147832       6.45775376       4.17904984      -0.00397847      -0.00402501       0.00270721
C        2.53908801       8.49054545       3.86623221       0.00235030       0.00399424      -0.00305437
C        9.92377263      -0.04972312       3.65248614      -0.00109879      -0.00209334      -0.00746912
C        8.68623328       2.09413836       3.62569170       0.00078575      -0.00082090       0.00453899
C        7.45718077       4.24045005       3.66138785      -0.00159449      -0.00056487      -0.00033673
C        6.24222433       6.39170926       3.71672554      -0.00070247      -0.00305953      -0.01061843
C        5.01409204       8.51315604       3.69956590      -0.00006113      -0.00507456       0.00450282
C        0.04629574       1.38132135       3.65237002      -0.00010792       0.00270287      -0.00066083
C       -1.20471790       3.51438974       3.67014631       0.00450581      -0.00558433       0.00454034
C       -2.41619350       5.66162623       3.62363485       0.00284832       0.00285359       0.00162052
C       -3.63530221       7.80433613       3.59265642      -0.00557476       0.00518670       0.00986398
C       -4.87042599       9.94587739       3.61291801      -0.00844103       0.00146722      -0.00577437
C        2.52562247       1.39839330       3.76447153      -0.00687820       0.00044163      -0.00275031
C        1.21121795       3.49355555       3.94698128       0.00403976       0.00665895       0.00195218
C        0.02752899       5.65109137       3.89728317       0.00354054       0.00047055       0.01630499
C       -1.17779149       7.80087291       3.69177350      -0.00797485      -0.00366054       0.00454875
C       -2.40482890       9.94311022       3.64988882       0.00185379       0.00187840       0.00142725
C        4.99794239       1.38870712       3.73981486      -0.00223653       0.00100683      -0.01230148
C        3.80870749       3.52122990       4.00555483      -0.00303799       0.00370616      -0.00159570
C        1.29331945       7.78866780       3.91809926       0.00329560       0.00156643       0.00620193
C        0.06160139       9.92889792       3.70272420       0.00449122      -0.01085255       0.00179597
C        7.45732028       1.38114743       3.66839671       0.00302460      -0.00753205      -0.00734218
C        6.23082528       3.53332044       3.75351797      -0.00364053      -0.00218982      -0.01067358
C        5.01959204       5.70017232       3.93388553      -0.00171998      -0.00004906      -0.00420164
C        3.80236965       7.79824019       3.89918295      -0.00182836      -0.00369344      -0.00667564
C        2.52814463       9.91459658       3.72109747       0.00289782       0.00103307       0.00251206
C        9.91706438       1.37616827       3.61637863      -0.00222418      -0.00459797       0.00084157
C        8.68325425       3.52111738       3.61504578       0.00327824       0.00229571      -0.00223535
C        7.46186735       5.66708014       3.64214160       0.00216252       0.00107888       0.00179467
C        6.24228709       7.80844287       3.65974924       0.00049749      -0.00336695       0.00080656
C        4.99397599       9.93091688       3.63857216      -0.00397654      -0.00370107      -0.00757314
Ru       2.51347146       5.78620910       5.47321380       0.00399602       0.00493332      -0.01353622
O        2.21717495       5.57869979       7.26713731       0.01006331       0.01501395       0.00531970
O        1.66889443       6.85841732       7.83548329       0.01029931       0.01468110      -0.00203285
H        1.41151113       6.49830963       8.71090624      -0.01044174      -0.00227776       0.01427018
