51
Lattice="12.336457 0.0 0.0 -6.168228499999997 10.683685154694365 0.0 0.0 0.0 15.0" Properties=species:S:1:pos:R:3:initial_magmoms:R:1:forces:R:3 energy=-157110.61101467855 free_energy=-157110.61101467855 stress="127.93877965069447 42.4525946833875 72.50314024604505 42.4525946833875 173.3397578005622 -18.70662610428886 72.50314024604505 -18.70662610428886 205.9272452365766" pbc="T T T"
C        0.95522197      -1.51775122       7.61164099       0.00000000   -6124.23618525   14489.13680627   -2262.46425462
C       -1.48497846       0.31648521      -0.97545885       0.00000000       2.50769439       5.44493677     -13.36676419
C       -1.19712729       0.45723549       6.50740574       0.00000000 -296627.06091619  112324.23079234   -3665.78513940
C       -7.85125296       9.46608097       1.82989392       0.00000000    -549.49683959     455.86132688    -291.23920154
C       -2.43530850      10.05114418       6.71734024       0.00000000    -703.87169321      63.97836686     -70.30439952
C        7.66998674       5.31729431       3.70933353       0.00000000   -3059.82930793    3972.28170996     493.01727310
C        0.04860682       0.04758729       7.06286533       0.00000000 -248501.87102193   88195.44036435  -69072.88714544
C       -0.58161138       1.21761412       6.97968020       0.00000000  -39222.56953392 -277670.65006500  -43529.96630007
C       -0.79927984       1.95300384       4.92999581       0.00000000   -8622.04274303   16791.43672853   -3777.38743262
C       -3.42398937      11.12014990       4.38096716       0.00000000    -754.14224733     -25.13208645     468.90635386
C        7.20314241       1.04712702       4.26751247       0.00000000      -6.15238920      -2.85171766     -42.77754811
C        5.79203313      -1.10867811      -1.95497480       0.00000000      -3.10552607      -3.94769198       4.07299669
B        1.29130375      18.79672994       3.59116514       0.00000000   -5124.24642818   -3241.99404600    4085.28914506
C        1.27793994       7.95049681       2.77850388       0.00000000     150.74900363      -6.14116999      15.67827894
C        4.96684154       2.54129492       6.08542079       0.00000000      22.44069115      27.33133482     -33.22789687
C        9.70591939      -0.85178479       5.52041254       0.00000000   -4213.94175263   -3875.63017147    -723.39947189
C        3.63184713       4.71175067       2.02106639       0.00000000       1.53772412      16.87197282     -31.19524069
O        4.06986843       7.99637337       7.38585548       0.00000000    -129.83562945   -1066.27358794     209.81005200
C        3.48304377      10.87505400       3.02668745       0.00000000     386.02447959     -36.89651450     161.87238032
C       10.57515543      -4.55905569       0.09431672       0.00000000     -39.61522120       1.00106072     -49.02115712
C        8.90994054       5.38589283       1.31590562       0.00000000      36.83439934     -50.67907900     -34.69142899
C        3.33500699       6.22272081       6.94937338       0.00000000      47.88743243      72.62458133    -106.16441112
C        4.79508320       6.22196598       4.23741006       0.00000000    -544.45736970   -4730.62212968    6712.03451209
C        3.09974682       7.96434601      -8.99989742       0.00000000     392.71535147     861.14241227      25.95170441
C       -1.22025953       0.12095991       7.19142172       0.00000000  -94436.45430657  -30736.33885691  -21248.98699835
C       -0.93761568       0.15025775       6.84845859       0.00000000  694706.53000890  236178.05385757  -41071.81934477
C       -2.26866304       1.53855350       7.23085060       0.00000000    1531.51070289   13516.54667896    7247.76169215
C        0.30571306       7.89805064       3.69534285       0.00000000       1.51509913       4.12338132       9.21158414
C       -5.61392624      14.33048001      12.69191638       0.00000000     -31.13945042    -103.13255537    -144.36697286
C        5.03484407      -2.03012442      -0.98713791       0.00000000       3.41928059       3.96566797      -4.86192853
S       -0.39188449       0.41022649       6.30855378       0.00000000   20612.90632765 -151943.07729335  240407.63720413
C       -5.75846805       3.46705542      -4.14705493       0.00000000      -5.27107918       2.78470512       5.95163974
C       -4.49739078       7.49398277      -1.00544506       0.00000000     -47.53806378      -0.94704201      57.90521165
C        1.78955756      13.79034448       4.15921984       0.00000000     -63.30692584     114.94507060     -86.79617324
C        8.30782234       0.27355276       2.28195194       0.00000000     -25.21749323      32.72556562     -27.39550334
B        6.45029027       7.48816358       3.49287479       0.00000000  470364.60776573 -185820.59457225  782321.54599677
C        4.38207700       8.31678641      -0.09549689       0.00000000     -25.08921563      -4.47483668     -51.99825335
C        0.09609677      10.67033114       4.66994823       0.00000000     -63.73649741     -27.84118943     -18.05635406
C        8.66689905      -0.90766674       1.99128803       0.00000000     174.25366427    -156.54572965     -21.25175870
C        4.42396206       2.95331865       0.71837043       0.00000000       6.34626691      24.49778263      15.06031342
C        5.94845830       3.31725231       4.57645210       0.00000000     -52.18873290     100.82775155      -7.65664827
C        1.76371991       4.39194977       5.37239063       0.00000000    -105.12953086    -209.12623562      35.75631489
C       -1.74465687       8.88421609       3.08843848       0.00000000      63.67742858      15.41334938     -14.94241117
C        8.13036757       9.54807536       6.00898303       0.00000000     420.18724900    1410.75067608    1839.48839056
C       10.00993740       6.73467415      -2.97534047       0.00000000       0.99367822      -0.18659658      -0.83111726
C        7.10237525       8.45876960       4.68121335       0.00000000   -6398.23151712  -33665.13507954  -12524.17285640
C        6.59964999       7.43877168       3.75969997       0.00000000 -456588.06371999  222436.57959523 -779879.78268512
C        5.53945783      14.24606843       2.63841314       0.00000000       4.34842575    -163.25762794     201.73845299
Ru      -0.31721407       0.92166695       8.40987491       0.00000000  -12790.01483372  -67083.43170969 -210296.07503064
O        0.05608135       0.44526800      10.14608701       1.00000000   -6406.28035045   10922.58993173  -24406.62708089
O       -0.38959080       1.10527104       9.05179711       1.00000000    2333.14384820   38584.32117699  169190.80941229
