52
Lattice="12.336457 0.0 0.0 -6.168228499999997 10.683685154694365 0.0 0.0 0.0 15.0" Properties=species:S:1:pos:R:3:forces:R:3 energy=-446.0431055735199 free_energy=-446.0431055735199 stress="-0.006061154344444881 -0.0012020492428929984 1.3661142165830566e-05 -0.0012020492428929984 -0.012196269446091161 -4.423336315978073e-05 1.3661142165830566e-05 -4.423336315978073e-05 -4.118458344051633e-05" pbc="T T T"
C        0.01782429      -0.01505906       3.86313368       0.00455260       0.00745025      -0.00038685
C       -1.21801833       2.13878772       3.81259445       0.00351479       0.00131944       0.00726644
C       -2.44408962       4.28036041       3.61234671       0.00354137      -0.00585829       0.00404130
C       -3.65588138       6.41204562       3.57723402      -0.00688844      -0.00539580      -0.01110306
C       -4.91088280       8.53158659       3.74152032       0.00251508      -0.00145370      -0.00358768
C        2.49166243      -0.05977511       3.90454464      -0.00422973       0.00775810       0.00302283
C        1.25744926       2.05199743       4.06995101      -0.00156619       0.00612505       0.00100346
C       -0.04448197       4.29091080       3.97451592       0.00438426      -0.00169366      -0.00041105
C       -1.20261417       6.41690391       3.80807920      -0.00690920      -0.00379583       0.00577609
C       -2.43394889       8.53064097       3.79309521      -0.00301903      -0.00367577       0.00696393
C        4.95604060      -0.00609773       3.77404374       0.00065891      -0.01070622       0.00684292
C        3.68649530       2.04349037       3.71221636       0.00193911      -0.00806424      -0.00106027
B        1.35417409       6.37379649       4.26003254       0.00129416       0.00535629      -0.01057889
C        0.02709656       8.56135576       3.94724178       0.00512623       0.00116402      -0.00410678
C        7.40747378       0.04013614       3.77233739      -0.00495680      -0.00236345       0.00150215
C        6.17342998       2.14031289       3.47329645       0.00140798       0.00312300      -0.00477205
C        5.04436192       4.30445030       3.14544169       0.00595399       0.00393654      -0.00687012
P        3.51329305       6.24796155       3.93047893      -0.01319772       0.00056383       0.01129819
C        2.46964766       8.63933847       3.99039062      -0.00269564       0.00054516       0.00232199
C        9.88959355       0.03255588       3.79893752      -0.00471411      -0.00435599       0.00222706
C        8.65368596       2.15381269       3.59012664      -0.00244243      -0.00104326      -0.00544636
C        7.44728600       4.28226023       3.36675983       0.00791140       0.00648267      -0.00791484
C        6.23142164       6.43849146       3.44842853       0.00447334      -0.00301686      -0.00186387
C        4.96344834       8.56930039       3.80102290       0.00226950      -0.00187905      -0.00778092
C        0.01075277       1.40656761       3.92987878       0.00219195       0.00696415       0.00967483
C       -1.23329897       3.55624936       3.77710319       0.00553451      -0.00152487       0.01048139
C       -2.42788330       5.70224119       3.64079880      -0.00929903      -0.00647741       0.00308667
C       -3.66763004       7.82639341       3.70080215      -0.00323685      -0.00690063      -0.00364742
C       -4.91919028       9.94274995       3.86015462      -0.00008715       0.00358709       0.00523465
C        2.48342552       1.35252224       3.96465382      -0.00394144       0.00654956      -0.00051059
B        1.21254540       3.51841383       4.31143387      -0.00704362      -0.00300576      -0.00107116
C        0.00347625       5.68365510       3.97775993      -0.00225344      -0.00052218      -0.00666330
C       -1.20288049       7.83501175       3.85409507       0.00217182      -0.00023503       0.00203389
C       -2.43524114       9.94838417       3.83300315      -0.00601614      -0.00121688       0.00200015
C        4.94598254       1.42131021       3.63137864       0.00305219      -0.00962281       0.00216482
S        3.45087813       3.65573645       3.21218137       0.00040480      -0.00074932      -0.00457852
C        1.26790462       7.89874409       4.08434368       0.00051785       0.00357149      -0.00141725
C        0.02092421       9.98886643       3.83092531       0.00304657      -0.00397177      -0.00177054
C        7.40602208       1.45118404       3.59849238      -0.00476190      -0.00153770      -0.00557891
C        6.21203091       3.54756021       3.27255550       0.01148858       0.00651232      -0.01058980
C        5.03692576       5.69169471       3.28989175       0.00199884       0.00040902       0.00579681
C        3.70582279       7.95278937       3.92710850      -0.00112568       0.00203440       0.00617707
C        2.47738724      10.04224867       3.85614680      -0.00819148      -0.00261154       0.00148865
C        9.88681382       1.44632834       3.72180280       0.00035322      -0.00287489      -0.00416959
C        8.66670127       3.57015341       3.50106945       0.00221189       0.00018094      -0.00201153
C        7.45471172       5.70595109       3.43009791       0.00025173       0.00126392      -0.01060456
C        6.19295523       7.84011576       3.67166041       0.00599724      -0.00467930       0.00056504
C        4.95276738       9.99006623       3.82035505       0.00456729       0.00049491      -0.00097180
Ru       2.54156059       4.75793078       5.20223644       0.00652404       0.00605318       0.00715778
O        2.55630755       4.17452084       6.96993928      -0.00014963       0.00377266       0.00967740
O        2.13554181       5.27119821       7.89527637      -0.00000304       0.00968668      -0.01432528
H        2.55662461       4.92260350       8.70800424      -0.00312653       0.00432758       0.01598750
