52
Lattice="12.336457 0.0 0.0 -6.168228499999997 10.683685154694365 0.0 0.0 0.0 15.0" Properties=species:S:1:pos:R:3:forces:R:3 energy=-447.1020689769229 free_energy=-447.1020689769229 stress="-0.004749698702402282 -0.004538831809467763 -7.4152263213739556e-06 -0.004538831809467763 -0.0031073303985939575 -5.248198391080978e-06 -7.4152263213739556e-06 -5.248198391080978e-06 -9.985297538941019e-06" pbc="T T T"
C        0.06941893      -0.01622671       3.82825394       0.00006584       0.00579472      -0.01060110
C       -1.18989293       2.11255002       3.88192960      -0.00299990      -0.00438609       0.00254392
C       -2.42160985       4.26340097       3.69512999      -0.00142382       0.00581335      -0.00653945
C       -3.60939590       6.41455715       3.56562769       0.00101802      -0.00551809      -0.00730217
C       -4.83865773       8.55308172       3.63966674       0.00313612      -0.00313794       0.00552085
C        2.55072309      -0.03358534       3.84711054       0.00067429       0.00730012       0.00818022
C        1.29928346       2.07174991       4.10955916      -0.00232851       0.00535193      -0.00201760
C       -0.03351739       4.27211592       4.08262278      -0.00504243      -0.00586487      -0.00052880
C       -1.18043731       6.40997538       3.79498327      -0.00111638       0.00149491       0.00479178
C       -2.36889233       8.53995307       3.71930955       0.00540405      -0.00033097      -0.00940337
C        5.01303318      -0.00203186       3.70205365       0.00425318       0.00541547      -0.00102272
C        3.72800148       2.09093795       3.69405638       0.00096858       0.00627340      -0.00120250
B        1.32360095       6.35357636       4.21046880      -0.00356984      -0.00435874       0.00539345
C        0.10423742       8.53134156       3.80628226      -0.00088424      -0.00939494       0.00520622
C        7.47736568      -0.00817382       3.65926567      -0.00135690      -0.00837997      -0.00565320
C        6.21500164       2.15489330       3.50493067      -0.00105686       0.00317411      -0.00352308
C        5.06592868       4.39160823       3.31882759       0.00442804       0.00516520      -0.00309353
O        3.88764127       6.45833666       3.56807944       0.00423006      -0.00001670      -0.00093440
C        2.58261917       8.51639250       3.75608529      -0.00001395       0.00234559       0.00439244
C        9.93771827      -0.01478967       3.71059527       0.00324740      -0.00461555      -0.00276534
C        8.69168407       2.13196815       3.61659754       0.00102425      -0.00861128       0.00153606
C        7.47601063       4.28744028       3.44495217      -0.00414590       0.00076331       0.00063869
C        6.29868697       6.46389079       3.39072769      -0.00487595       0.00502560       0.00307157
C        5.03171215       8.54687224       3.61264889      -0.00501225       0.00261513       0.00027608
C        0.05545956       1.40283413       3.96958190      -0.00233898       0.00207300       0.00031903
C       -1.21526082       3.53224480       3.88480833      -0.00644290      -0.00253457      -0.00232785
C       -2.40049967       5.69004180       3.67073346       0.00433158       0.00535264      -0.00364975
C       -3.60067554       7.83654621       3.63530667       0.00698463      -0.00637594      -0.00554017
C       -4.85484604       9.96392995       3.79105347       0.00173088       0.00237325       0.00381702
C        2.53024298       1.38511405       3.93884589      -0.00315834       0.00692447      -0.00292935
B        1.26597844       3.54298618       4.40723600       0.01518500       0.00540659       0.00533721
C       -0.00828131       5.66087236       4.00948749      -0.00789686      -0.00652176       0.00216794
C       -1.13882579       7.82835788       3.77610697       0.00092845      -0.00304932       0.00118571
C       -2.37727391       9.96190101       3.75775418       0.00476245       0.00492250       0.00640954
C        4.98762396       1.43862234       3.61263975       0.00204983       0.01080026       0.00623935
S        3.48315643       3.74683277       3.25386661       0.00215669      -0.00195380      -0.00703582
C        1.34955099       7.83009310       3.90312750       0.00057880      -0.00192583       0.00296461
C        0.08225927       9.96455178       3.71018398      -0.00131380      -0.00962231      -0.00397347
C        7.45165567       1.42901061       3.57700985      -0.00266828      -0.00715248       0.00313254
C        6.23346598       3.58647796       3.39231476      -0.00035606       0.00389097      -0.00008332
C        5.09901041       5.78443197       3.35833193      -0.00113687       0.00282631      -0.00365130
C        3.83126170       7.84071515       3.65858383      -0.00182927      -0.00059552       0.00215372
C        2.55052557       9.95154931       3.68839640       0.00278474      -0.00138472      -0.00038428
C        9.92360128       1.41325965       3.73149452       0.00318163      -0.00854651      -0.00346440
C        8.69402351       3.55669653       3.57231307      -0.00175299      -0.00167378       0.00405286
C        7.50237730       5.70736125       3.44179404      -0.00622071       0.00077318      -0.00074024
C        6.27832847       7.86668873       3.52749433      -0.00452280       0.00303070       0.01140465
C        5.00663069       9.96554604       3.72221566       0.00077723       0.00151044      -0.00674126
Ru       2.57617235       4.95175716       5.03312550      -0.00782304      -0.00262591       0.00207024
O        2.73895512       4.91931096       6.84868422       0.01143882      -0.00822868      -0.00530090
O        1.35399695       5.13604863       7.36250409      -0.00455263       0.00221487       0.01594153
H        1.28456772       4.36031775       7.95891392       0.00049992       0.00817423      -0.00833786
