52
Lattice="12.336457 0.0 0.0 -6.168228499999997 10.683685154694365 0.0 0.0 0.0 15.0" Properties=species:S:1:pos:R:3:forces:R:3 energy=-449.3883531761944 free_energy=-449.3883531761944 stress="-0.005996711348091534 -0.0031216571056562996 -1.2938794095056898e-05 -0.0031216571056562996 -0.009917328877435468 4.529201894481662e-06 -1.2938794095056898e-05 4.529201894481662e-06 -1.7746888159242371e-06" pbc="T T T"
C        0.07121513       0.01358353       3.79642081       0.00490893      -0.00346536      -0.00097311
C       -1.17324996       2.14350778       3.66060111       0.00036202       0.00137073      -0.00553965
C       -2.39263428       4.29306565       3.55626943      -0.00141537      -0.00763352       0.00178029
C       -3.61469632       6.43006450       3.65552715       0.00436722       0.00128302      -0.00523634
C       -4.85163743       8.56004677       3.80371717       0.00070883       0.00729988      -0.00895599
C        2.54131890      -0.01451137       3.76221452       0.00297236       0.00279733      -0.00288434
C        1.29484443       2.12383276       3.79380452      -0.00997640      -0.00454425       0.00505095
C        0.05498911       4.23885921       3.71962388       0.00161399       0.00148616       0.00507401
C       -1.15316657       6.42568394       3.72363331       0.00096563       0.00015187      -0.00959615
C       -2.37663650       8.55536750       3.76299939      -0.00165671      -0.00436360      -0.00206909
C        5.00510706       0.02649148       3.66400958      -0.00794572      -0.00721044      -0.01301465
C        3.73066421       2.09331884       3.46588675      -0.00240856       0.00287532      -0.00256854
P        1.57872520       6.27055179       4.22574799       0.00323866       0.00851036      -0.00163570
C        0.07561810       8.59185029       3.88802221       0.00262266       0.00652406      -0.00162956
C        7.46560213       0.05503067       3.70812064      -0.00239648       0.00102591      -0.01082532
C        6.22876496       2.16855597       3.44482178       0.00183345       0.00430144      -0.00411136
C        5.06784362       4.36040466       3.39123644      -0.00059261      -0.00108681      -0.00691703
B        3.72195879       6.40146965       4.13953276      -0.00156751       0.00309123      -0.00308428
C        2.56386092       8.66072617       4.00262362      -0.00395932      -0.00790234       0.00278996
C        9.94653947       0.04824030       3.75732093      -0.00303605       0.00185604       0.00223997
C        8.70004442       2.16921208       3.54477534       0.00104475      -0.00448180       0.00312108
C        7.48465958       4.30739312       3.49130401       0.00521785       0.00013522      -0.00275323
C        6.26722132       6.44913166       3.73861056       0.00223458       0.00283182       0.00886240
C        5.01973441       8.58613574       3.91098042      -0.00196347       0.00524950       0.01225165
C        0.05827812       1.42931425       3.75978455      -0.00555734      -0.00567863      -0.01084720
C       -1.17836227       3.55562759       3.60287805       0.00199409       0.00050070       0.00376982
C       -2.38550780       5.71631759       3.61968604       0.00246661      -0.00529854       0.00583133
C       -3.61382014       7.84881689       3.74526739      -0.00243860       0.00318684      -0.00118456
C       -4.86126208       9.97679373       3.80877207       0.00674009       0.00531650       0.00667826
C        2.52813102       1.39888299       3.70068916      -0.00637455       0.00200444      -0.01026847
C        1.27842109       3.53235860       3.91693725      -0.00022145      -0.00171180       0.01082985
C        0.03371358       5.65032183       3.77157516      -0.00004873      -0.00189094       0.00881780
C       -1.14130365       7.84990510       3.79931267       0.00131661       0.00360001       0.00395358
C       -2.38483020       9.97853409       3.73741050      -0.00613323      -0.00773749       0.00408080
C        4.99210494       1.44914278       3.50211198      -0.00161695      -0.00301403      -0.00658387
P        3.45822608       3.77108351       2.91423235       0.00105856       0.00018580      -0.00241974
C        1.33248347       7.96328880       4.07008039      -0.00013524      -0.00560383       0.00217438
C        0.07009374      10.01594997       3.75493737      -0.00338420       0.00383628      -0.00137800
C        7.45976862       1.46660227       3.54927410       0.00065082       0.00214642      -0.00084706
C        6.25395015       3.59206076       3.39535483       0.00404147       0.00569829      -0.00906236
C        5.04493593       5.72526088       3.72590554       0.00203134       0.00014928       0.00345122
C        3.77721995       7.92549101       4.03909586      -0.00011807      -0.00061179       0.00617680
C        2.54051390      10.05647222       3.82008509      -0.00433463      -0.00100826       0.01158632
C        9.93130047       1.45538885       3.63834813       0.00113954       0.00035723       0.00301458
C        8.70873396       3.59048286       3.50822219      -0.00023871      -0.00858934       0.00001970
C        7.48932309       5.72726408       3.61249531       0.00634226       0.00162796       0.00273874
C        6.25694211       7.86354094       3.83934184      -0.00010592       0.00599812       0.00753788
C        5.00909820      10.00646696       3.82451901       0.00225303       0.00356001      -0.00204371
Ru       2.77680595       4.57330610       4.96042093      -0.00135186      -0.00024558       0.00850580
O        2.70249804       4.17331224       6.80191258      -0.00582650      -0.00654079       0.00616794
O        1.31161124       4.33465273       7.29529372       0.00834291      -0.00794584      -0.00112315
H        1.52128400       4.50820300       8.23751084       0.00433592       0.00760724      -0.00895264
