51
Lattice="12.336457 0.0 0.0 -6.168228499999997 10.683685154694365 0.0 0.0 0.0 15.0" Properties=species:S:1:pos:R:3:initial_magmoms:R:1:forces:R:3 energy=-454.5548400550842 free_energy=-454.5548400550842 stress="-0.006436403932447993 -0.0005076997273632856 -1.1944253841444639e-05 -0.0005076997273632856 0.0019424828657784762 -7.742739274019166e-06 -1.1944253841444639e-05 -7.742739274019166e-06 0.00010837821738960717" pbc="T T T"
C       -0.03297892      -0.02438128       3.65392160       0.00000000      -0.00116664      -0.00624122       0.00278729
C       -1.28154013       2.07890572       3.46242850       0.00000000      -0.00573486       0.00999095       0.00970950
C       -2.51440890       4.23038711       3.40547802       0.00000000       0.00119220       0.00413154      -0.00064940
C       -3.73139539       6.38124974       3.56046526       0.00000000      -0.00349367       0.00014111      -0.00435230
C       -4.96383544       8.52828619       3.72388915       0.00000000      -0.00338155      -0.00467435      -0.00882686
C        2.43011247       0.01090089       3.70597063       0.00000000      -0.00267144       0.00570387       0.00156411
C        1.16668674       2.15039281       3.69527171       0.00000000      -0.00621435       0.00438277      -0.00480971
C       -0.09014874       4.20344600       3.50573048       0.00000000      -0.00661067       0.00475408       0.00791075
C       -1.29084127       6.38149294       3.48284811       0.00000000      -0.00058178      -0.00442940       0.00777482
C       -2.50820266       8.53254440       3.60596663       0.00000000       0.00768617      -0.00029470       0.00122624
C        4.90560349      -0.03109384       3.68922881       0.00000000      -0.00250935      -0.00502614      -0.00111142
C        3.67774174       2.13930217       3.85687472       0.00000000       0.01232077      -0.00349221       0.00775595
C        1.12459940       6.33118295       3.80306679       0.00000000      -0.01504876      -0.00067645       0.02213314
C       -0.03393200       8.49138042       3.67363178       0.00000000       0.00481223       0.00054062      -0.00696948
C        7.37757369      -0.06875298       3.64529032       0.00000000      -0.00185106       0.00003779       0.00201990
C        6.15979246       2.07733834       3.69806619       0.00000000       0.00459088      -0.00274848      -0.01119626
C        5.00377571       4.22703971       4.02993627       0.00000000       0.00297354      -0.00634470      -0.01725609
B        3.83215089       6.44288183       4.78262657       0.00000000       0.00076733       0.01345665      -0.00453696
C        2.45147873       8.46985332       3.88276370       0.00000000       0.00084553      -0.00191346       0.00108378
C        9.83253007      -0.06216593       3.62972855       0.00000000       0.00851780       0.00135576       0.00222898
C        8.60237617       2.07808507       3.50928530       0.00000000      -0.00313360      -0.00010190      -0.01247887
C        7.39767407       4.22958365       3.63204541       0.00000000       0.00520144      -0.00035371       0.00015710
C        6.18305641       6.37398650       3.92314301       0.00000000      -0.00197730       0.00203887      -0.00751872
C        4.90655184       8.51916221       3.91177717       0.00000000      -0.00601932      -0.00622712      -0.00036853
C       -0.04489428       1.39774227       3.57701951       0.00000000      -0.01012274      -0.00133158       0.00490887
C       -1.30173916       3.49594921       3.39253978       0.00000000      -0.00150554       0.00994364       0.00031224
C       -2.51061980       5.66268359       3.44631266       0.00000000      -0.00206001      -0.00038181       0.00543225
C       -3.73393908       7.81279877       3.62239496       0.00000000       0.00275783      -0.00061669       0.00145054
C       -4.96326482       9.96146937       3.69662453       0.00000000      -0.00046008      -0.00404222      -0.00146552
C        2.42276110       1.44393606       3.77013849       0.00000000       0.00442347       0.00774292      -0.00879458
N        1.05674977       3.51972499       3.74032499       0.00000000      -0.01146287      -0.00133194      -0.01106038
C       -0.06755370       5.64578972       3.55562145       0.00000000      -0.00728035      -0.00160228      -0.00708014
C       -1.27787597       7.80617441       3.57467181       0.00000000       0.00773274      -0.00323140       0.00821064
C       -2.50598782       9.96072997       3.67628460       0.00000000      -0.00371798       0.00227301      -0.01791059
C        4.91440594       1.38862901       3.75149740       0.00000000       0.00930135      -0.00795947      -0.00747854
C        3.78090482       3.52107102       4.06394720       0.00000000       0.00032734      -0.00507206      -0.00676216
C        1.19816382       7.74425990       3.80022162       0.00000000       0.00002443      -0.00454606      -0.00258415
C       -0.03036997       9.91610863       3.67177768       0.00000000      -0.00292238       0.00024230      -0.00190490
C        7.38073742       1.35731394       3.59931704       0.00000000      -0.00072556      -0.00060878       0.00602393
C        6.19757163       3.49858376       3.77034430       0.00000000       0.00689535      -0.00471335      -0.00815099
C        5.03100196       5.62332402       4.19852385       0.00000000       0.01535966      -0.00477910       0.00420074
C        3.68226112       7.84585483       4.11810216       0.00000000      -0.00475086      -0.00400285       0.01049126
C        2.43852408       9.89828316       3.69815416       0.00000000       0.00440002       0.00307207       0.00625160
C        9.82887232       1.36153762       3.50240983       0.00000000       0.00006620       0.00422786      -0.00193966
C        8.60684678       3.50909738       3.48317386       0.00000000       0.00069674       0.00077305      -0.01069297
C        7.39610204       5.65914276       3.68228057       0.00000000      -0.00195271       0.00211304      -0.00216635
C        6.15764671       7.81130546       3.87859481       0.00000000      -0.00503720       0.00240410       0.00896299
C        4.90413406       9.93524993       3.70821906       0.00000000       0.00295577      -0.00728756       0.00430583
Ru       2.41606644       4.91111849       4.43857596       0.00000000       0.00479549       0.01115351       0.17101588
O        3.56536398       6.34473285       6.24904793       1.00000000      -0.00218746      -0.00161979      -0.05053329
O        2.56039273       5.23776583       6.27238882       1.00000000       0.00593584       0.00517129      -0.07931951
