52
Lattice="12.336457 0.0 0.0 -6.168228499999997 10.683685154694365 0.0 0.0 0.0 15.0" Properties=species:S:1:pos:R:3:forces:R:3 energy=-449.42058725457974 free_energy=-449.42058725457974 stress="-0.007179560287493912 0.0037799473299293556 -3.169180848522544e-06 0.0037799473299293556 -0.0058210140099122735 3.052214561453887e-05 -3.169180848522544e-06 3.052214561453887e-05 5.0963687882227775e-05" pbc="T T T"
C        0.06004737      -0.01249485       3.66193385       0.00517967       0.00902605      -0.00665046
C       -1.16154919       2.13383985       3.54284035      -0.00083106      -0.00646120      -0.00246309
C       -2.42923971       4.27037227       3.56102119      -0.00342599      -0.00040064       0.00394193
C       -3.66856627       6.40115521       3.60678254      -0.01017339       0.00355114       0.00846990
C       -4.89448291       8.52736242       3.68450244      -0.00048291      -0.00349168       0.00279695
C        2.52997695      -0.04096802       3.69509889      -0.00790126      -0.00143406       0.00163108
C        1.33726587       2.08162805       3.64068248      -0.00177818       0.01617103      -0.00614686
C       -0.03706841       4.33165055       3.84938978       0.00169778       0.00262941       0.00995691
C       -1.26568733       6.41957084       4.00791102       0.00629728       0.00558264      -0.00664499
C       -2.42353560       8.53222213       3.78039514       0.00351332      -0.00429259      -0.00324104
C        5.00335700      -0.02722367       3.68766610      -0.00120943      -0.00617401      -0.00130352
C        3.79610379       2.08946572       3.74722760      -0.00020943      -0.00214959      -0.00251891
P        1.29204893       6.37114631       5.08898393       0.00831370       0.00085956      -0.00716057
C        0.03882667       8.55747035       4.02983184      -0.00079889       0.00498860       0.00438856
C        7.47031452      -0.01547762       3.68126421      -0.00221695       0.00438396       0.00576758
C        6.25179478       2.10178053       3.51571785       0.00541269      -0.00144697       0.00361864
C        5.03572873       4.22744144       3.67556473      -0.00068235       0.00711537       0.00461694
B        3.76612437       6.32721739       4.29886602       0.00780401      -0.00324719       0.00134294
C        2.52862149       8.57983177       4.07997449      -0.00715802       0.00115545      -0.00391395
C        9.93713911      -0.00560683       3.66677894       0.00084532       0.00287748       0.00775447
C        8.70836873       2.11914571       3.47096297      -0.00157162      -0.00426314       0.01042609
C        7.46391677       4.25639952       3.44639506      -0.00151897      -0.00734922      -0.00239172
C        6.22279828       6.39182938       3.66458108       0.00670468      -0.00458714       0.01687919
C        4.98069640       8.53077566       3.85483013       0.00632513      -0.00041038      -0.00224374
C        0.07661599       1.42121762       3.60517574       0.00165879       0.00857838       0.00131411
C       -1.19765434       3.55902436       3.60313631       0.00162878      -0.00224350      -0.00372645
C       -2.45018186       5.69259310       3.69278942      -0.00581936       0.00627220       0.00629565
C       -3.66183830       7.82147082       3.68683680      -0.00044624       0.00345064      -0.00968094
C       -4.88320634       9.95012788       3.68548605      -0.00333262      -0.00326478      -0.00354736
C        2.55139971       1.37493125       3.71383120      -0.00706265       0.00393071      -0.00305368
P        1.60325493       3.82349729       3.47473207       0.00316450      -0.00629833      -0.00339927
C       -0.12021858       5.65945894       4.28501809       0.00673950       0.00653244       0.00060903
C       -1.20904073       7.83821232       3.97467248       0.00781466       0.00208256      -0.00591677
C       -2.40626095       9.94754618       3.72060917      -0.00461872      -0.00599836       0.01110789
C        5.02131791       1.38947111       3.63031851       0.00505532      -0.00547837       0.00708624
C        3.85283120       3.49489091       3.93469519      -0.00666006       0.00839610      -0.00089232
C        1.27962646       7.93862154       4.31091487      -0.00595633      -0.00049293       0.00013500
C        0.06277056       9.95942529       3.77515438       0.00013108      -0.00019847      -0.00228650
C        7.48111817       1.39792548       3.51946355       0.00240078      -0.00062586      -0.00029322
C        6.25268377       3.52214387       3.47129146      -0.00202053       0.00012042       0.00042167
C        5.03377536       5.63420661       3.81581099       0.00416513       0.00585478       0.00172760
C        3.74949494       7.84528737       4.09193796      -0.00071115       0.00044384      -0.00063371
C        2.53562858       9.97771257       3.78861198      -0.00419073       0.00259775      -0.00640139
C        9.94556569       1.41582911       3.53286448      -0.00343765      -0.00236149      -0.00107956
C        8.69560354       3.54704281       3.45029923      -0.00191618      -0.00716222      -0.00315884
C        7.44833681       5.68235788       3.52580355      -0.00380859      -0.00815710      -0.00047475
C        6.21077070       7.81592081       3.73928413       0.00498279      -0.00702682      -0.00641400
C        4.99505445       9.96093153       3.72515711       0.00660331       0.00626184      -0.00186674
Ru       2.78788523       4.71841864       5.23907074      -0.00331051       0.00015054       0.01259753
O        2.50966863       4.31327662       7.04124355      -0.00989263       0.00719261      -0.00893990
O        1.29572347       5.06491336       7.50675846       0.00697339      -0.01771102      -0.00046918
H        1.67388905       5.49670179       8.30053190      -0.00026923      -0.00747847      -0.01597247
