51
Lattice="12.336457 0.0 0.0 -6.168228499999997 10.683685154694365 0.0 0.0 0.0 15.0" Properties=species:S:1:pos:R:3:initial_magmoms:R:1:forces:R:3 energy=-442.798108694156 free_energy=-442.798108694156 stress="-0.007984113243811293 0.0034756029379533868 0.00016442853864244054 0.0034756029379533868 -0.009275183212335038 0.0001429136220020881 0.00016442853864244054 0.0001429136220020881 0.00023626093501932815" pbc="T T T"
C        0.04127856      -0.03908494       3.57067409       0.00000000       0.00467557      -0.01018173      -0.00726525
C       -1.17461729       2.11915280       3.47084140       0.00000000       0.01992308       0.01121466       0.00645451
C       -2.43678899       4.24825389       3.51991957       0.00000000      -0.01136926      -0.01929979      -0.00920646
C       -3.66862268       6.37464108       3.54320826       0.00000000       0.00232108      -0.01685030      -0.00256600
C       -4.90583099       8.49677707       3.59853012       0.00000000      -0.02854642       0.01906395       0.00188689
C        2.50834767      -0.08651446       3.62754172       0.00000000      -0.00898491       0.00024761      -0.00757361
C        1.31076672       2.03885443       3.53561894       0.00000000      -0.01255489       0.01166935      -0.04255182
C       -0.04378790       4.33750125       3.73053470       0.00000000       0.05325284       0.00553186       0.00450481
C       -1.25440517       6.38312194       3.93740032       0.00000000       0.03742756      -0.00386718       0.01313795
C       -2.43192951       8.49706107       3.72411327       0.00000000      -0.01494181      -0.04052490      -0.01830617
C        4.98551361      -0.06647430       3.63497149       0.00000000      -0.00088225       0.00031824       0.00323523
C        3.75344921       2.01272959       3.75831758       0.00000000       0.01151827       0.00469464       0.00601832
B        1.06936758       6.46431929       4.89914086       0.00000000      -0.07730786       0.07352187      -0.12985209
C        0.03514987       8.52123241       3.96054249       0.00000000       0.02893438      -0.00368150      -0.00072287
C        7.44518461      -0.03502835       3.61207230       0.00000000      -0.00815034       0.01404274       0.02188867
C        6.23033642       2.07301714       3.50624954       0.00000000       0.01103898       0.02031342      -0.02578366
C        5.05655252       4.20521357       3.64851142       0.00000000       0.02593828      -0.01338814       0.01444765
P        3.60536723       6.20436159       4.36173819       0.00000000      -0.03608771       0.02288700       0.00410355
C        2.47081598       8.56375114       4.01039473       0.00000000      -0.00251080      -0.00693875       0.01145080
C        9.91325981      -0.02350019       3.59339093       0.00000000       0.01705854      -0.02397845       0.01420267
C        8.69038403       2.10053620       3.42373053       0.00000000      -0.01765424      -0.02016355      -0.00598504
C        7.46126074       4.23137373       3.38492467       0.00000000      -0.02922538       0.02448994      -0.00281519
C        6.22995292       6.38023766       3.53650557       0.00000000       0.02254920       0.01551531       0.00478211
C        4.96895909       8.51992194       3.76052791       0.00000000       0.00495900      -0.00422743       0.01940334
C        0.05573956       1.39773057       3.51116276       0.00000000       0.01022998      -0.00413454      -0.00448837
C       -1.20786353       3.53852837       3.54206210       0.00000000       0.04389225       0.01941969      -0.00924704
C       -2.45136211       5.66461712       3.64310139       0.00000000       0.01497833      -0.01305751      -0.00045569
C       -3.66954627       7.79240221       3.62014622       0.00000000      -0.03854865      -0.01958611      -0.01604259
C       -4.90257097       9.91682538       3.59952100       0.00000000      -0.00667557       0.01121427       0.00041744
C        2.52344893       1.33081413       3.66086471       0.00000000      -0.00785680       0.01600762       0.00284896
S        1.48189832       3.72623990       3.20095937       0.00000000      -0.00111152       0.06515765       0.06377363
C       -0.07827592       5.65572145       4.17726479       0.00000000       0.01800244       0.00664077       0.04988013
C       -1.21938713       7.80537897       3.91583818       0.00000000       0.04054240      -0.00108799      -0.02041061
C       -2.42125767       9.91019330       3.66480317       0.00000000      -0.00950141      -0.02584848      -0.00836025
C        4.99364123       1.35447739       3.61645516       0.00000000       0.01442185       0.01738542       0.00147432
B        3.80808359       3.46864780       4.08949130       0.00000000      -0.01844850      -0.01307857      -0.00669754
C        1.25065104       7.88342985       4.23011609       0.00000000       0.00484328      -0.00489671       0.01488337
C        0.04655238       9.93147928       3.70644795       0.00000000       0.00430303       0.00828409       0.00947148
C        7.45725342       1.37970974       3.47386537       0.00000000      -0.01557653       0.00556891       0.00068703
C        6.24830744       3.49116434       3.45600299       0.00000000       0.00447844       0.00975459       0.00255050
C        5.05382505       5.60824745       3.67176694       0.00000000       0.08820742      -0.01433964      -0.00733618
C        3.72706615       7.88303892       4.03382314       0.00000000      -0.01213301       0.01839301       0.01289787
C        2.50474843       9.96315488       3.71452576       0.00000000      -0.00691429      -0.00132190       0.01177281
C        9.92926434       1.40061073       3.47034617       0.00000000       0.01157413      -0.01122654       0.01123332
C        8.68428091       3.52336436       3.40299569       0.00000000      -0.04514193      -0.00549527       0.00725664
C        7.45045634       5.65826741       3.43621601       0.00000000       0.00303689       0.00756649       0.00391933
C        6.19726657       7.79350810       3.63430469       0.00000000      -0.00249297       0.02448765       0.00599006
C        4.97422302       9.94470079       3.63641332       0.00000000       0.01917000      -0.02582205      -0.00165016
Ru       2.40479604       4.55169852       5.13714727       0.00000000      -0.03318700      -0.02583386       0.24173035
O        1.76475447       5.29809434       6.79146601       1.00000000      -0.01492409      -0.05663072      -0.08039589
O        1.07427384       6.51700854       6.38796733       1.00000000      -0.05654902      -0.04792915      -0.15859127
