52
Lattice="12.336457 0.0 0.0 -6.168228499999997 10.683685154694365 0.0 0.0 0.0 15.0" Properties=species:S:1:pos:R:3:forces:R:3 energy=-445.9712205785183 free_energy=-445.9712205785183 stress="-0.005577345862684263 0.002427572047146059 3.843796844073657e-05 0.002427572047146059 -0.009226254270917758 -2.207498247269874e-06 3.843796844073657e-05 -2.207498247269874e-06 -3.730992530562116e-05" pbc="T T T"
C       -0.00480077       0.00747679       3.72446590      -0.00931817      -0.00218163      -0.00981804
C       -1.22842248       2.15174457       3.77721682       0.00445494       0.00405703       0.00043176
C       -2.46237052       4.28779269       3.64501146      -0.00359013       0.00110621      -0.00154239
C       -3.70246684       6.42055027       3.51284687      -0.00061727       0.00613096      -0.00637686
C       -4.95945232       8.54601594       3.54814258       0.00046275      -0.00132115      -0.00610427
C        2.45447859      -0.02087810       3.72095867      -0.00500930      -0.00572365       0.00286954
C        1.24734027       2.10859886       4.00188069       0.00471459      -0.00683400      -0.00543044
C       -0.07029918       4.29932393       4.14850666      -0.00106465       0.00743996       0.00130063
C       -1.29605747       6.43820094       3.97723410       0.00631696      -0.00048679      -0.00123808
C       -2.48343314       8.55059573       3.71672661       0.00436351      -0.00195476       0.00195730
C        4.92906598      -0.00246459       3.69715359      -0.00222437      -0.00130740       0.00256179
C        3.69618892       2.07690120       3.79245384       0.00889578       0.00848755       0.00625627
P        1.19957249       6.42648906       5.17024681      -0.00599769      -0.00168581       0.01632106
C       -0.02353390       8.58302489       4.01947875      -0.00182151      -0.00201570       0.00846607
C        7.39402565       0.02925911       3.74926434      -0.00545046      -0.00039372      -0.00492273
C        6.17871888       2.13103536       3.55564807       0.00122602      -0.00171011       0.00339625
C        5.01298697       4.27474293       3.46242381       0.00075571       0.00025484      -0.00190892
S        3.41976068       6.27085769       3.35986023       0.00128513      -0.00296689      -0.00389077
C        2.44986128       8.62319253       4.02812294       0.00844175       0.00269406      -0.00810857
C        9.87243239       0.02786106       3.73007552       0.00215224       0.00182083       0.00731692
C        8.64715889       2.15147213       3.58027838       0.00237409      -0.00948661      -0.00534656
C        7.43439006       4.27845038       3.38713269      -0.00193037       0.00098483       0.00059282
C        6.18151553       6.43141772       3.31229597      -0.00864413       0.00181201       0.00109308
C        4.90974053       8.55243504       3.62805511       0.01152564       0.00022879      -0.00195128
C        0.00477353       1.43348789       3.84566160       0.00069312      -0.00377303      -0.00252142
C       -1.24637944       3.57018363       3.82857683      -0.00071248       0.00640134       0.00572809
C       -2.48403709       5.71117139       3.68267502       0.00222955       0.00381065      -0.00370843
C       -3.71632759       7.84112586       3.57704206       0.00385997       0.00391849      -0.00118301
C       -4.95022964       9.96753911       3.66845475      -0.00940808      -0.00466755      -0.00150901
C        2.46055150       1.39451722       3.85683532       0.00933213      -0.00176259      -0.00264618
B        1.27487085       3.59303302       4.32906553      -0.01166262      -0.00443897      -0.01195725
C       -0.15358314       5.68513880       4.32281515       0.00077949       0.00408189       0.01832252
C       -1.26416409       7.85816505       3.92850609       0.00288471      -0.00366020       0.00206115
C       -2.47782115       9.96968207       3.69949754      -0.00182931      -0.00302538       0.00103261
C        4.93933411       1.41621418       3.65695577       0.00256031       0.00023170      -0.00978468
B        3.75034526       3.56951511       3.90335221      -0.00207399       0.00993356       0.00582474
C        1.21635709       7.95730883       4.28713604       0.00408236       0.00502033       0.00739526
C       -0.00880467       9.99440543       3.79567762      -0.00477089      -0.00397486      -0.00380189
C        7.40805314       1.43823767       3.60008250      -0.00109400      -0.00352417       0.00228752
C        6.21721160       3.54185715       3.42765327      -0.00037915      -0.00167547      -0.00038532
C        5.01352358       5.66101442       3.29476973      -0.00458002      -0.00139865      -0.00066949
C        3.65545339       7.91754173       3.77515155       0.01629328      -0.00071443       0.00131796
C        2.46355534      10.02727109       3.83376604      -0.00001972       0.00610022       0.00315470
C        9.87872349       1.44746483       3.67798980       0.00677676       0.00032574      -0.00025012
C        8.65704038       3.57151007       3.50644022      -0.00216879      -0.00731013      -0.00066728
C        7.42052131       5.70291885       3.36507627      -0.00727719       0.00560127      -0.00875543
C        6.14157268       7.84387805       3.46888590       0.00463495      -0.00209683       0.00366088
C        4.92901726       9.98864053       3.69951388      -0.00363263      -0.00072442       0.00214164
Ru       2.75140069       4.80019084       5.18633927       0.00175703      -0.00181704      -0.00704229
O        3.58212115       4.55864145       6.83732913       0.00046963       0.00548602      -0.00651817
O        2.53570244       4.47599089       7.90337432      -0.01126976      -0.00089769      -0.00498993
H        3.00587397       4.98380897       8.59613772      -0.00677571      -0.00239864       0.01753823
