51
Lattice="12.336457 0.0 0.0 -6.168228499999997 10.683685154694365 0.0 0.0 0.0 15.0" Properties=species:S:1:pos:R:3:initial_magmoms:R:1:forces:R:3 energy=-264889.05237990577 free_energy=-264889.05237990577 stress="17.741898022526613 164.32667739866093 -127.0316895428866 164.32667739866093 124.60477920148185 108.62288094033052 -127.0316895428866 108.62288094033052 -181.5325956332176" pbc="T T T"
C       -1.79236650       1.77328994       5.63223922       0.00000000    -186.95286138    -111.10634132      15.67382865
C       -0.06170100      -2.81800684       3.54000278       0.00000000     171.02221061     273.95214253     -37.08313002
C       -1.25203063       3.45048052       8.71034194       0.00000000     -12.88715861     -18.85202181       0.97647788
C       -6.89325092       3.64732481      -0.60418290       0.00000000   -2805.07272354    -567.89843405    2444.66606412
C       -0.13137770       6.95437075       0.32636348       0.00000000     -39.70112748     -38.49698083     265.94309683
C        0.76087320      -0.67040652       8.63007731       0.00000000       6.88359320      -2.66670953       4.87233678
C        1.91586023       3.07724307       4.75271889       0.00000000   49861.57060934   17516.27670186   49730.58787393
C        2.89782340       5.63240157       2.16861785       0.00000000    -949.07395094   -8517.30019782   10113.57231611
C        0.59046888       9.31188961       7.42922422       0.00000000     -51.70343374      55.75000431     -29.89547001
C       -2.18122397       1.49880401      -1.20117840       0.00000000      -3.26992410      -0.77995528       0.13780113
C        4.18987051       2.17574971       3.73544201       0.00000000  441686.13213864  309390.16900656  441228.95017060
C        3.66173366       2.68490032       3.97219503       0.00000000   -9570.90055711  -54358.27185488  -54676.81805274
B        3.41469902      10.30831060       6.32123547       0.00000000      64.10623785       9.24187472     -62.17117946
C        3.75068374      16.57669433       9.85464767       0.00000000      -0.55048252       0.00993408       0.57368014
C        1.64299260       0.33272022      -4.59455570       0.00000000      -1.61490627      -0.49000973       0.79404904
C        4.24859122       2.26791888       3.80318144       0.00000000  -42315.34056672 -245438.81523591 -278636.80294037
C        4.31285366       3.19601390       3.27718662       0.00000000  169629.48131764  225394.58750146  -68704.94087393
O        9.08764126       2.60261702      -7.62266301       0.00000000    -120.14965946     -27.60023382    -103.63370475
C       -4.55603018      11.44746392      -2.51566576       0.00000000       0.80114198      -2.69147732      -7.56227228
C       10.16276735       3.11740156       4.19258112       0.00000000     -73.77612697     -21.73227658       2.41570841
C       11.07800232       1.82361792       0.12665640       0.00000000      36.94465507      13.56653263      33.30203941
C        4.28828739       4.43777760       4.68706848       0.00000000    7360.66495781   -3516.32183966   43787.59119385
C        7.89001867       5.03232627       5.82978858       0.00000000     -92.88246587    -104.75180084    -126.62439982
C        5.87003436       3.74724446      -1.00271918       0.00000000    2434.91149831     273.48403395   -1185.78832896
C        1.76481334       2.46995948       3.49356861       0.00000000   -7724.47301462  -28427.44853515   -5909.64305197
C        0.72848575       3.13496219       0.93548533       0.00000000     431.54728130      16.78309633     327.23643460
C       -0.09447602       5.75311398       3.15348513       0.00000000    2306.51622523    -496.64248699     805.22807836
C        0.43248579       8.29786903       7.03381148       0.00000000     -50.76664132     137.35553891      80.13894059
C       -7.54843793       7.20702441       3.70302441       0.00000000    -906.76531434   -2540.85260370     523.95400854
C        2.53979111       2.54326169       5.20802612       0.00000000  -29679.32719336    6816.23199464   20246.82985510
B       -2.95993673       2.58975066      14.92049078       0.00000000      94.71919361       2.76039647     -85.61628463
C       -4.77668974       6.68628001       5.31151057       0.00000000     154.76738515      83.72020346      10.13727763
C       -7.51558558      12.91666166       6.64944919       0.00000000    -156.05455632     -18.32648100     100.71661339
C       -0.17781473      10.61829652       3.65605351       0.00000000    3769.19313243   -2318.07853282     104.19124041
C        5.25289937       2.64387221       3.49814584       0.00000000 -204955.91361095   87645.71284690   76219.03420733
S        4.94417490       3.46829761       3.27771585       0.00000000 -151698.04628244 -372211.90376956  -41852.72842747
C        0.73433752       5.74860269       4.10346176       0.00000000   -2532.62951718   -1986.91201934   -4249.81444723
C       -0.66260193      11.27125887      -1.96120593       0.00000000       0.48249296      -6.11825703      -0.57091837
C        7.77118910      -1.40219256       3.72450231       0.00000000    -369.20320760     644.18822862     -53.45812671
C        4.67157776       2.13319533       4.95319039       0.00000000  -97863.59699547  -23852.94821878 -127598.70142855
C        9.12802257       3.24329747       5.25875496       0.00000000    -262.05637819     -61.62971171     -89.22290932
C       -0.07773736       7.08459902      -0.35804784       0.00000000      29.60990875      65.30695484    -329.68772680
C        1.22724313      11.10663204       2.39573212       0.00000000   -1739.68161805     862.54164970     873.92852691
C        9.19683106      -0.11609436       7.19875620       0.00000000     -22.72642436      26.40407664      75.73115156
C        7.79130324       7.80234916       7.70529376       0.00000000       0.55891249       1.15915645      -1.46348237
C       12.83672228       4.99590927       5.10936151       0.00000000   -4258.39634101      93.48634347     -43.67767013
C        5.57326454       5.86661441       1.59678614       0.00000000    -419.01813577    -704.77519808     751.72799340
C        4.35323703      12.51259073      10.72327863       0.00000000       0.29518406       0.91242300      -1.33564202
Ru       2.80274223       4.27827864       4.42436722       0.00000000 -1178181.74045720  953050.14944310 -1209019.45739599
O        2.38315738       5.20539300       4.69454040       1.00000000  125559.62127380 -220239.06457137  -10551.44793718
O        3.05697008       4.18220989       4.82513482       1.00000000  933444.44228266 -636781.27432969 1155609.23483639
