52
Lattice="12.336457 0.0 0.0 -6.168228499999997 10.683685154694365 0.0 0.0 0.0 15.0" Properties=species:S:1:pos:R:3:forces:R:3 energy=-447.4720413978987 free_energy=-447.4720413978987 stress="-0.0005600689922013434 0.007302767350744254 -8.145593633262546e-06 0.007302767350744254 0.005869614289720874 7.970431312442721e-06 -8.145593633262546e-06 7.970431312442721e-06 -1.1538498138926288e-05" pbc="T T T"
C        0.01378772       0.03187863       3.72083564      -0.00725827      -0.00954865       0.00444423
C       -1.17100587       2.18018593       3.86169332      -0.00163457      -0.01355444       0.00204889
C       -2.44896829       4.30873323       4.02744858       0.00009586       0.00613153      -0.00415845
C       -3.72677504       6.43651815       3.93821886       0.01337080       0.00863696      -0.00317993
C       -4.94513262       8.57096568       3.79239531      -0.00749837      -0.00092230       0.00300228
C        2.48663992       0.04459384       3.68371987      -0.00331246      -0.00784603      -0.00975417
C        1.28691686       2.18874980       3.28199554       0.00564170      -0.00159067       0.01660758
C       -0.02679624       4.41721997       4.21517775      -0.00730147      -0.00186635       0.00992371
C       -1.30464593       6.49214849       4.18696360       0.00856866       0.00430921      -0.00282278
C       -2.48817906       8.59140307       3.92810943       0.00419658      -0.00251110       0.01677066
C        4.95779874       0.00850491       3.81048545      -0.00837724      -0.00303276       0.01053252
C        3.79863217       2.09786800       3.51197940       0.00724244       0.00307726       0.00755770
O        1.10706709       6.51742007       4.37730210      -0.01236964       0.00091019      -0.01302043
C       -0.01989968       8.57144340       4.04531589      -0.00545978       0.00095476      -0.00553095
C        7.43948109      -0.01981265       3.90898014      -0.00108666       0.00212201      -0.00885744
C        6.23603609       2.12158646       3.75550064       0.00279546       0.00385619       0.00110167
C        5.02037743       4.23251837       3.61053129      -0.00101650       0.00356015      -0.00448654
C        3.70448524       6.32154064       3.71307543       0.00228874       0.00951943       0.00409050
C        2.44831576       8.48555399       3.95005561       0.00138730      -0.00361427      -0.00191153
C        9.89465779      -0.00785862       3.86773938       0.00091212       0.00061689       0.00947239
C        8.69099007       2.14163538       3.89888351       0.00837577       0.00699297       0.00194169
C        7.43475051       4.27734655       3.83943945      -0.00420504       0.00547590       0.00555391
C        6.15635997       6.39923876       3.76537994      -0.00868897      -0.00405913       0.01027999
C        4.91073049       8.51216551       3.79612507       0.00321564       0.01066477       0.00333049
C        0.04156427       1.47621061       3.66001768      -0.00492994      -0.01930576       0.00030649
C       -1.18382558       3.62077080       4.03625400      -0.00637039      -0.00776009       0.00747380
C       -2.50097930       5.73234518       4.06282793       0.01396147       0.00644657       0.01128701
C       -3.72431151       7.86474945       3.88808188       0.00212266       0.00815140       0.00458512
C       -4.92660375       9.99885203       3.72113201      -0.00502135      -0.00522673      -0.00339417
C        2.53890227       1.46737890       3.50863524       0.01001111      -0.00600121      -0.00683545
S        1.22066223       3.38358901       1.96194774       0.00544394      -0.00401391      -0.01595647
C       -0.09213134       5.82229148       4.29806114      -0.00152667      -0.00065741      -0.00363546
C       -1.27418633       7.89624913       4.07641101       0.00430252      -0.00041000       0.00330247
C       -2.46182709      10.01344602       3.80759226      -0.00516838      -0.00887834       0.01119881
C        4.99872422       1.42218521       3.68923302       0.00420129      -0.00288149       0.00211800
O        3.87985761       3.47867744       3.36557757      -0.00532231       0.00899460      -0.00080154
C        1.18525968       7.86061781       4.08892813      -0.00654674       0.00222583      -0.00528763
C        0.02002716       9.98047984       3.92395347      -0.00791869      -0.00125110      -0.00333652
C        7.45447416       1.41746190       3.85858732       0.00878795       0.00773584      -0.00486714
C        6.22001825       3.54183326       3.72958386      -0.00485955       0.00499534       0.00351974
C        4.89881899       5.64804502       3.68603921      -0.00612297      -0.00295360      -0.01040024
C        3.67011489       7.71435175       3.82854308       0.00947850       0.00897590      -0.01314748
C        2.48885593       9.92884083       3.92010228      -0.00000961      -0.00375301      -0.01193595
C        9.92380965       1.43543565       3.89007213       0.00218647      -0.00208698       0.01034337
C        8.67371925       3.57402468       3.92140397      -0.00158386       0.00716732      -0.00129673
C        7.39203415       5.70285696       3.84280971       0.00302571       0.00579738      -0.00101207
C        6.15175544       7.82664988       3.78044740      -0.00823077      -0.00289205      -0.01419471
C        4.94496954       9.96209852       3.80450061      -0.00429647       0.00415559      -0.01052024
Ru       1.86645735       4.32638425       3.84597089       0.00229001       0.00049524       0.00328265
O        2.62953850       4.40829816       5.56960130       0.00225222      -0.01038632      -0.01609312
O        1.83991553       5.18246842       6.55454854       0.00803253      -0.00749631       0.01450376
H        2.12973733       4.73336869       7.37991050       0.00192922       0.00253081      -0.00214228
