52
Lattice="12.336457 0.0 0.0 -6.168228499999997 10.683685154694365 0.0 0.0 0.0 15.0" Properties=species:S:1:pos:R:3:forces:R:3 energy=-456.33797168318017 free_energy=-456.33797168318017 stress="-0.004687327161376679 0.0004461402731768079 6.683049133338442e-06 0.0004461402731768079 0.00682278647676604 -5.645366545214248e-07 6.683049133338442e-06 -5.645366545214248e-07 -6.36544332475786e-06" pbc="T T T"
C        0.07043232       0.00909411       3.81381922      -0.00016582       0.00091166       0.00770485
C       -1.18465918       2.11039608       3.77494188       0.00267351      -0.00028809      -0.00917346
C       -2.42723803       4.25536361       3.61968283      -0.00262243      -0.00010403       0.00099216
C       -3.64753041       6.41180847       3.57680993      -0.00410369      -0.00346735      -0.00804551
C       -4.86589328       8.56476778       3.69185143       0.00504584      -0.00073193      -0.00427520
C        2.54090780       0.05177643       3.78482533       0.00045784       0.00347753      -0.00705653
C        1.30289286       2.20737656       3.94585573       0.00160408      -0.00698720       0.00117908
C       -0.00454179       4.26284262       3.86783742       0.00657223      -0.01076717       0.00047633
C       -1.21943718       6.41604246       3.67433939      -0.00758867       0.00627297       0.01132742
C       -2.41599257       8.56323098       3.68073967      -0.00628449       0.00141381       0.01076212
C        5.00040670      -0.00500036       3.72950054      -0.00181455       0.00741460       0.00393049
C        3.80815556       2.14402776       3.75885659      -0.00737658      -0.00337204       0.00731906
C        1.20725479       6.36186706       4.03603420       0.00712558      -0.00840157       0.00231468
C        0.05632828       8.51680388       3.79154060       0.00949933       0.00732479      -0.00822990
C        7.47779394      -0.05338779       3.75504788       0.00013058      -0.01160513       0.00198242
C        6.25158025       2.10495960       3.62794725       0.00479008       0.00078115       0.00617089
C        5.06240936       4.25469927       3.61423811       0.00138465      -0.00050246      -0.00295483
N        3.87469255       6.36463499       3.93661536      -0.00425278       0.01014832       0.01050974
C        2.54513704       8.46013236       3.89823486      -0.00384544       0.00761054      -0.00460575
C        9.93223095      -0.04836652       3.80082262      -0.00646493      -0.00140623      -0.01251187
C        8.70230333       2.10075409       3.65877554      -0.00631589      -0.00201841       0.00127242
C        7.46877236       4.25915235       3.54724196       0.00570247       0.01036496       0.00072863
C        6.24892520       6.40710058       3.59996436       0.00703706       0.00019653       0.00382174
C        5.01121375       8.51456961       3.79504173      -0.00112827      -0.00515944      -0.00853761
C        0.07085943       1.43835901       3.85399790       0.00223303       0.00241647       0.00239542
C       -1.21427075       3.53118228       3.72222679      -0.00065494      -0.00280603       0.00810766
C       -2.43100443       5.69061438       3.60190096      -0.00790768       0.00055924       0.00552071
C       -3.64142624       7.84474392       3.63723198      -0.00315926      -0.00585411      -0.00330864
C       -4.85832236       9.99951680       3.77295805       0.00154560       0.00469704      -0.00543752
C        2.56107592       1.49599356       3.85286751      -0.00629303      -0.00204316      -0.00860584
C        1.21599498       3.60896843       4.10984691       0.00826475      -0.00968283      -0.01162227
C       -0.01117562       5.68554736       3.83461385      -0.00151182      -0.00246893       0.00252145
C       -1.19223121       7.83835024       3.70608186       0.00047349       0.00999289       0.00165340
C       -2.40876267       9.99641475       3.73328303      -0.00140759       0.00379282      -0.00764593
C        5.00904150       1.42656104       3.69916557      -0.00181707       0.00704268       0.00253251
O        3.86603335       3.54800899       3.67816038       0.00357384      -0.01175019       0.00171908
C        1.29319862       7.76157701       3.91052449       0.00664953      -0.00029891      -0.00518109
C        0.06617725       9.93867935       3.75586974       0.00019433       0.00587017       0.00031429
C        7.47023798       1.38285785       3.67147017      -0.00163477      -0.01326167       0.00225634
C        6.24624181       3.53259416       3.56935251       0.01051912       0.00504745       0.00379215
C        5.03045082       5.67602347       3.67511289      -0.00091937       0.00701882       0.01315782
C        3.79648736       7.74359830       3.88508425      -0.00727624       0.00871158       0.00148618
C        2.53958733       9.89678982       3.81938692      -0.00319560      -0.00075465      -0.01179901
C        9.92666198       1.38172625       3.74028848      -0.00326444      -0.00143855      -0.00234352
C        8.69106085       3.53475147       3.59050814      -0.00331664       0.00321664       0.00047077
C        7.46360367       5.68572924       3.54901135       0.00597891       0.00392754       0.00212233
C        6.24424256       7.83156001       3.69129294       0.00799416      -0.00230043      -0.00560659
C        5.00515398       9.94482226       3.81153616      -0.00330229      -0.00509237      -0.01143490
Ru       2.47494855       5.05071580       4.76764830       0.00318434      -0.00920976       0.01716080
O        2.39930476       5.69628379       6.50927531       0.00017175      -0.00024511       0.00818725
O        1.13713472       5.12101659       7.02317415      -0.00285643      -0.00417195      -0.00642932
H        1.48067234       4.65374312       7.81710852      -0.00232544       0.00797952       0.00091505
