52
Lattice="12.336457 0.0 0.0 -6.168228499999997 10.683685154694365 0.0 0.0 0.0 15.0" Properties=species:S:1:pos:R:3:initial_magmoms:R:1:forces:R:3 energy=-461.4202239126638 free_energy=-461.4202239126638 stress="-0.002303554601925303 0.004134246004484343 -3.885320365054303e-05 0.004134246004484343 -0.0054792626420984035 2.3601238934522975e-05 -3.885320365054303e-05 2.3601238934522975e-05 -9.264376917297819e-05" pbc="T T T"
C        0.01376005      -0.04802166       3.79880581       0.00000000      -0.00164082       0.00057678      -0.00077182
C       -1.19063206       2.10590204       3.75055521       0.00000000      -0.00510790      -0.00254440       0.00054656
C       -2.41934935       4.23688746       3.73603240       0.00000000      -0.00092705      -0.00331324      -0.00116680
C       -3.68497473       6.36149494       3.78598693       0.00000000       0.00004247      -0.00005557       0.00167468
C       -4.94289692       8.48680916       3.83043234       0.00000000      -0.00090546      -0.00008695       0.00086841
C        2.47586390      -0.05630447       3.78749850       0.00000000       0.00017971       0.00049403      -0.00013964
C        1.26756744       2.10569579       3.79614642       0.00000000       0.00146279      -0.00009473      -0.00057349
C        0.05606985       4.24856327       3.66960415       0.00000000       0.00198320       0.00032201       0.00059475
C       -1.21236275       6.37456117       3.61367237       0.00000000      -0.00134721      -0.00269736       0.00219791
C       -2.46833617       8.50050449       3.69830806       0.00000000       0.00190319       0.00124609      -0.00128612
C        4.95086016      -0.04829684       3.68836285       0.00000000       0.00126651      -0.00235016      -0.00171974
C        3.73743793       2.05850950       3.78630081       0.00000000       0.00132475       0.00143994      -0.00039978
C        2.56529963       4.23191486       3.75374419       0.00000000      -0.00047511      -0.00436367      -0.00311439
C        1.23113469       6.43260097       3.37620270       0.00000000      -0.00466367       0.00624713      -0.00123926
C       -0.01108356       8.53317500       3.49429807       0.00000000      -0.00017882       0.00234902       0.00168875
C        7.42520020      -0.02906817       3.59741834       0.00000000       0.00251898       0.00053451      -0.00016979
C        6.21240628       2.07555195       3.74499565       0.00000000      -0.00301083       0.00212865       0.00137761
C        5.00302308       4.17314302       3.83926525       0.00000000       0.00202163       0.00105557       0.00214609
P        2.74759021       5.72411483       2.69240031       0.00000000      -0.00241704       0.00226727      -0.00585205
C        2.46730792       8.54619671       3.49328099       0.00000000      -0.00236127      -0.00001825       0.00358953
C        9.89892645      -0.02772388       3.68892310       0.00000000      -0.00003138      -0.00349770       0.00001160
C        8.67954678       2.09756135       3.71936235       0.00000000       0.00141529      -0.00019577       0.00133168
C        7.45587268       4.22042925       3.82003964       0.00000000       0.00053854       0.00050009      -0.00080709
C        6.17202987       6.34262050       3.93399396       0.00000000       0.00298380      -0.00200392      -0.00037491
C        4.91702227       8.48340809       3.82307900       0.00000000       0.00159223       0.00106606      -0.00232903
C        0.03285682       1.38574484       3.78452127       0.00000000      -0.00127677       0.00190993       0.00044951
C       -1.18297184       3.53097118       3.72193743       0.00000000       0.00467833       0.00267230      -0.00042979
C       -2.43901919       5.65999079       3.71731422       0.00000000       0.00107296      -0.00596494       0.00121208
C       -3.70220585       7.78464817       3.77777865       0.00000000       0.00488441       0.00033401       0.00291739
C       -4.92980654       9.91329489       3.81132031       0.00000000      -0.00146324      -0.00039531      -0.00069930
C        2.48931675       1.36407896       3.79982491       0.00000000       0.00016753      -0.00135327      -0.00006359
C        1.27963865       3.53383366       3.74458319       0.00000000      -0.00319061      -0.00308842      -0.00248102
C        0.02670748       5.66957342       3.54117883       0.00000000      -0.00515090      -0.00194185       0.00118855
C       -1.23612931       7.80208894       3.59187748       0.00000000       0.00108204      -0.00123155      -0.00034992
C       -2.45901053       9.92175487       3.72508121       0.00000000       0.00128314       0.00208127       0.00052748
C        4.97156199       1.36234007       3.74704743       0.00000000      -0.00311979      -0.00026809      -0.00354191
C        3.77854239       3.46343816       3.77489178       0.00000000       0.00112303       0.00136123      -0.00020549
C        1.22041615       7.85535429       3.37846598       0.00000000      -0.00240222       0.00382031      -0.00181893
C        0.01203842       9.94505407       3.58531428       0.00000000       0.00068628       0.00006149       0.00024145
C        7.44199189       1.38142642       3.68803187       0.00000000      -0.00033638       0.00053423      -0.00016885
C        6.23677098       3.48911810       3.80944473       0.00000000      -0.00312369       0.00143543       0.00132989
C        4.98345859       5.57486986       4.02833255       0.00000000       0.00689027      -0.00231990      -0.00387225
C        3.65022433       7.82406934       3.79818699       0.00000000       0.00442308       0.00604499      -0.00407783
C        2.49217243       9.96195205       3.56975284       0.00000000      -0.00029058      -0.00151578       0.00028751
C        9.91082931       1.39354916       3.71890949       0.00000000      -0.00103714      -0.00270691      -0.00272323
C        8.68824011       3.51854383       3.76335481       0.00000000      -0.00222923       0.00210908       0.00400535
C        7.42797599       5.64354247       3.85794571       0.00000000      -0.00188238       0.00204329       0.00234406
C        6.15703442       7.77115776       3.88839655       0.00000000      -0.00325442       0.00107288      -0.00147763
C        4.94742904       9.92407428       3.76904571       0.00000000       0.00059748      -0.00058523      -0.00111795
Ru       3.22047511       6.13192146       4.76947827       0.00000000      -0.03202320       0.01979084      -0.09181310
O        3.07748115       6.82655689       6.62889916       1.00000000      -0.00059077      -0.00085085      -0.04123436
O        1.88438103       7.34470684       6.43761913       1.00000000       0.03831624      -0.02205461       0.14548822
