52
Lattice="12.336457 0.0 0.0 -6.168228499999997 10.683685154694365 0.0 0.0 0.0 15.0" Properties=species:S:1:pos:R:3:forces:R:3 energy=-454.4250886023441 free_energy=-454.4250886023441 stress="-0.007644918115193935 -0.003021408284828942 1.5725470782641054e-05 -0.003021408284828942 0.0013179316864434414 2.526217724410164e-05 1.5725470782641054e-05 2.526217724410164e-05 4.8499462022910196e-05" pbc="T T T"
C        0.01468846       0.01823769       3.86889929      -0.00063497       0.00557757       0.01025815
C       -1.25030613       2.12302309       3.90314451       0.00152479      -0.00181590       0.00148850
C       -2.47371524       4.27128196       3.82688554       0.00306796      -0.00084738       0.00576157
C       -3.66813767       6.43064090       3.75125219       0.00473205       0.00724168       0.00370849
C       -4.89664518       8.58409724       3.79345844       0.00117250      -0.00201136      -0.00423439
C        2.48794451       0.02886462       3.84131431      -0.00468365       0.00745275       0.00433096
C        1.23677273       2.18424358       3.93560688       0.00472874       0.00585272       0.01132272
C       -0.04793485       4.26554391       4.03093812      -0.00093925      -0.00088927       0.00843593
C       -1.24916376       6.42583142       3.91099757      -0.00501263      -0.00071802      -0.00551474
C       -2.44639847       8.57000987       3.83572243      -0.00129110       0.00788138       0.00152387
C        4.95226505       0.00848730       3.71259212       0.00377517      -0.00245066       0.00282543
C        3.68212597       2.10750723       3.46387856      -0.00860521      -0.00502261      -0.00893443
C        1.18835753       6.37319634       4.05585565       0.00627308      -0.00715393      -0.01317381
C        0.02248797       8.53315935       3.86484594       0.00748969       0.00149277      -0.00656275
C        7.41788866      -0.02314501       3.73514931       0.00246192       0.00046057      -0.00968174
C        6.17784119       2.14123538       3.50254482      -0.00441612      -0.00508903       0.01097258
C        5.05738152       4.37188881       3.25565742       0.00521206      -0.00001486      -0.00244007
N        3.86262119       6.42510402       3.60920973      -0.00037404       0.00241728      -0.00702891
C        2.49968564       8.48992064       3.83309111      -0.00498115      -0.00676792      -0.00030011
C        9.87352248      -0.02276659       3.81030534      -0.01449977      -0.01106078       0.00042779
C        8.63558053       2.12568830       3.72044792      -0.00151102       0.00434929      -0.00051425
C        7.43819137       4.28871252       3.57754211       0.00800832       0.01295063       0.00254801
C        6.25975836       6.47271779       3.55144615       0.00523269      -0.00084086       0.00466696
C        4.97441334       8.55338722       3.74756438       0.00127548      -0.00302537      -0.00367907
C        0.00038577       1.43934155       3.92496469       0.00779824       0.00727728       0.00764943
C       -1.26848507       3.54271498       3.92903909       0.00136371      -0.00191857       0.00323531
C       -2.46026347       5.70378230       3.83259635      -0.00370277      -0.00144523      -0.00029752
C       -3.66988705       7.85906602       3.79800505       0.00207932       0.00320239       0.00488980
C       -4.91072212      10.00367814       3.85806443      -0.00200642      -0.00005262       0.00413629
C        2.47621153       1.45860416       3.78575419      -0.00246612       0.00577878       0.01407386
C        1.17443958       3.57652760       4.10459072      -0.00699719      -0.00129360      -0.00916346
C       -0.03806480       5.69358354       4.00859650      -0.00137054       0.00056413      -0.00076728
C       -1.22135153       7.84738489       3.87452300       0.00066190       0.00501741       0.00127882
C       -2.44733489       9.99578638       3.80435825      -0.00302494       0.00743910      -0.01119021
C        4.94104120       1.43773249       3.54030541      -0.00717811      -0.00572859       0.00450554
S        3.53825472       3.71201025       2.77094335      -0.00206117      -0.00881001       0.00129656
C        1.26187567       7.77593339       3.92175881       0.00295516      -0.00674618      -0.01528583
C        0.01851594       9.95759308       3.76584787       0.00890416       0.00289892       0.00663488
C        7.40101908       1.41482866       3.64559842      -0.00026936      -0.00028566      -0.00164773
C        6.20695356       3.57744725       3.42354612       0.00703574       0.00096289       0.00819011
C        5.04762499       5.77818212       3.41214816       0.00286196       0.00215578       0.00627463
C        3.75946217       7.79288883       3.74219781      -0.00110899       0.00053055       0.00868706
C        2.48235923       9.92640857       3.79319150      -0.01185678      -0.01030782      -0.00809572
C        9.85967872       1.40433416       3.81816607      -0.00428564      -0.00536241      -0.00873808
C        8.64282554       3.55745927       3.70808351       0.00341439       0.00813668       0.00104632
C        7.45540840       5.71801134       3.61568942       0.00852891       0.01077202       0.00675994
C        6.21955705       7.87764288       3.70194037       0.00269988      -0.00322636      -0.01176470
C        4.95176163       9.97145928       3.82041730      -0.00551774      -0.00093046      -0.00000071
Ru       2.59056130       4.98035407       4.39846793       0.00209084       0.00245456       0.00845588
O        2.85057710       5.33255294       6.22426978      -0.00125125      -0.01921483      -0.00533337
O        2.37926915       4.17956474       7.03883015       0.00417246       0.01293856      -0.01030550
H        2.27227333       4.64978147       7.89446947      -0.00947518      -0.01277538      -0.01073102
