51
Lattice="12.336457 0.0 0.0 -6.168228499999997 10.683685154694365 0.0 0.0 0.0 15.0" Properties=species:S:1:pos:R:3:initial_magmoms:R:1:forces:R:3 energy=-123576.05732403115 free_energy=-123576.05732403115 stress="6.019238508963645 -52.85446510869014 -112.5323764241827 -52.85446510869014 12.010228078868165 -3.747101978847421 -112.5323764241827 -3.747101978847421 240.4580595644458" pbc="T T T"
C       -2.00210560      -0.35273924       2.49759186       0.00000000  128459.14510292  -40105.19638275   31406.73581763
C        3.18803382      -3.38534682       3.23733146       0.00000000     -63.35060223      12.90844426     -18.31434278
C       -6.90802446       1.55186280       2.66931340       0.00000000      82.23512181     -71.18507614      -7.10138725
C       -4.42942730       4.43163308       5.74234806       0.00000000     -12.59872983      29.63332184       8.12276155
C       -7.34898440      10.85302982       2.69976648       0.00000000   19172.38756361   35715.50644855    2507.78952354
C        4.38718081       1.02635007       4.38905488       0.00000000      24.73298215     -83.94195130       0.05014261
C        2.02129063      -0.32977576      -2.68691203       0.00000000       0.81690041       4.07349398       2.86431580
C        1.55239717       5.34681216       4.91064831       0.00000000  -14124.34103472  -26578.27355642   -6510.35287544
C        0.83785915       8.49442851       3.77426980       0.00000000  -17200.68981736    4649.91076242   -6911.53545616
C       -2.35613371      15.26223205       2.57232045       0.00000000     287.18481084     216.34966829    -190.42548222
C        5.77702014      -2.06065524       7.96395878       0.00000000     275.71797460     -84.53126585    -119.26024900
C        2.07114010       1.44677475      -1.28235435       0.00000000     -23.13830386     -12.79401181      21.80935886
C        1.56354835       7.59135963       3.61936295       0.00000000   17468.79351354   21914.19673235   25051.08667623
C        4.30913934       9.32611914      -1.40732319       0.00000000       6.44993390      54.16993922     248.72837332
C        3.65557213       0.53683733      -5.58431173       0.00000000       1.82553382      -2.12411022       0.12551912
C        7.06913902      -1.83920216      -4.03380939       0.00000000       2.23607226      -1.04878484      -0.51689866
C        5.22681114       1.02584216      -2.81008125       0.00000000      -1.67922492      -5.65257062      -0.63014142
N        2.11798598       8.76957136       4.56051541       0.00000000   45517.72375876  -34026.52590590  136046.32381503
C        4.81134040       9.99749959       2.09114884       0.00000000  -69526.62508875   22522.43200491   54849.65105019
C       11.55911985      -0.19039477       4.75517359       0.00000000    -464.51232008     295.28482205    3935.73836776
C        9.47812413       6.41002500       7.66670887       0.00000000      -5.99795279       8.06817614     -15.35551562
C        8.25593291       1.85183277       4.82477507       0.00000000    -108.55104545     455.72250283      34.72998768
C        9.51106494       5.14639241       2.99775989       0.00000000      -8.69638778     -61.42330356     -17.78088476
C        4.66373753       3.00391659      15.93505415       0.00000000      -4.06356369       4.99120629      -4.46804054
C       -1.75168039      -0.67070997       3.13640057       0.00000000   -8791.93391381   17038.32693164  -79213.45290655
C        1.13484805       5.94746223       4.43472762       0.00000000  -56247.07536690  -15227.03900110   -9875.38810677
C       -7.57623111      -0.44810225      12.03457917       0.00000000       1.65358845       4.88743422      -0.79385286
C       -2.38976954       8.31347341       5.10896330       0.00000000     182.26014274     -96.09952940      11.38713245
C       -6.33057680      11.97906540       2.93167694       0.00000000   13126.85289897    7000.66983542    1273.67863885
C        4.51778367       6.30809433       3.50707887       0.00000000   -5631.11437530    2141.43147513    7619.63373558
C        1.50043404       5.31034969       4.04787907       0.00000000   -6193.53654078  -12337.05463253  -14309.72167005
C        0.87281397       7.17620781       4.83992484       0.00000000  -25380.75493153  -11051.78283359  -26573.33514823
C       -2.19060079       5.74506617       8.28857412       0.00000000      41.57060820      -6.28959410     -11.58162522
C       -3.40636638      11.95969977       2.63544972       0.00000000    -122.95238092    -124.94029179     -53.70106810
C        9.74081125       2.84523163       6.56281403       0.00000000      43.77430060     -64.56917525    -112.68077869
S        4.95354918       5.94293593       7.20910383       0.00000000    2449.55737362      30.13538728    3468.43375943
C        1.58818297       7.90510487       4.52907832       0.00000000    6683.30820519   37992.34658938  -33311.53434274
C       -0.69084573       9.67086346       9.62202641       0.00000000      -7.29164234     -29.13331611     -50.32372469
C        5.63969932       0.11969427       1.62477584       0.00000000      13.99501136     134.58155864     -50.09397394
C        3.55389952       1.74828952       2.85098935       0.00000000     113.72131734     -61.59462046     -44.32051302
C        3.63708303       4.91063103       4.78489107       0.00000000   -4576.20836275   12892.09435346  -10485.46623746
C        2.27271454       8.73011176       4.90005316       0.00000000  -39590.77319551  -47665.83603679 -125319.20425389
C        2.71738429      10.05836664       4.08195039       0.00000000    2068.57590736    -491.09248547   -1709.69565898
C       10.75762193      -0.16836003       2.58845075       0.00000000  -80568.20850503  -38667.92757451  -14663.88705028
C       11.41523884       2.88503281       1.13904925       0.00000000     -42.54315996      49.62265038       2.51182785
C        5.01610886       5.66537474       1.36788378       0.00000000    -165.24758996     175.95713361     108.27761715
C        1.22712929       8.19688036       3.21897002       0.00000000    4405.76840075   -4608.39450519   -1543.86799174
C        3.16542154       9.98112005       4.46667694       0.00000000   -5972.87405363    6964.03019660   -5863.88752558
Ru       2.52581787       6.61102861       4.58405283       0.00000000 -444780.97947982  -42452.02018808  861576.86346455
O        2.61645863       6.70641033       5.96363729       1.00000000  -64915.42319528   -6617.74945575   47775.26448448
O        2.38897775       6.61813845       5.08200462       1.00000000  604100.87374178  110226.88909068 -838961.12866697
