51
Lattice="12.336457 0.0 0.0 -6.168228499999997 10.683685154694365 0.0 0.0 0.0 15.0" Properties=species:S:1:pos:R:3:initial_magmoms:R:1:forces:R:3 energy=-452.6018718344462 free_energy=-452.6018718344462 stress="-0.0016809964994917656 -0.0003963397630962646 -9.056949503335062e-06 -0.0003963397630962646 0.007230634527054648 4.032657229728196e-07 -9.056949503335062e-06 4.032657229728196e-07 3.0602695760041624e-05" pbc="T T T"
C        0.01721143       0.04061593       3.70275410       0.00000000      -0.00629938      -0.00292483      -0.00278003
C       -1.23056933       2.15103687       3.64509559       0.00000000       0.00842438      -0.00171674       0.00560409
C       -2.46036780       4.29466407       3.52436962       0.00000000      -0.00293511      -0.00002837      -0.00170653
C       -3.68782519       6.44456489       3.51303529       0.00000000      -0.00191281      -0.00088804      -0.01211330
C       -4.91678639       8.59273827       3.60667163       0.00000000      -0.00316339       0.00419019       0.00522310
C        2.48750409       0.06698674       3.74511809       0.00000000      -0.00237035       0.00878541      -0.00014006
C        1.24621266       2.21304841       3.85643115       0.00000000       0.00312141      -0.00148470       0.00162106
C       -0.01349621       4.30881263       3.73921881       0.00000000      -0.00509670      -0.00518952       0.00446422
C       -1.24192174       6.45363666       3.58350235       0.00000000       0.00695765      -0.00037159       0.00787967
C       -2.45329283       8.59330499       3.62389715       0.00000000       0.00245674       0.00306652       0.00601078
C        4.95775376       0.03238269       3.72192654       0.00000000       0.00448323      -0.00012050       0.00183304
C        3.72756264       2.21530976       3.86239482       0.00000000      -0.00451982      -0.00246319       0.00065874
N        1.14420384       6.39874215       3.98763887       0.00000000      -0.00533716       0.00860479      -0.01298633
C        0.02615897       8.53879983       3.72956871       0.00000000      -0.00164334       0.00250038      -0.00260323
C        7.43081495      -0.01364571       3.69948792       0.00000000       0.00735604      -0.00760031      -0.00131231
C        6.19717449       2.15473761       3.65547434       0.00000000      -0.00218999       0.00489981      -0.00543077
C        4.96786037       4.32995752       3.68467150       0.00000000      -0.00163409      -0.00079360       0.00179254
O        3.80328893       6.42628459       3.73330479       0.00000000       0.00655700       0.01073478       0.00453321
C        2.50372344       8.47726540       3.79309065       0.00000000      -0.00243263      -0.00912123      -0.00726056
C        9.87881566      -0.01234871       3.68106320       0.00000000      -0.00406726       0.00575263       0.00180275
C        8.65116759       2.14250300       3.58478616       0.00000000      -0.00390709      -0.00153501       0.00331212
C        7.41971120       4.29804045       3.51757455       0.00000000       0.00561714      -0.00551612      -0.00606916
C        6.19509808       6.45280601       3.53455065       0.00000000       0.00178907      -0.01152571      -0.00579962
C        4.95244953       8.55329447       3.66818328       0.00000000       0.00246600       0.00003663      -0.00376181
C        0.01098803       1.46455420       3.73261996       0.00000000       0.00860602      -0.00445720      -0.00226180
C       -1.23764286       3.57987604       3.59988930       0.00000000      -0.00554595      -0.00418798       0.01019233
C       -2.46019628       5.72668460       3.51811465       0.00000000       0.00338910       0.00253590       0.00466637
C       -3.68247351       7.87616959       3.57064646       0.00000000      -0.00152201       0.00357584      -0.00370202
C       -4.90994464      10.02585079       3.69043061       0.00000000      -0.00312855       0.00823569      -0.00512442
C        2.48812958       1.49832390       3.85185707       0.00000000      -0.00186462       0.00583376       0.00462407
C        1.18887791       3.63158442       3.97964766       0.00000000      -0.00806835       0.00988580      -0.00358549
C       -0.01741203       5.75117905       3.72811765       0.00000000       0.00088049      -0.00334995       0.00777549
C       -1.22483637       7.86780257       3.63660882       0.00000000       0.00332755      -0.00024720       0.00527798
C       -2.45186278      10.02207292       3.70048214       0.00000000      -0.00032344       0.00605023       0.01264239
C        4.96011446       1.45972059       3.74600533       0.00000000      -0.00263746       0.00133391      -0.00938287
C        3.77721558       3.63157570       3.96792215       0.00000000      -0.00529267       0.00669214       0.00552874
C        1.23450898       7.76911850       3.84488394       0.00000000      -0.00877897       0.00721342       0.00705480
C        0.02467125       9.97283678       3.71638571       0.00000000       0.00632823      -0.00097478       0.00029442
C        7.42645373       1.42233933       3.63625290       0.00000000      -0.00410815      -0.00287608       0.01168517
C        6.19680990       3.58710192       3.58985923       0.00000000       0.00210804       0.00523954      -0.00492597
C        5.00448871       5.74292391       3.60651171       0.00000000       0.00033395      -0.00310771      -0.00208688
C        3.75537141       7.83573852       3.73803679       0.00000000       0.00171460       0.00368064      -0.00506108
C        2.48976941       9.92579673       3.72261859       0.00000000       0.00567186      -0.01078572       0.00520999
C        9.87752821       1.42424537       3.62602778       0.00000000       0.00233620       0.00864394       0.00600807
C        8.65035780       3.57526866       3.52564769       0.00000000       0.00061712      -0.00474622      -0.00723799
C        7.42292097       5.72512901       3.50371191       0.00000000       0.00089403      -0.00983468      -0.00413655
C        6.19886996       7.87456425       3.58763235       0.00000000       0.00032067      -0.00857976       0.00427687
C        4.95018385       9.98728666       3.68476825       0.00000000      -0.00895889       0.00013743      -0.00354167
Ru       2.46446900       4.83298897       4.89591825       0.00000000       0.00486003      -0.01460176       0.00699311
O        1.50834255       4.70570929       6.57754954       1.00000000      -0.00555213      -0.00157332      -0.01584587
O        2.61623240       3.89011240       6.56644431       1.00000000       0.01267376       0.00297244      -0.00810875
