51
Lattice="12.336457 0.0 0.0 -6.168228499999997 10.683685154694365 0.0 0.0 0.0 15.0" Properties=species:S:1:pos:R:3:initial_magmoms:R:1:forces:R:3 energy=-117235.44613528051 free_energy=-117235.44613528051 stress="50.483627527368476 -77.71444852864917 -63.42013494969083 -77.71444852864917 122.63302144599696 -86.87942524173813 -63.42013494969083 -86.87942524173813 82.62330488035919" pbc="T T T"
C        3.05326788      -4.83529784      -2.16062966       0.00000000       3.55303176      -0.16972816      -4.85108789
C       -4.41383103       1.28987798       4.09704933       0.00000000     -20.52523856      25.03492227     -26.67480812
C       -3.22555882       4.56391227      -4.51417474       0.00000000       5.77852219      -1.29212459       5.08598656
C       -5.14372380       5.86907523       0.14578298       0.00000000     -13.61579368     -23.04732481      31.88250645
C       -1.17094189      12.49017818       4.97559158       0.00000000   -1542.67081129    1501.62900180   -1164.11465137
C        2.97357212       0.64278183       3.50735612       0.00000000     -17.09527858     385.74601721     182.67968976
C        1.47419630       3.05533579       5.43573965       0.00000000   35897.08622805  152577.70886381  -30992.10886355
C        5.34389488       4.43019503       3.66895087       0.00000000  -79362.47107753   86003.07717153    4995.95597204
C       -2.60314674       9.18585697      10.68000540       0.00000000      -0.11198934      -0.45556845       0.76911177
C       -3.48888275       8.35790336       2.68322768       0.00000000      -4.12556022      -9.45511673     -15.33514682
C        7.45709920      -1.82980433       1.10096574       0.00000000      65.62205093     -44.89003434      21.14454822
C       -4.39284088      -2.13358777      10.57230196       0.00000000      -1.06770656      -6.47636105       1.99374929
C       -0.40553885       5.29489683       3.92066378       0.00000000    -332.88805719     166.32357699    -249.20525265
C       -1.79832147      11.15914053       7.21380067       0.00000000    -164.02901301     825.89798784    -398.82780353
C        9.30903173       0.36387038      -0.00761265       0.00000000      -0.90876076      -0.71437797       0.23916456
C        5.44892481      -2.96832106       2.56114791       0.00000000      15.08333397     -29.75982503      17.56152526
C       -0.43873744       0.14062914       9.07955802       0.00000000      25.87663448      34.42783630     -44.03778884
C        9.21156265      -3.57842257      -0.66763412       0.00000000      -1.00846912      -9.54226430       2.32274062
C        0.12408892       6.49352227       4.36415719       0.00000000     299.33097775      36.87549835      90.23844542
C       12.59423363       1.19472531       1.77512292       0.00000000      22.43760403      50.40495923      74.55769590
C       10.65733693       3.48595624       7.00734448       0.00000000    -118.26224206     -13.25304529      58.86999103
C        2.68077571       4.26995293       3.51689058       0.00000000   -9340.76968911     357.09854191  -25271.31319346
C        8.36229419      21.10812964       0.68997030       0.00000000      -3.47285369      -3.91014791      -1.72267950
C       10.14258816      11.04962842       3.09650646       0.00000000     -81.34741790     231.57528181     125.97230627
C      -13.24074625       0.73657795       6.34301080       0.00000000    -202.76467586    -219.35220410     107.36497526
C       -4.60235959      -3.77038423      11.10933185       0.00000000      -0.39431199       6.65762864      -1.78488031
C        0.12598649      10.86110168       4.98680215       0.00000000     323.14231146    -588.84834485     -27.66871386
C       -9.28275828      10.89681267       5.48121628       0.00000000      33.71734850      20.92044712      -8.26029392
C       -2.86799543      11.89130857      -0.18612755       0.00000000       2.47282091      10.45230362       9.79074474
C        4.36152437       3.03317649       5.90243967       0.00000000  -31029.55531071   65493.94010674    9451.59726233
C        0.63514606       3.62083375       3.49018031       0.00000000    2427.08681437    -341.15611992    4659.48449174
C       -1.37097617       6.72029377       1.11025598       0.00000000      11.45244856       4.21871599      -0.49429218
C       -0.58106991       7.23620148      -2.40027348       0.00000000       0.07372798      -0.48331273      -0.74839097
C       -4.81900232      12.23233851       3.47625281       0.00000000     190.51573989    -642.88766008   -1336.26137712
C        2.41319777      -3.93091442       2.04085060       0.00000000     -29.57104770      -8.92468698      35.55694234
N        1.57939776       3.45454346       5.38100869       0.00000000    5472.58699324 -151443.37013533   72809.57629881
C        5.07344256       5.26492679       4.03651907       0.00000000  -54815.34624890  -87811.31303055  -57579.68081255
C        2.62290697       9.24657977       3.25620233       0.00000000       6.70840508      33.62626007     -40.58220170
C        5.94088091       3.54181168       6.59119556       0.00000000   -6074.84618107    2000.93633064   -3939.05318134
C        5.78904168       3.88133272       5.58099397       0.00000000  -16930.08179231   12336.61167504   -9357.53454315
C        4.35337309       4.90712095       4.09210950       0.00000000    9060.97458586    9541.85281316   30807.87593088
C        4.78316902       5.53442880       3.29630548       0.00000000   -4356.64146360 -126603.90420827   72156.76527263
C        4.61611263      13.58051403      10.58987102       0.00000000      -3.05693458       2.68376438      -0.22347289
C       13.77836087      -2.37192053      -0.89303950       0.00000000       1.57483732       6.70078041      -3.89721724
C       12.95830470       9.37365712       0.88723251       0.00000000     -68.02891755      52.61647394     -24.76414798
C        8.25475825       6.45377000       4.25500708       0.00000000     269.08142172      36.98800358      -1.01408339
C        4.84117707       4.97529213       3.68199947       0.00000000  114611.14460594  111535.72747676   30465.08062673
C        8.50191353      14.87950846       2.84248454       0.00000000    7829.78672396    2236.64914633    9294.20040215
Ru       3.46416588       4.28553298       5.44750799       0.00000000 -441683.03653936 -373272.18972301 -241426.76799593
O        2.90880435       3.87725449       6.07534717       1.00000000  -11554.81794640   28793.82890563 -124036.37741153
O        3.76107150       4.55810480       5.76099450       1.00000000  481177.42416065  266765.18485335  260546.73791101
