52
Lattice="12.336457 0.0 0.0 -6.168228499999997 10.683685154694365 0.0 0.0 0.0 15.0" Properties=species:S:1:pos:R:3:forces:R:3 energy=-459.87393817499577 free_energy=-459.87393817499577 stress="-0.008930515382148622 0.0008033833854182021 6.5258880578030675e-06 0.0008033833854182021 0.0026035900035390144 1.451751402951239e-05 6.5258880578030675e-06 1.451751402951239e-05 -2.6643806743302603e-05" pbc="T T T"
C        0.04801849      -0.00285005       3.76920494      -0.00174143      -0.00070852       0.00911373
C       -1.20607279       2.09997735       3.72626210       0.00358195       0.00113793      -0.01458645
C       -2.44490335       4.25084213       3.61156261      -0.00325235       0.00053556      -0.00516974
C       -3.66169946       6.40658482       3.59422022      -0.00346819       0.00133267      -0.01615324
C       -4.88156255       8.55995908       3.68404296       0.00576819       0.00369215      -0.00205012
C        2.51832453       0.04136041       3.79351128      -0.00641556      -0.00046908      -0.00263621
C        1.27667730       2.17685310       3.90503731       0.00073479       0.00217792      -0.00260497
C       -0.03393446       4.25610767       3.83320628       0.00394990      -0.00401814      -0.01071429
C       -1.23608535       6.41283701       3.70833637       0.00017918       0.00039613       0.00381454
C       -2.43518058       8.56015495       3.70524649      -0.00386100       0.01302857      -0.00032844
C        4.98304018      -0.00587182       3.75355058       0.00176498       0.00677967       0.01178118
C        3.78551253       2.17606502       3.85870513      -0.00134932      -0.00752277      -0.00875830
C        1.19165631       6.36166421       4.01193793       0.00353340      -0.00731068      -0.00492578
C        0.03372142       8.51892112       3.80049934       0.00007040       0.00085690      -0.00951554
C        7.45676010      -0.05399156       3.73198632      -0.00853646       0.00396101       0.00196476
C        6.23646974       2.09559667       3.66106912      -0.00355994       0.00463796      -0.01074116
C        5.04672102       4.22250616       3.70890957       0.00616036      -0.00139590      -0.00583499
C        3.82695692       6.34978755       3.91655163       0.00268775      -0.00419745       0.01104097
C        2.51237664       8.47562171       3.85745642       0.00119087      -0.00786345       0.01021033
C        9.91174258      -0.05081995       3.74172794      -0.00928194      -0.01018518      -0.00793026
C        8.68441944       2.09397368       3.62658214      -0.00142698      -0.00340258       0.00157255
C        7.46375816       4.24728196       3.55439223      -0.00152713      -0.00209233      -0.00643270
C        6.24349535       6.40191786       3.62051063       0.00483736       0.00497840       0.01339808
C        4.98985829       8.51755339       3.75922126       0.00843082      -0.00097680      -0.01199627
C        0.04061822       1.41894036       3.80478649       0.00291078       0.00214966      -0.00761880
C       -1.23810269       3.52279551       3.69616719      -0.00079190       0.00195459       0.00479909
C       -2.44639221       5.68575225       3.62126406      -0.00209911       0.00228266      -0.01284384
C       -3.65902412       7.83992392       3.65116064      -0.00008999       0.00397412       0.00166437
C       -4.87973228       9.98943662       3.75398643      -0.00438815       0.00010899       0.00354960
C        2.52751158       1.47399918       3.87652816      -0.00545318      -0.00497003       0.00197646
C        1.17843199       3.57443790       4.01235658       0.00508802       0.00111307       0.00328457
C       -0.03131843       5.68196299       3.83697851      -0.00205996      -0.00667889      -0.00414437
C       -1.21180822       7.83622646       3.73624149      -0.00434348       0.00535775      -0.00603376
C       -2.42732720       9.98820091       3.75418712      -0.00077471       0.01268949       0.00501689
C        4.99777824       1.41771204       3.75332309      -0.00038750       0.00282592      -0.00408228
N        3.89034112       3.54860350       3.92094964       0.01413788      -0.01059781       0.00746963
C        1.26805492       7.77236581       3.89316644       0.00025653      -0.00654367       0.00015166
C        0.04620140       9.93836815       3.75755176      -0.00239782       0.00426519       0.01167770
C        7.46036086       1.37281859       3.65907037      -0.00748750       0.00523894      -0.00002452
C        6.25577948       3.51177053       3.59967878       0.00413731      -0.00189212      -0.00280212
C        5.02951598       5.66262403       3.72121393       0.00572799       0.00088733      -0.00344494
C        3.75506325       7.76511771       3.84446648       0.00918736      -0.00020244       0.01059694
C        2.51572472       9.90434466       3.77139837      -0.01289923      -0.00433277       0.01137621
C        9.90737817       1.37520229       3.68854654       0.00141135      -0.00778216      -0.00186923
C        8.68028707       3.52613246       3.57415011      -0.00334305      -0.00263208       0.00343041
C        7.45846054       5.68153243       3.56399706       0.00007794      -0.00071283       0.00511201
C        6.22875297       7.83031526       3.67944788       0.01256934       0.00448209       0.00536726
C        4.98399711       9.94030073       3.75613548      -0.00081195      -0.00318799       0.00661401
Ru       2.50795572       4.99190743       4.54695531      -0.00224601       0.01780550       0.00446765
O        2.66701284       4.86160197       6.40064139      -0.00465746      -0.00053632       0.00348441
O        1.59701045       5.65122621       7.05796776       0.00659361      -0.00374772       0.01064828
H        1.59782404       5.19797431       7.92935812      -0.00633675      -0.00469046      -0.00034100
