52
Lattice="12.336457 0.0 0.0 -6.168228499999997 10.683685154694365 0.0 0.0 0.0 15.0" Properties=species:S:1:pos:R:3:initial_magmoms:R:1:forces:R:3 energy=-460.76499514779505 free_energy=-460.76499514779505 stress="-0.0020557660130735692 0.004993589103432419 -9.765777251400278e-05 0.004993589103432419 -0.004679552702860216 2.1975096319447317e-05 -9.765777251400278e-05 2.1975096319447317e-05 2.2346553268515423e-05" pbc="T T T"
C        0.02966987      -0.03570101       3.79868052       0.00000000       0.00372523       0.01190242       0.00251370
C       -1.17109831       2.12338441       3.81723356       0.00000000      -0.00150519       0.00315047      -0.00377503
C       -2.39647231       4.25234220       3.80551312       0.00000000      -0.01274025      -0.01997978       0.00774837
C       -3.66620978       6.37599962       3.79094475       0.00000000      -0.01126406      -0.01555956       0.00225127
C       -4.92125727       8.50310702       3.78527034       0.00000000      -0.00072031       0.00274579       0.00302146
C        2.48853639      -0.04638616       3.78467916       0.00000000       0.01565569      -0.00717872      -0.00099704
C        1.28523436       2.11211306       3.84468740       0.00000000       0.00077532       0.00088345       0.00616593
C        0.08581661       4.28325428       3.83598729       0.00000000       0.00510906      -0.00614977       0.02194206
C       -1.19491166       6.39836671       3.71717781       0.00000000      -0.00527901       0.00874358       0.00756061
C       -2.45514002       8.51398131       3.72246147       0.00000000      -0.01220925       0.00603372       0.00004779
C        4.96024058      -0.03900039       3.68043965       0.00000000       0.00510948      -0.01624007       0.02229353
C        3.74587438       2.05978283       3.75814788       0.00000000      -0.01021436      -0.02277286       0.00043926
C        2.57951848       4.21344205       3.92818579       0.00000000       0.00134776       0.00045838      -0.02431156
N        1.21143221       6.49332716       3.71370531       0.00000000       0.02122105       0.03027932      -0.01640910
C       -0.01197508       8.53553068       3.52963855       0.00000000       0.00699580       0.01474078       0.01520362
C        7.43347915      -0.02539316       3.62315959       0.00000000      -0.00362947      -0.01453673       0.01306618
C        6.22551803       2.07843003       3.73448703       0.00000000       0.00299760       0.01160405      -0.02271658
C        5.01059300       4.15992712       3.68860696       0.00000000      -0.00210239       0.02481830       0.02863935
P        3.67943832       6.23642091       2.58077516       0.00000000      -0.00528971       0.02111227       0.01018839
C        2.45083094       8.54903382       3.45219297       0.00000000       0.00372919      -0.00723912      -0.01148456
C        9.90859736      -0.02058662       3.70666877       0.00000000      -0.01170289      -0.00657052      -0.01642104
C        8.69529084       2.10668245       3.75924065       0.00000000       0.00510018       0.00286622       0.01139582
C        7.46974133       4.22820538       3.78422434       0.00000000      -0.00251886       0.01266542       0.01483291
C        6.20283029       6.36462629       3.75168876       0.00000000       0.00528367      -0.00635903       0.00079526
C        4.95072060       8.50132109       3.68257627       0.00000000       0.00806190      -0.01323259       0.02300190
C        0.05033936       1.39947145       3.82727674       0.00000000       0.00090161       0.01302577      -0.01168695
C       -1.14989323       3.55790397       3.82293891       0.00000000       0.00093675      -0.00118865       0.00021342
C       -2.41747506       5.67548563       3.78196636       0.00000000      -0.00658411      -0.02080501      -0.01322302
C       -3.68568438       7.79734128       3.77901556       0.00000000      -0.00591033      -0.01036862      -0.02241950
C       -4.91523274       9.92660217       3.79733619       0.00000000       0.00992685       0.00881298       0.00009358
C        2.50180328       1.37398036       3.80273882       0.00000000      -0.01125758      -0.01935019       0.00816351
C        1.32093207       3.56086401       3.87922689       0.00000000       0.00134667      -0.00596212       0.00480576
C        0.07204946       5.72635512       3.74775326       0.00000000      -0.01828078      -0.01427201       0.02159845
C       -1.22487173       7.81259372       3.65078147       0.00000000      -0.00457769       0.02065435      -0.00436469
C       -2.44738274       9.93438775       3.72871510       0.00000000       0.00918666      -0.00102483      -0.02677429
C        4.98083064       1.37143434       3.72231669       0.00000000      -0.00440266      -0.01748429       0.00024649
C        3.77543189       3.47372998       3.75091037       0.00000000      -0.00078197      -0.00559768      -0.00774650
C        1.21028370       7.83595195       3.46683584       0.00000000       0.00016674       0.01830290       0.00192104
C        0.02143996       9.94887284       3.59538166       0.00000000       0.00033393      -0.00164432       0.00529126
C        7.45612738       1.38685003       3.71220079       0.00000000       0.00526776      -0.00824461      -0.00065304
C        6.24452065       3.49381984       3.74830643       0.00000000       0.00124522       0.02356316      -0.02619386
C        4.96527136       5.59611458       3.68706371       0.00000000       0.01289959       0.02253532      -0.01154383
C        3.67178272       7.79358048       3.55206561       0.00000000       0.00840358       0.01319047       0.01000923
C        2.49452090       9.95613802       3.58778686       0.00000000      -0.01195306      -0.01400311      -0.01188404
C        9.92762624       1.40229863       3.76799719       0.00000000       0.00462951       0.00182365      -0.01370956
C        8.70534541       3.53084198       3.79453835       0.00000000      -0.01491865       0.00552520      -0.01556955
C        7.43837406       5.65900570       3.79432124       0.00000000      -0.00789384       0.00009850       0.00148486
C        6.17385234       7.78230469       3.74783947       0.00000000       0.00642153      -0.01025742      -0.01809411
C        4.96254383       9.92813749       3.74131147       0.00000000      -0.00017358      -0.00175706      -0.00322709
Ru       3.00398623       6.00783803       4.62295561       0.00000000      -0.08062490      -0.01244830       0.07466704
O        2.04463326       5.99065598       6.35241811       1.00000000       0.07225344      -0.01008371      -0.10121156
O        1.59980334       7.22408140       6.42158105       1.00000000       0.02750312       0.01077422       0.06481439
