51
Lattice="12.336457 0.0 0.0 -6.168228499999997 10.683685154694365 0.0 0.0 0.0 15.0" Properties=species:S:1:pos:R:3:initial_magmoms:R:1:forces:R:3 energy=-370341.11969309853 free_energy=-370341.11969309853 stress="559.3014747282759 -21.78314556231619 226.9917460211288 -21.78314556231619 208.41821724102482 -120.1272731671107 226.9917460211288 -120.1272731671107 303.0669143954442" pbc="T T T"
C        1.17154699       1.43133105       3.72279607       0.00000000  104815.06854706   77052.06733681 -245009.42730441
C       -7.71608284       1.15062245       4.70853805       0.00000000   -3017.29843318   -5164.49491445   -1360.58982983
C       -1.31800404       3.75721154      -0.96396742       0.00000000     148.19317901     -50.24044080     203.26632729
C       -7.69818034       3.21504816       5.65631342       0.00000000    1855.30672222    1684.64492987    2293.18050337
C       -3.03163069       9.24415807       3.67204734       0.00000000      96.24035933    -440.57344442     923.32007204
C        2.23742900       1.35139254       3.31607798       0.00000000 -108046.98109044   71281.93807440 -153757.70123879
C        1.86114752       1.66749584       3.07132913       0.00000000 -543101.77503168  599939.77109082  170885.39289977
C        2.92669444       4.69204461      -2.01628004       0.00000000       3.84914183       2.27488657      -2.10797151
C        0.06788952       6.69000593       1.70186047       0.00000000     -19.30496465      55.07756214    -356.10352142
C       -3.76260833       8.47982503       7.30262058       0.00000000      -4.11831092      53.42620408     -48.81298980
C       14.41452501      -2.24225382      -0.95792959       0.00000000      -3.14523959      42.04047773      42.36926296
C        1.78641668       1.93301624       3.74676958       0.00000000  -58055.19980685   71174.15070798 -385247.08526092
C        0.35376904       5.09659016       0.37111815       0.00000000     350.32882404    -289.31351557     127.75965683
C        1.39969778       3.75454514       3.52097677       0.00000000  -19309.09803401  115948.33768238    4827.49166561
C        9.48631873      -0.33907635       5.81924982       0.00000000    -650.78581896     -55.62288559     230.52428917
C        4.81044059       5.79276223      -0.64939369       0.00000000      -2.37913449      -0.79316536      -0.68722453
C        3.23549345       3.39581072       4.28085904       0.00000000  -49961.94092359  -49471.62577656  -26433.48714707
N        3.60657938       2.70482528       3.86479746       0.00000000  -48918.69219285     -18.92944548    4136.64162652
C        1.50825482      13.09153135       1.57534671       0.00000000     -16.32469839       2.99440889       6.83238805
C       11.11894246       0.44315006       3.99092203       0.00000000   -3244.32176306   -5381.86005836    3738.80105610
C       11.84857643       1.07623886       3.49048110       0.00000000  -27498.23716107    2385.66491532   -4253.15290879
C        2.65019841       0.19603965       5.67001860       0.00000000   -3453.46494840    5091.70792866  -13580.43591261
C        3.00503178       7.72546385       6.94732623       0.00000000     -80.10238795     -39.87115338      -5.34645462
C        3.77293081       5.36283440       3.93437998       0.00000000    4501.72734065    1480.28053870    1711.22699537
C        1.46093665       1.87344714       2.94960125       0.00000000 1298827.03657812 -142701.22495558  726880.61014676
C       -2.40129450      -2.49692983       6.92155555       0.00000000      51.61195015      34.02398912      26.47958105
C       -0.71119865       4.84452004       0.84524749       0.00000000     224.37066005    -438.63661445      11.19842393
C       -0.21295074       9.20654940       6.60879124       0.00000000       8.26607840     -30.98366721      44.92821249
C       -6.63646394      12.56525773       4.26508358       0.00000000    3712.24770024  -13356.73743424     219.17620579
C        1.91436000       2.24774985       3.08015454       0.00000000 -540131.11204559 -785286.27568686 -116173.04446821
N       -2.51280336       3.87256510       4.50906845       0.00000000   -2883.57237945   -1510.09560293    -107.46752237
C        6.48358188       4.29289192       4.18715926       0.00000000     116.13129879     -12.95884584     -31.70883355
C        3.01926158       5.39222859       3.76472859       0.00000000   -2198.86197724    3341.98455255     188.81013500
C       -2.52808005      11.17596255       4.20251916       0.00000000  -65076.63767642   27830.00468357  -49302.76487718
C       10.02687019      -1.65514480      -0.94248865       0.00000000       0.41383803      -0.59188498       3.43756480
C       -0.26708111       2.45945805       1.90521056       0.00000000   54352.24588769  -18039.90963299   36717.06864750
C        2.25982071      16.80715764       7.82158213       0.00000000      -8.31692950      10.93592971       8.71920180
C       -2.54399501      10.08129988       6.41737005       0.00000000    -835.63067829     860.72244714    -730.26359344
C       11.49292620       0.23550533       5.04124409       0.00000000   -4138.56832883   -2034.60997014    6161.05776572
C        9.50248570       5.46248675       1.33360173       0.00000000     -85.95385182      38.74554784     -54.31122546
C        5.59816375       9.08777884       5.01780835       0.00000000     241.51802789     824.38034846    -658.04859742
C        0.82723318      10.43068881       7.02651180       0.00000000      15.68487251       4.15715208      -4.36682503
C       -0.01255459      11.65496779       5.16097375       0.00000000   -1249.62073725     179.75172376    -419.39269885
C        3.39872876      -3.24164788       4.37391168       0.00000000    -167.86663490     624.42883777    -141.77496262
C       10.06543780       5.14531885       6.30852304       0.00000000    -417.04878563     136.71257083     322.85289536
C        3.78216973      11.16986306       3.87928178       0.00000000     910.04264019    -638.81589071     122.39491320
C        8.88284042      11.37165509       6.47927174       0.00000000     -54.91822292     286.63102849     702.21732646
C        6.35929504      10.80854210       4.34197519       0.00000000   11500.98477295    7024.24619254    1844.04486399
Ru       0.17537932       4.00849761       4.29879695       0.00000000  332741.07492519 -230337.87408375  -21701.33903202
O       -0.01419059       3.96592818       5.19068734       1.00000000  -20486.59244778   16743.51560799   49441.22438767
O        0.62039321       3.60319121       4.30658396       1.00000000 -311354.47270861  251167.42171344    7558.39338583
