52
Lattice="12.336457 0.0 0.0 -6.168228499999997 10.683685154694365 0.0 0.0 0.0 15.0" Properties=species:S:1:pos:R:3:forces:R:3 energy=-459.5860820971109 free_energy=-459.5860820971109 stress="-0.007468007363882748 -7.290687074002888e-05 -2.2707653384328607e-05 -7.290687074002888e-05 0.004048628234801057 1.4629700939070077e-05 -2.2707653384328607e-05 1.4629700939070077e-05 3.696607330268864e-05" pbc="T T T"
C        0.05583904      -0.04557502       3.77680853       0.00804080      -0.00460363       0.00081862
C       -1.19443629       2.06271343       3.71283865      -0.00011900       0.00246475       0.01248806
C       -2.42374361       4.21302028       3.58414262      -0.00818090      -0.00330026      -0.00958717
C       -3.64090037       6.36988594       3.57400659      -0.00128638       0.00065204       0.00342018
C       -4.86593035       8.52011569       3.68875551      -0.00709354      -0.00269856      -0.00507040
C        2.52644790      -0.00998308       3.79910247       0.00604342       0.00539172       0.00182780
C        1.28088346       2.12570066       3.89399855      -0.00403876      -0.00163351      -0.01176581
C        0.00256587       4.23181751       3.74842322       0.00482914       0.00062260      -0.00495675
C       -1.21543179       6.38034196       3.59727895      -0.00009371       0.00348819      -0.00452826
C       -2.41455148       8.52076702       3.66700748      -0.00748405      -0.00517947      -0.00409946
C        4.99645334      -0.04492764       3.78138026      -0.00600035      -0.00487867      -0.00241056
C        3.77017852       2.12661685       3.92292614       0.00587055       0.00353263      -0.00028488
N        1.16160085       6.33650748       3.87476477       0.00393647      -0.00840570       0.00329780
C        0.05265248       8.47068860       3.74287688      -0.00180473       0.00360561       0.00870058
C        7.46939555      -0.09842514       3.77162616       0.00416255       0.00347847      -0.01203099
C        6.24602283       2.06343106       3.75306163       0.00553934       0.00472859      -0.00173826
C        5.05204152       4.23257197       3.83419531      -0.00594659      -0.00147863      -0.00665744
N        3.89604832       6.33906996       3.97099771       0.00415903       0.00562241      -0.00459737
C        2.52705809       8.40216146       3.85389662      -0.00334678      -0.00389676       0.00092104
C        9.91888048      -0.09841300       3.76557109       0.00422485       0.00363257      -0.00099574
C        8.69358932       2.05523406       3.66720576       0.00878526      -0.00709247       0.00524863
C        7.47646708       4.21311523       3.61748499      -0.00032335      -0.00037727       0.00220092
C        6.27119340       6.37955787       3.67151831      -0.00819940      -0.00255144      -0.00687324
C        5.00240281       8.47022500       3.78531191      -0.00507371       0.01258119      -0.00161935
C        0.04754890       1.37683978       3.79676267      -0.00383821      -0.00651564      -0.00566695
C       -1.20840180       3.49245394       3.65570284       0.00007352       0.00433886      -0.01031170
C       -2.42541855       5.64680478       3.56327637      -0.00188266       0.00018548      -0.00613626
C       -3.64011996       7.80132540       3.62960489      -0.00691749      -0.00245597      -0.00013382
C       -4.86996650       9.94749349       3.75674516       0.00998636      -0.00158531       0.00852884
C        2.52600992       1.41989493       3.89626257       0.00168093       0.00769924       0.00631397
C        1.21153546       3.54551326       3.97361313       0.01154554       0.00158507       0.00387155
C       -0.00864910       5.66742607       3.69801638      -0.00005977      -0.00103698       0.00041862
C       -1.19162321       7.79627723       3.65542963      -0.00361159       0.00320848       0.01759736
C       -2.41293776       9.94769413       3.75188939      -0.00548016      -0.00777565       0.00580137
C        5.00364659       1.37774886       3.82422941       0.00609252      -0.00226054       0.00512417
C        3.83800620       3.54706414       4.03113229      -0.00179856       0.00056674      -0.00228302
C        1.26630954       7.71183783       3.82287569      -0.00404350      -0.00590302       0.01574137
C        0.06041750       9.89685273       3.76722708      -0.00067977       0.00441028      -0.00256893
C        7.47061880       1.33423321       3.72453188       0.00760636       0.00342957      -0.00174204
C        6.26116967       3.49375531       3.71504773      -0.00199470       0.00508262       0.00224216
C        5.06689374       5.66770788       3.79980909      -0.00510689      -0.00445873      -0.00036641
C        3.78951520       7.71372866       3.87399998       0.00150116       0.00446820       0.00243292
C        2.52621118       9.84210128       3.79791226       0.00330370      -0.00120376      -0.00588758
C        9.91672073       1.33394094       3.70373825       0.00780716      -0.00030433       0.01696202
C        8.69431491       3.48943231       3.60353680      -0.00356078      -0.01033526       0.00597316
C        7.47991811       5.64632710       3.60004371      -0.00201534       0.00091023       0.00196436
C        6.24771118       7.79548573       3.70833496      -0.01326136       0.00036440      -0.00596455
C        4.99182570       9.89680303       3.77425310       0.00325683       0.00997962       0.00319989
Ru       2.50832776       4.89006014       4.55728579      -0.00258922       0.00116762       0.00504253
O        2.32168302       5.07819699       6.40561094      -0.01645528       0.00531240       0.00283102
O        1.42848780       6.22493638       6.73346960       0.01292150      -0.00205935      -0.01372700
H        1.49231060       6.18211696       7.71244952       0.01091960      -0.01051867      -0.01096500
