51
Lattice="12.336457 0.0 0.0 -6.168228499999997 10.683685154694365 0.0 0.0 0.0 15.0" Properties=species:S:1:pos:R:3:initial_magmoms:R:1:forces:R:3 energy=-444.7993258813811 free_energy=-444.7993258813811 stress="0.000991171056941707 0.0034197434238764537 -9.574260070208668e-06 0.0034197434238764537 0.002785321027447945 -2.2699913038784214e-05 -9.574260070208668e-06 -2.2699913038784214e-05 0.00024332653315541026" pbc="T T T"
C       -0.04777268       0.00429742       3.78845005       0.00000000       0.00406709      -0.00231858       0.00476753
C       -1.26737584       2.14457138       3.86507508       0.00000000       0.00128236      -0.01074685       0.02468687
C       -2.49078670       4.27820367       3.87983033       0.00000000      -0.01574121       0.00159747      -0.04258218
C       -3.74952734       6.40903922       3.78960105       0.00000000       0.01127489       0.01605897       0.00229131
C       -4.99743251       8.54779598       3.74050659       0.00000000      -0.00617916       0.00222719      -0.00701766
C        2.40774258       0.05408329       3.79384054       0.00000000       0.00386038      -0.01291920      -0.02443512
C        1.16514405       2.17104542       3.84179701       0.00000000       0.00110603       0.02755456      -0.04707985
C       -0.02783196       4.25279656       3.92935536       0.00000000      -0.01695236      -0.00706136      -0.01286620
C       -1.26888902       6.40753853       3.87180947       0.00000000       0.00696037      -0.01350414       0.01613997
C       -2.53979378       8.55737368       3.80590648       0.00000000       0.00111488      -0.00511378      -0.03726378
C        4.86851153       0.00712314       3.75431249       0.00000000       0.00778363       0.00310417      -0.00532946
C        3.68717354       2.14350276       3.69109022       0.00000000      -0.00872906       0.00746435       0.01432165
C        1.18397680       6.45473796       3.95057925       0.00000000       0.00621430      -0.01185250      -0.03025237
C       -0.08625162       8.55986013       3.76659273       0.00000000      -0.00502755      -0.00190479       0.01472202
C        7.34553523      -0.00110391       3.72285190       0.00000000       0.00796063       0.00157228       0.03110788
C        6.13439273       2.11388053       3.70968030       0.00000000       0.00235694       0.00876952      -0.00499321
C        4.94986378       4.17380953       3.48491424       0.00000000      -0.01560053       0.00025850       0.02076098
S        3.61243152       6.40905551       2.33230522       0.00000000      -0.01529809       0.04739766       0.01484436
C        2.36968487       8.56835577       3.64924616       0.00000000       0.00028381      -0.00714519       0.02179170
C        9.82319126       0.00237402       3.74301956       0.00000000       0.00093519      -0.00083129       0.01089973
C        8.60293824       2.13460382       3.79288670       0.00000000      -0.00588097       0.00919576      -0.00430812
C        7.37786844       4.26176414       3.75083181       0.00000000       0.00521222       0.01173013      -0.05124093
C        6.11480624       6.38919864       3.62150504       0.00000000       0.01934987      -0.01004690       0.00832482
C        4.88006667       8.53038570       3.64840200       0.00000000       0.01386627      -0.00529132       0.01121801
C       -0.03189929       1.44256150       3.84905653       0.00000000       0.00361958      -0.00449727      -0.03494812
C       -1.25345303       3.56416353       3.91150416       0.00000000      -0.00714718       0.00061816      -0.01319131
C       -2.50209757       5.70105606       3.85556987       0.00000000      -0.00439665       0.00167826       0.00250001
C       -3.76499650       7.83585996       3.77650443       0.00000000      -0.00485821       0.01318513       0.03995644
C       -4.98620837       9.98798307       3.78328795       0.00000000      -0.00381343      -0.00931260      -0.03778494
C        2.41792563       1.50317342       3.77773408       0.00000000      -0.00174547      -0.00784346       0.03168120
O        1.14609710       3.54604419       3.90370646       0.00000000      -0.02757528       0.00044440       0.01132595
C       -0.00033049       5.68877365       3.93234148       0.00000000       0.00561869      -0.01040219       0.00774041
C       -1.30458008       7.83670931       3.82018911       0.00000000      -0.00060807      -0.00982924       0.00782954
C       -2.53913561       9.99440328       3.78833086       0.00000000       0.01224632      -0.00563383      -0.01804379
C        4.88245484       1.43113581       3.71634525       0.00000000       0.00131997       0.00767812       0.00298403
O        3.74750049       3.50501912       3.58251804       0.00000000       0.00009489      -0.01819258      -0.03905984
C        1.15275840       7.84981487       3.76712664       0.00000000      -0.00211267      -0.00984769      -0.01888743
C       -0.06631286       9.97800892       3.73575744       0.00000000       0.00721605       0.00407219       0.01807995
C        7.35932390       1.41840010       3.74065263       0.00000000       0.00152582       0.00530087       0.04274339
C        6.15538227       3.52096271       3.65946832       0.00000000      -0.00212023       0.01172897       0.00630477
C        4.88997488       5.61330083       3.46409051       0.00000000       0.01066811       0.00724530       0.01066394
C        3.59981343       7.81728744       3.54911748       0.00000000       0.00901492       0.01006730      -0.00931344
C        2.41119225       9.98302220       3.70320494       0.00000000       0.00494065      -0.00665277      -0.01871811
C        9.83991978       1.42871447       3.80702122       0.00000000      -0.00390747       0.00387613       0.00454789
C        8.61155126       3.55994663       3.82008549       0.00000000      -0.01012786       0.00913369       0.00631619
C        7.35067377       5.68775004       3.72839714       0.00000000       0.02158700       0.00717145       0.02140924
C        6.09741419       7.81644123       3.65279798       0.00000000       0.00812532      -0.01104838       0.03403021
C        4.88246986       9.95640529       3.72984957       0.00000000       0.00598693      -0.00456785       0.05597887
Ru       3.06179206       5.99093312       4.43520537       0.00000000      -0.03307807      -0.05860655       0.19335784
O        2.66695774       5.05128424       6.00525065       1.00000000      -0.17678099      -0.81543166       0.02949889
O        2.52651073       3.74855115       6.12304945       1.00000000       0.18208742       0.84147144      -0.26550972
