52
Lattice="12.336457 0.0 0.0 -6.168228499999997 10.683685154694365 0.0 0.0 0.0 15.0" Properties=species:S:1:pos:R:3:forces:R:3 energy=-451.5425937154125 free_energy=-451.5425937154125 stress="-0.0052222698021616165 0.00025509022031645624 3.4755814221512216e-05 0.00025509022031645624 -0.0022846415371540127 -3.386959610408559e-05 3.4755814221512216e-05 -3.386959610408559e-05 -3.5233774813435608e-06" pbc="T T T"
C        0.02638201       0.03206490       3.62065257       0.00116958       0.00000752       0.00027613
C       -1.21686553       2.14377727       3.48509503       0.00166339      -0.00409288      -0.00092578
C       -2.44804409       4.29055644       3.37037837       0.00299073      -0.00824075       0.00426382
C       -3.67424502       6.43840368       3.42022630      -0.00173795       0.00011474       0.00463051
C       -4.90913365       8.57873204       3.60231743      -0.00148096       0.00030021      -0.00173599
C        2.49168048       0.04348150       3.67265635      -0.00814759       0.00142307      -0.00485662
C        1.24619757       2.17370202       3.86176669       0.00049326      -0.00296897       0.00426750
C       -0.04847998       4.25405869       3.89114848      -0.00155064       0.00073159       0.00267110
C       -1.25354282       6.43136902       3.74444029       0.00381705      -0.00046712      -0.00086760
C       -2.44511454       8.57737982       3.61657328       0.00602515       0.01256721      -0.00024704
C        4.95737770       0.02880028       3.61426446      -0.00112520       0.00146433      -0.00327677
C        3.73917910       2.16971824       3.84059932       0.00355992      -0.00194087       0.00484734
P        1.13247609       6.37013642       5.07562301       0.01357064      -0.00203973      -0.01434816
C        0.01002065       8.58558465       3.90159729      -0.00500561       0.00014115      -0.00052713
C        7.42652728       0.01417191       3.57647732       0.00091127       0.00570242       0.00169713
C        6.20277251       2.13849634       3.45180944      -0.00427509      -0.00183193       0.00268537
C        5.03077637       4.24617641       3.81303285       0.00677458       0.00217830      -0.00343048
P        3.80240166       6.33300005       4.90766494       0.00773004       0.00148335      -0.00355029
C        2.48592764       8.61944256       4.08313691      -0.00599044      -0.00498566       0.00191082
C        9.89197600       0.01550729       3.58371454       0.00931547       0.00360657      -0.01026596
C        8.66172228       2.14289428       3.33430544      -0.00226140       0.00042175      -0.00273386
C        7.43659618       4.28919610       3.34057970       0.00103372      -0.00724640      -0.00039305
C        6.23639672       6.43284571       3.68022568      -0.00499973       0.00059559      -0.00058229
C        4.97200130       8.58533124       3.87107516      -0.00149874      -0.00375260      -0.00639379
C        0.01896196       1.45087064       3.63112948      -0.00038451      -0.00236277       0.00768334
C       -1.23623916       3.56201156       3.50538345       0.00108184      -0.00613350       0.00913470
C       -2.45352569       5.71920151       3.45444691       0.00183507      -0.00597043       0.00012495
C       -3.67689147       7.86472032       3.52789339       0.00610086       0.00770441       0.01118918
C       -4.90622024      10.00785243       3.63417381      -0.00373626      -0.00239657       0.00036400
C        2.49206314       1.46383454       3.81942934      -0.00037329      -0.00116333      -0.00179499
C        1.14973226       3.54912138       4.16705084      -0.00291640      -0.00133923       0.00008097
C       -0.12407719       5.65581103       4.08420209       0.00636497       0.00163570      -0.00053557
C       -1.22445529       7.86341052       3.77050940       0.00274056       0.00298924      -0.00522855
C       -2.44739607      10.00637461       3.63600741      -0.00368881       0.01019531      -0.00050152
C        4.96584470       1.44723183       3.60741188      -0.00014087      -0.00315170       0.00295600
C        3.83855422       3.54782072       4.12985069       0.00667409       0.00309503      -0.00608107
C        1.23496193       7.95288904       4.26504128      -0.00815968      -0.00423796      -0.00062050
C        0.02076211       9.99692068       3.66946848      -0.00140590       0.00010343      -0.00225273
C        7.43223585       1.42676567       3.40474278      -0.00306901       0.00533332       0.00255110
C        6.22314231       3.55647090       3.45354982       0.00107830      -0.00352388      -0.00685677
C        5.09819185       5.65142119       3.97493861      -0.00004518       0.00066674       0.00466951
C        3.74088600       7.94964907       4.21866604      -0.00223732      -0.00265431       0.00854267
C        2.48982011       9.99992193       3.71336965       0.00468591       0.00164120      -0.00314691
C        9.89023746       1.42935790       3.42145427      -0.00002251       0.00496708      -0.00477990
C        8.66286525       3.57335867       3.28809464       0.00221673      -0.00549311       0.01004363
C        7.44164038       5.71890143       3.42326803      -0.00799444      -0.00432447      -0.00758541
C        6.20406015       7.86307924       3.73100678      -0.00393924      -0.00165433      -0.00375146
C        4.96217929       9.99905971       3.66767628       0.00600903      -0.00055007       0.00186347
Ru       2.51125773       4.51097193       5.34742605      -0.00009098      -0.00875985       0.00424104
O        2.55865163       3.74591204       7.03244244      -0.00295276       0.01698759       0.00433695
O        1.87371355       4.67392171       7.97848950      -0.01444292       0.00277278      -0.00033661
H        2.52788454       4.65462221       8.70963058      -0.00416874       0.00245275       0.00257559
