51
Lattice="12.336457 0.0 0.0 -6.168228499999997 10.683685154694365 0.0 0.0 0.0 15.0" Properties=species:S:1:pos:R:3:initial_magmoms:R:1:forces:R:3 energy=-445.7799009348927 free_energy=-445.7799009348927 stress="-0.0020145303384198425 -0.00133692199037692 3.077954792284054e-05 -0.00133692199037692 0.0070483430805966755 2.1544538588982833e-05 3.077954792284054e-05 2.1544538588982833e-05 -2.302703314748745e-05" pbc="T T T"
C       -0.01493852       0.00525853       3.62724861       0.00000000      -0.00798671      -0.02231519       0.01770927
C       -1.26524271       2.13013551       3.55735115       0.00000000      -0.00663390       0.01872616       0.01062891
C       -2.47771108       4.27451598       3.61565050       0.00000000       0.00731544       0.02062400      -0.03617549
C       -3.68934900       6.41934057       3.71939435       0.00000000      -0.00448768      -0.00782392      -0.00697303
C       -4.93010579       8.57299426       3.72449265       0.00000000       0.00781925      -0.01038322       0.01510837
C        2.44696881       0.04353251       3.56254560       0.00000000       0.00801395       0.01368083       0.03442573
C        1.17138957       2.15483378       3.47271165       0.00000000       0.02364537       0.00373764       0.00950933
C       -0.05643855       4.27304295       3.45657019       0.00000000       0.01324080      -0.00560050       0.01513502
C       -1.23501148       6.40101566       3.54595104       0.00000000       0.00118458      -0.01707111       0.01939069
C       -2.46709681       8.55816720       3.62211413       0.00000000      -0.01867268       0.00769877      -0.01038882
C        4.92163747       0.01643354       3.64818871       0.00000000       0.00459114       0.02400921      -0.00120146
C        3.69517836       2.15708146       3.32866824       0.00000000       0.01514606       0.02147121       0.00335815
O        1.15751534       6.40541228       3.55264515       0.00000000      -0.01920153      -0.01005865       0.02722476
C       -0.00856475       8.52080526       3.66779407       0.00000000      -0.00171493       0.00830720       0.00310716
C        7.38619867      -0.02797927       3.73696680       0.00000000       0.00559388       0.00804033      -0.00138424
C        6.15414343       2.15411239       3.82233443       0.00000000      -0.00951936      -0.06076280      -0.01779347
C        5.14496989       4.32153744       4.64550094       0.00000000      -0.03154383       0.00610996       0.02839860
C        3.81981627       6.43409521       4.37080630       0.00000000      -0.01918893       0.00667210      -0.00886144
C        2.43598651       8.47399348       3.83850860       0.00000000       0.01853906       0.00981667       0.01612639
C        9.84311737      -0.03326279       3.71892511       0.00000000       0.00045083      -0.01634512       0.00765223
C        8.61891076       2.12303956       3.71703944       0.00000000       0.00225367       0.00996607      -0.00541905
C        7.42269766       4.27140234       3.89525384       0.00000000      -0.00807843      -0.01341520       0.01631968
C        6.23801558       6.44807015       4.03068051       0.00000000       0.01889866       0.04342284       0.02666402
C        4.92702297       8.54149167       3.88724395       0.00000000       0.00902514      -0.02449197      -0.00429343
C       -0.02560177       1.43614173       3.53380610       0.00000000       0.00168666      -0.00418952       0.01090146
C       -1.25722434       3.55911827       3.51618201       0.00000000      -0.00118960       0.02345398      -0.00913372
C       -2.46689678       5.69315904       3.61936101       0.00000000      -0.00437679       0.00270154      -0.01759228
C       -3.70154327       7.85107446       3.68060346       0.00000000      -0.00877529      -0.01354798       0.01696905
C       -4.94429099      10.00006960       3.63585456       0.00000000      -0.00362675      -0.01768289      -0.00925374
C        2.42630854       1.47970683       3.44837710       0.00000000       0.02437265       0.01651550      -0.00164351
O        1.11529278       3.53887087       3.52167437       0.00000000       0.00093186      -0.00308145      -0.00520575
C       -0.03216383       5.69039453       3.48804887       0.00000000       0.00302731      -0.01135103      -0.01552934
C       -1.24117310       7.83138472       3.60244954       0.00000000      -0.01330872      -0.00412134       0.00687003
C       -2.48330855       9.99714328       3.60594673       0.00000000       0.00580137       0.02256170      -0.01343468
C        4.91448677       1.45518961       3.62927113       0.00000000      -0.01110457      -0.00329068      -0.02417237
S        3.72595340       3.74073799       2.72646213       0.00000000      -0.00783702      -0.00915303      -0.02074630
C        1.19360056       7.77632786       3.70702683       0.00000000       0.01514915       0.00924138       0.00929034
C       -0.01172839       9.95796150       3.70494172       0.00000000       0.00747428       0.02548800      -0.01076583
C        7.38133527       1.41436385       3.76252240       0.00000000       0.00759887      -0.01547426      -0.00382908
C        6.22921446       3.54459004       4.06760118       0.00000000       0.00652602      -0.06075122      -0.01204368
C        5.05160192       5.75555641       4.36069922       0.00000000       0.00117527       0.03025091      -0.02393119
C        3.69843001       7.79939594       4.02714551       0.00000000       0.00589557       0.01581332      -0.01127728
C        2.44335158       9.91370385       3.76428247       0.00000000       0.00024756       0.00774429      -0.00848874
C        9.85236782       1.40462934       3.65294895       0.00000000      -0.00630202       0.00128181       0.00323054
C        8.63741639       3.55108179       3.72164916       0.00000000       0.01207166       0.01817538      -0.00319441
C        7.43629949       5.70772989       3.88806429       0.00000000       0.00032172       0.01163175       0.01288581
C        6.18565035       7.86383588       3.88210829       0.00000000       0.01510859       0.01232477      -0.02200382
C        4.91973259       9.96085944       3.73458988       0.00000000      -0.00424901      -0.03858916      -0.01403365
Ru       2.97807034       4.92371271       5.16720966       0.00000000      -0.14072497      -0.01503001      -0.04768255
O        1.41839136       5.14444911       5.80183579       1.00000000       0.07906587      -0.01380273      -0.09847249
O        4.47684802       3.86103108       5.68787058       1.00000000       0.00635047      -0.00113437       0.15401930
