51
Lattice="12.336457 0.0 0.0 -6.168228499999997 10.683685154694365 0.0 0.0 0.0 15.0" Properties=species:S:1:pos:R:3:initial_magmoms:R:1:forces:R:3 energy=-379116.05817131913 free_energy=-379116.05817131913 stress="766.1822363428191 -58.6655273188589 -191.1987020343352 -58.6655273188589 635.2711958119058 -544.1291004423769 -191.1987020343352 -544.1291004423769 191.91739343469197" pbc="T T T"
C        2.63963925      -0.89715750       4.08579445       0.00000000      20.72314755      85.33749728     -70.02806531
C        1.87358257      -0.41538469       9.76860953       0.00000000       4.95495673      -2.01046875      -8.82805448
C       -5.82880224       4.75072441       6.23626146       0.00000000    2264.48814692   -1710.07676870    2903.58988630
C       -6.71489298       4.52286395       6.98972296       0.00000000     627.17859851    -963.69741458    2604.46303089
C       -3.68571296       6.18342765       5.10257074       0.00000000   -5253.11535926   37660.63992126  -40680.08646395
C        1.87230114      -4.40380643       5.44055133       0.00000000    3349.12190673    4441.35111590    2368.25153439
C        3.05113917       6.54267379       1.44291968       0.00000000   83427.76063652 -207712.94494086  196930.43244637
C        2.58405493       6.84808821       3.13544666       0.00000000 -187395.24955643  464132.49948760 -362215.22605690
C       -2.99852691       4.39087266       7.19803582       0.00000000      -7.29256722      30.76821521      97.04961486
C       -3.50761283       6.48094937       4.75324262       0.00000000    1055.98664431  -25845.71927944   26816.06942502
C        3.16478107       0.90549609      -2.99059463       0.00000000      -0.04655604      -0.09537862       0.01331512
C        3.40864825       6.19613525       2.96023844       0.00000000 -267554.86620977  759157.47343445 -311316.91795875
C        4.56162625       7.05871040       1.20813904       0.00000000 -132746.96034472  -54734.40494805  126488.40419509
C        0.92229659       5.02346358      10.91549662       0.00000000      -0.03504994       0.00284411      -0.03343207
C       14.99393789      -0.76948742       8.29425057       0.00000000      -5.74794213     -14.07628666      -8.35544248
C        2.90072184       4.44340273       3.31880450       0.00000000  104265.34713568  198320.30548874 -148947.08474688
C        3.83191013       4.74433268       2.91572900       0.00000000 -119265.00464167  177015.69034689  -53646.32679182
N        3.14960371       8.05973176       2.32484683       0.00000000   93046.63629785  231894.99084010  -28073.68130142
C        8.40841535       7.26607883       2.78056161       0.00000000    2545.69992312     548.82036904    -746.54403959
C        8.37776927       0.75111816       5.36841380       0.00000000    -265.78128712     841.75423189     452.08799414
C        5.42746309       2.84390342       3.68472655       0.00000000   -4890.71323528    8581.60603548   -4762.94814331
C        4.54342297       5.57783763       3.42779995       0.00000000   47188.55799039   -6022.91162338   -3802.24714518
C        5.70594418       3.21612031       8.18875200       0.00000000      65.91620377      30.56086498       9.34810550
C        3.52045245       8.50360782       3.02577428       0.00000000 -122001.16887149 -133343.78556872 -121705.30188112
C       -4.44781375       1.76648785       7.67997566       0.00000000       0.78822074      -0.06196639       4.20501205
C       -3.82946333       4.54288199       4.16199674       0.00000000    1192.68856785   -1388.86133745    -888.98158527
C       -0.42935353       3.42903771       1.71744029       0.00000000   -1013.19013016    -484.96542656    -159.01071273
C       -4.32694552       4.30583508       3.25048837       0.00000000    3493.72405849   -1597.64580669    -142.62971403
C       -3.73473278       7.41598503       4.77027258       0.00000000     -44.72956261   -1401.86772870    2423.82057634
C        2.86927653       5.37146265       2.95652398       0.00000000  119484.84827311 -135315.01645760 -305712.32639847
C        3.04758267       6.08216319       2.54156760       0.00000000  740885.94145557 -714750.49583990  102848.11431568
C        1.99116612       6.49701428       1.64866894       0.00000000   50862.67317349  -89199.95764567  -67210.90084028
C       -3.17773283       4.89847830       8.63373760       0.00000000       3.27770827      -8.99990781     -59.04386894
C       -0.94291258       2.14777188       0.85723899       0.00000000    -241.43318834    -245.27893023     -93.71984076
C        4.47458475       5.18761985       3.15933751       0.00000000 -259098.08210370  -12124.12723103 -168990.73955682
N        5.29686638       6.92204379       2.41386180       0.00000000 -100357.56514326   -6673.32061787   24810.81769715
C        3.67795453       8.24619981       1.92894974       0.00000000 -129855.68708520  -79455.33860377   69597.84466066
C       -5.27383004       4.00506517       5.99799522       0.00000000    1398.63322210   -1147.92983801    1000.67208938
C        7.65281984      -0.46364041       1.72419503       0.00000000    -205.83858106   -2355.25752403     782.26956860
C        3.42066301       5.45908108       1.76474215       0.00000000  -49067.12869227  301197.04864090  285941.58380757
C        4.62804880       5.53741381       2.41684346       0.00000000 -361582.90403760  109787.75313557  -33642.20556046
C        3.85924575       7.15731399       1.53383722       0.00000000  -27501.44951357 -229415.34747081   47288.59963123
C        4.57382525      15.92163723       3.66382683       0.00000000    -439.04285357    -272.53388421     -77.83990146
C        8.78016450       3.88702509       1.06679379       0.00000000     446.72841464    -132.59874632    -129.10939864
C        5.70408987       6.20019075       4.32134504       0.00000000  -30273.48356730   26695.66768816  -24051.30986581
C        3.44721767       4.88906314       1.57559788       0.00000000   27042.90570745  -59698.96077609   31453.68101576
C        8.04243719       6.61618579       4.54669544       0.00000000   11371.93283102  -11681.39970608   15719.73808470
C        8.25517123       8.95557556      -0.09017763       0.00000000     376.48614476     199.14356918    -135.44837192
Ru       3.29169808       7.10559186       3.01299314       0.00000000 -333659.88470546 -611696.85998669 -1079504.98120987
O        3.37607355       7.00976675       4.60463592       1.00000000 -165236.67340596  116877.39566889 -230245.51446864
O        3.29387909       7.12388917       3.55012445       1.00000000 1003540.07482556  -48102.26128599 2046486.31481057
