52
Lattice="12.336457 0.0 0.0 -6.168228499999997 10.683685154694365 0.0 0.0 0.0 15.0" Properties=species:S:1:pos:R:3:forces:R:3 energy=-448.55585277094303 free_energy=-448.55585277094303 stress="-0.005024815480886918 -0.0012616720762024833 1.5993519090184256e-05 -0.0012616720762024833 0.0014061115131824662 -1.2849799013539745e-05 1.5993519090184256e-05 -1.2849799013539745e-05 -2.6824400475254845e-05" pbc="T T T"
C        0.08812418       0.02559268       3.81530977      -0.00194356       0.00012712      -0.00606037
C       -1.15735770       2.15464411       3.80485082      -0.00730454      -0.01084264      -0.00132432
C       -2.36654195       4.29309567       3.88196719       0.00313531       0.00432321      -0.00906841
C       -3.57867027       6.43641586       3.93119310      -0.00404608      -0.00434373      -0.00445224
C       -4.82618614       8.59102844       3.89439564       0.00407475       0.00098108       0.00123134
C        2.55063498       0.04790354       3.75011291      -0.01171622      -0.00963936       0.00741529
C        1.27120023       2.16284090       3.65595266      -0.00101206      -0.00200283      -0.01338269
C        0.05333169       4.29340042       3.73258839      -0.00158383       0.00204421       0.00428132
C       -1.12656652       6.41726463       3.85997496       0.00448785       0.00410678      -0.00380237
C       -2.36494499       8.56983915       3.85307305       0.00161854       0.00555879      -0.00163617
C        5.02163447       0.01988012       3.71979277      -0.00203101       0.00166731      -0.00378991
C        3.77926344       2.12802605       3.42461137       0.00462043      -0.00636394      -0.00223460
O        1.25577965       6.43558608       3.71872075       0.00356967       0.01042438      -0.00439484
C        0.09021149       8.54204386       3.81462456      -0.00935468       0.00223624      -0.00511618
C        7.48579238      -0.00250813       3.77654242       0.00243721       0.00345140      -0.00014257
C        6.26158991       2.15522018       3.68010915       0.00285281      -0.00149865      -0.00734177
C        5.11621573       4.34008166       3.65048414      -0.00302654      -0.00210889       0.01546689
C        3.87159100       6.46395288       3.87418444       0.00410380      -0.00247563      -0.01177052
C        2.52261301       8.52388319       3.82116441      -0.00129496      -0.00065071      -0.00456031
C        9.94587674      -0.00228740       3.82320198       0.00715084      -0.00441274       0.00279148
C        8.72141317       2.14513827       3.82700305       0.00288608       0.00559901      -0.00661305
C        7.52247009       4.28991462       3.88454142      -0.00659239      -0.01323181      -0.00243792
C        6.33685401       6.46776940       3.91702927       0.00174721       0.00153540      -0.00469299
C        5.02742214       8.56867934       3.86957714       0.00484817       0.00058518      -0.00955081
C        0.07643769       1.45430919       3.76383547      -0.00198416      -0.00142884       0.00301066
C       -1.14647163       3.58087010       3.81333252      -0.00094292      -0.00736411       0.00670382
C       -2.35475058       5.70949782       3.90362534       0.00282123       0.00488864       0.00383739
C       -3.59757325       7.86604634       3.90380290       0.00570683       0.00139960       0.00247682
C       -4.84161269      10.01467823       3.83028528      -0.00946820      -0.00442321       0.00199900
C        2.52648216       1.47973994       3.60409299       0.00011526      -0.01113229       0.00084510
O        1.21180081       3.54210065       3.67056740       0.00117131       0.00337245       0.01878551
C        0.07676714       5.71091218       3.77201701       0.00764515       0.00589452      -0.00739743
C       -1.14009322       7.84564259       3.85022965      -0.00357602       0.00125557      -0.00041251
C       -2.38118761      10.00502094       3.77409282      -0.00491612       0.00322070       0.00422501
C        5.01430491       1.45112939       3.59628729       0.00403579      -0.00054303       0.00363003
S        3.77845388       3.73240492       2.70727083       0.00643210       0.01332939      -0.01323501
C        1.29233225       7.81318381       3.79803987      -0.00802887       0.00761777       0.00577195
C        0.09022543       9.97615610       3.77388329      -0.00243175       0.00175983       0.00297521
C        7.48679030       1.43190585       3.76508798       0.00384449       0.00513216       0.01264397
C        6.31258160       3.56029911       3.75570139      -0.00652373      -0.00769463       0.00230884
C        5.10511055       5.76614145       3.83202259       0.00722751       0.00174396       0.00243132
C        3.78395495       7.83913192       3.84973732       0.00139402      -0.00134086       0.00048807
C        2.54020496       9.95260556       3.81122146       0.00574651      -0.00091603      -0.00142125
C        9.95686087       1.43212860       3.82472017      -0.00550110      -0.00567095      -0.00246640
C        8.74086829       3.57117573       3.87684798       0.00355072       0.00242414       0.00955484
C        7.53799602       5.72429547       3.92925533      -0.00704439      -0.01325003       0.00048723
C        6.28237605       7.88138442       3.91057457       0.00568891       0.00444307       0.00242653
C        5.02145161       9.98741961       3.84118576       0.00642422      -0.00115079      -0.00225747
Ru       3.38887643       4.81685196       4.66699802      -0.00037570      -0.00011856       0.00146044
O        2.17258498       5.09940422       5.92554085       0.00125687       0.00262349       0.00052537
O        1.46143485       3.79525550       6.37241121      -0.00835774       0.00671831      -0.00024944
H        1.22800486       4.09855617       7.27976343      -0.00153700       0.00414055       0.01203813
