53
Lattice="12.336457 0.0 0.0 -6.168228499999997 10.683685154694365 0.0 0.0 0.0 15.0" Properties=species:S:1:pos:R:3:forces:R:3 energy=-465.1400920180516 free_energy=-465.1400920180516 stress="-0.0021530572497772517 0.005295231311395066 -5.557786999068762e-06 0.005295231311395066 -0.004626308880594845 -3.0922437635687434e-05 -5.557786999068762e-06 -3.0922437635687434e-05 -2.398598193540936e-05" pbc="T T T"
C        0.00248326      -0.03864475       3.82241221      -0.00546383      -0.00950907      -0.00287831
C       -1.19772816       2.12031887       3.85081297       0.00941620       0.00058313       0.00259377
C       -2.42371028       4.24600306       3.84467198      -0.00569837       0.00287435      -0.00489012
C       -3.69493672       6.36954568       3.80480277       0.00456156       0.00348258       0.00368277
C       -4.95070351       8.49866915       3.79641819      -0.00345871      -0.00257154       0.00462140
C        2.45971609      -0.04865415       3.76449775      -0.00067203       0.00048359      -0.00521273
C        1.25991853       2.11268615       3.81093523      -0.00674219       0.00684396       0.00592087
C        0.06161713       4.27927913       3.90622071      -0.00343578       0.00164317       0.00697783
C       -1.22137129       6.39386827       3.83977750       0.00413207       0.00274651       0.00713332
C       -2.48587840       8.50966924       3.77521682      -0.00223355       0.00185258      -0.00317254
C        4.93037876      -0.04233451       3.70418699       0.01010625       0.00237680      -0.00664259
C        3.71642264       2.05784982       3.64802420      -0.00318728      -0.00207340       0.00350540
C        2.56106753       4.21418649       3.84238722       0.00599787      -0.00659057       0.00027242
N        1.18636251       6.48846729       3.94665296      -0.01017334      -0.00478030      -0.00350501
C       -0.03974467       8.53174721       3.71368731      -0.00064039      -0.00169434       0.00840423
C        7.40512366      -0.03030873       3.72522126      -0.00263772       0.00470474      -0.00503256
C        6.19756332       2.07545806       3.67551670       0.00236704      -0.00029395      -0.00252020
C        4.98682180       4.15711416       3.55546116       0.00334036      -0.00066869      -0.01247851
P        3.57996159       6.26641437       2.64921675      -0.00012173      -0.00659765      -0.00186561
C        2.41967051       8.54133079       3.67275431       0.00090311      -0.00220150       0.00735981
C        9.88185262      -0.02523000       3.79556199      -0.00375173      -0.00045676       0.00436032
C        8.66756481       2.10265559       3.78587912       0.00496911      -0.00195358      -0.00727648
C        7.44283695       4.22327339       3.73495403      -0.00620938       0.00322467       0.00572823
C        6.17651487       6.35864265       3.72172545       0.00080921       0.00141874      -0.00763643
C        4.91867896       8.49206310       3.76800585       0.00367098      -0.00402519      -0.00064383
C        0.02462276       1.39805383       3.83469296       0.00208906      -0.00618992       0.00459525
C       -1.17581089       3.55395437       3.87300471      -0.00286693       0.00248533       0.00210989
C       -2.44553398       5.66873131       3.83436522       0.00629521       0.00532716       0.00365102
C       -3.71623676       7.79171585       3.79781884      -0.00382938       0.00149900       0.00277107
C       -4.94330902       9.92323855       3.80319217      -0.00314167      -0.00381291      -0.01001023
C        2.47373701       1.37236170       3.74055369      -0.00977488       0.00399471       0.00319266
C        1.29885526       3.56183450       3.85770509       0.00066396       0.00817621       0.01041518
C        0.04315037       5.72283963       3.90995577      -0.00517199      -0.00389444      -0.00058889
C       -1.25380658       7.80796779       3.77660469      -0.00150527       0.00099835      -0.00641574
C       -2.47726812       9.93031340       3.74293291       0.00662655       0.00341149      -0.00488967
C        4.95132433       1.36825985       3.66424918       0.00204340       0.00121857      -0.00523124
C        3.74721394       3.47191302       3.60651990       0.00620806      -0.00431026       0.00267049
C        1.18103454       7.83429710       3.71899670      -0.00232337      -0.00514682       0.00614488
C       -0.00662993       9.94528671       3.70538634       0.00557416      -0.00196803       0.00043341
C        7.42776833       1.38390238       3.73363129       0.00241018       0.00225110      -0.00337005
C        6.21894755       3.49033494       3.64439276      -0.00030925      -0.00133695       0.00412742
C        4.94238636       5.59158514       3.62324210      -0.00205662       0.00082465       0.00301473
C        3.63586975       7.77624908       3.70508326       0.00653621      -0.00216024      -0.00487751
C        2.46583407       9.94998724       3.73558679      -0.00641748       0.00227854       0.00242689
C        9.90046448       1.39848543       3.82010620       0.00954764       0.00015358      -0.01089428
C        8.67741384       3.52630314       3.79391739      -0.00693827      -0.00056522      -0.00224381
C        7.41104705       5.65318083       3.76482010       0.00213451       0.00478093      -0.00564557
C        6.14534639       7.77606008       3.76805690       0.00191016      -0.00238412      -0.00632203
C        4.93488202       9.92178003       3.81171108      -0.00631351      -0.00663214      -0.00071609
Ru       3.03601617       5.93726682       4.74191046      -0.00222985      -0.00026803       0.01080995
O        2.72781262       5.75778517       6.57360454       0.00246974       0.00002091      -0.00533562
O        3.15137114       7.01555883       7.26582857       0.00044935       0.00115790       0.01341959
H        3.04547089       6.69128710       8.18545064       0.00207256       0.01127236      -0.00004713
