53
Lattice="12.336457 0.0 0.0 -6.168228499999997 10.683685154694365 0.0 0.0 0.0 15.0" Properties=species:S:1:pos:R:3:forces:R:3 energy=-461.8831277541511 free_energy=-461.8831277541511 stress="-0.00010834067274013066 0.004278027853174362 -2.5035718272216715e-05 0.004278027853174362 -0.0035828700920732906 2.309581773262583e-05 -2.5035718272216715e-05 2.309581773262583e-05 1.15586739112456e-05" pbc="T T T"
C       -0.07709006       0.03769715       3.81975561      -0.00481006      -0.00531999      -0.00273325
C       -1.28151815       2.19668387       3.86107774      -0.00470432      -0.00443505       0.00300550
C       -2.50859516       4.31446507       3.86118945       0.00007255      -0.00239070       0.00652598
C       -3.78440250       6.43503898       3.82770566       0.00280598       0.00113351      -0.00657549
C       -5.02895351       8.56781904       3.79874911      -0.00961925       0.00372627      -0.00829082
C        2.37878310       0.01707708       3.77100103      -0.00253384       0.00223297       0.01629239
C        1.18164265       2.18718014       3.87117939      -0.00690380      -0.00168582       0.00104993
C       -0.00679139       4.36712451       3.93503493      -0.00286522       0.00281499      -0.00946768
C       -1.30392898       6.45121058       3.80882741       0.01226399       0.00178155      -0.01157591
C       -2.55835430       8.56871684       3.74444709      -0.00578270      -0.00248142       0.00524142
C        4.85060573       0.02044585       3.68899870       0.00147584       0.00241229       0.01178048
C        3.62252973       2.11996869       3.74162857       0.00770464       0.00172113      -0.00368512
N        2.48069032       4.22717319       4.01266142      -0.00301676       0.00195153      -0.00279940
O        1.09661553       6.53215235       3.81710832      -0.00285311      -0.00505387       0.00039950
C       -0.11170867       8.58548129       3.63183444       0.00165632       0.00318550       0.00674192
C        7.31739651       0.03714846       3.67679187      -0.00088382       0.00347447       0.00056849
C        6.10185838       2.14767646       3.73442543       0.00933764      -0.00340437      -0.00299030
C        4.87289856       4.22817804       3.73525894       0.00655857      -0.00238081      -0.00438253
P        3.59900421       6.35876046       2.63766587      -0.00168925       0.00276408      -0.01424886
C        2.32364332       8.60707565       3.60083279      -0.00411776       0.00722386      -0.00689901
C        9.79326929       0.04964514       3.75876292      -0.00216689       0.00389371       0.01032745
C        8.57621610       2.17408125       3.79037873      -0.00714251      -0.00343381      -0.00277332
C        7.34567571       4.29142545       3.81539070       0.00488497      -0.00349899       0.00157619
C        6.08331561       6.42873619       3.80699906      -0.00039759      -0.00410671       0.00510527
C        4.84549626       8.57956397       3.74971610       0.00382049       0.00483666       0.00115407
C       -0.05825012       1.47353158       3.85503942      -0.00676343      -0.00742918      -0.00035346
C       -1.25415917       3.62971600       3.89210792       0.00005012      -0.00228091      -0.00286580
C       -2.53892965       5.72974399       3.84101872       0.00968988       0.00114624      -0.00036134
C       -3.79762747       7.85743575       3.79753727      -0.01027330       0.00217968       0.00088285
C       -5.02526443       9.99202894       3.80011449      -0.00541326       0.00149277       0.00723717
C        2.38827602       1.43752391       3.79435645       0.00196110       0.00434805       0.00020674
C        1.24204760       3.61832460       3.95830170      -0.00839221       0.00272818      -0.00699390
C       -0.09191032       5.76805498       3.86800102       0.00831464       0.00290164       0.00556191
C       -1.33490555       7.87005658       3.71882023       0.00186767       0.00118913       0.00179399
C       -2.55656858       9.99432629       3.72637588      -0.00366500       0.00021926      -0.00830022
C        4.86252401       1.43618036       3.71313180       0.01022875       0.00159221      -0.00433628
C        3.62926219       3.52829523       3.77010081       0.00286930       0.00182241       0.00340139
C        1.09971206       7.91985683       3.60390183      -0.00318460      -0.00229477      -0.00686780
C       -0.08508254      10.00993118       3.64867658       0.00156995       0.00467913       0.01380815
C        7.33587804       1.45709218       3.73399295      -0.00000804      -0.00324842       0.00242520
C        6.11055991       3.56330954       3.76458945       0.00890070      -0.00469025      -0.00741748
C        4.83120158       5.67001344       3.79932067      -0.00732268      -0.00027965       0.00588857
C        3.57059074       7.87019515       3.67527310       0.00288175       0.00842270       0.00709679
C        2.37625384      10.02175134       3.67327906      -0.00214983       0.00692766       0.00952166
C        9.81310115       1.47276583       3.80570536      -0.00822746       0.00147947       0.00164257
C        8.58281513       3.59544114       3.82673829      -0.00155086      -0.00650315       0.01197250
C        7.31643535       5.72056192       3.83128828       0.00196126      -0.00204499      -0.00264518
C        6.06409849       7.84872009       3.78417122      -0.00063475      -0.00233499      -0.00252093
C        4.85435318      10.00525301       3.78690013      -0.00165501       0.00168669      -0.00144701
Ru       3.08046694       6.12557268       4.76726244       0.00040197      -0.00702488      -0.00974928
O        4.23853727       6.28983504       6.25217401       0.01487349      -0.00613646      -0.01105333
O        4.28383107       4.90322296       6.74269589      -0.00488434       0.00216818      -0.00266337
H        4.51912170       5.08601939       7.67930467       0.00746009      -0.00567676       0.00278897
