52
Lattice="12.336457 0.0 0.0 -6.168228499999997 10.683685154694365 0.0 0.0 0.0 15.0" Properties=species:S:1:pos:R:3:forces:R:3 energy=-453.4972712316279 free_energy=-453.4972712316279 stress="-0.005948423029825246 -0.0031854481314511768 -1.7243562373547886e-06 -0.0031854481314511768 0.004573529022636626 -3.5847860123837593e-06 -1.7243562373547886e-06 -3.5847860123837593e-06 -2.5211267627521798e-05" pbc="T T T"
C        0.04781405      -0.04239398       3.89902723      -0.00620599      -0.00509899       0.00305330
C       -1.21514871       2.06202087       3.89006673       0.00691422       0.00621496      -0.00803361
C       -2.42603487       4.21037081       3.80603589       0.00449935       0.00469721      -0.00157528
C       -3.62260556       6.37088047       3.76574762       0.01182030      -0.00185235       0.00709249
C       -4.85797535       8.52474202       3.83207593      -0.00972307      -0.00591777       0.00329846
C        2.51800442      -0.01853313       3.90681661       0.00372456       0.00168253      -0.00375888
C        1.24352384       2.13884538       3.96155363      -0.00054411      -0.00165028       0.00134117
C        0.00324441       4.19500069       3.96253914      -0.00204814      -0.00260083       0.00381154
C       -1.19232182       6.36039555       3.87579663       0.00730745      -0.00401497      -0.00776273
C       -2.40495404       8.51043608       3.87168464      -0.00277456      -0.00645704      -0.00238116
C        4.98662793      -0.05053609       3.75864228      -0.00060903       0.00362707      -0.00572233
C        3.71001110       2.06028115       3.53189969       0.00499148       0.01543323       0.00610000
N        1.20463954       6.30804213       3.96523271      -0.01653492       0.00626252      -0.00182171
C        0.06137416       8.45679223       3.84873004      -0.00712322       0.00170680      -0.00575107
C        7.45287452      -0.09397370       3.73717996      -0.00313829       0.00681956       0.01635704
C        6.21348855       2.07852504       3.53222947      -0.00570756       0.00247713      -0.00159270
C        5.10605096       4.31404859       3.25448952      -0.00657830      -0.00757687      -0.00533008
N        3.89646495       6.34653027       3.62835532       0.00597213       0.00373800      -0.01110255
C        2.52478482       8.39931626       3.81694494       0.00513293      -0.00125479       0.00173014
C        9.90366669      -0.09507213       3.81861225       0.00205957      -0.00901046      -0.00875703
C        8.67052497       2.06190899       3.72095972       0.01449495      -0.00900695      -0.00336816
C        7.48169170       4.22830182       3.58417402      -0.00067278      -0.00045555      -0.00183726
C        6.30322423       6.41282646       3.56550504      -0.01087889       0.00057766       0.00886786
C        5.00629466       8.48534514       3.76651361      -0.00349860       0.00444476       0.00723950
C        0.03126050       1.38587358       3.93507848      -0.00164146      -0.00266667       0.00460727
C       -1.21641724       3.48129286       3.88464259      -0.00052955       0.00586642       0.00414239
C       -2.41045699       5.64037243       3.82147830       0.01516459       0.00079395      -0.01205999
C       -3.62957403       7.79953856       3.83223557      -0.00356608      -0.00416128      -0.00531777
C       -4.87601543       9.94726629       3.90650430      -0.00305502      -0.00398357       0.00456249
C        2.49870621       1.41896936       3.85118249       0.00603804       0.00877508      -0.00200244
N        1.17206772       3.50892696       4.09489270      -0.00454399      -0.00276716       0.00626658
C        0.01973308       5.64041878       3.92464865      -0.00155948      -0.00695772      -0.01375113
C       -1.17921661       7.78190160       3.87237282      -0.00240709      -0.00630433       0.00453165
C       -2.41395846       9.94223875       3.86067602       0.00239363      -0.00285877      -0.00683469
C        4.97009346       1.38206241       3.59368979      -0.00218836       0.00506568       0.00071218
S        3.55655113       3.67511207       2.84253255       0.00814202       0.00606433       0.00300784
C        1.27815275       7.68774272       3.86900562      -0.00440359       0.00395519      -0.00346144
C        0.05452180       9.89014430       3.77930754      -0.00322143       0.00404808      -0.00278543
C        7.43596327       1.34851582       3.65656822       0.00059359       0.00529316       0.00837854
C        6.24864150       3.51638116       3.43675662      -0.00706756      -0.00344881      -0.00475787
C        5.09651304       5.71609504       3.41558075      -0.00381448      -0.00659003      -0.01034261
C        3.79205035       7.72332254       3.74899617       0.00804522       0.00085643       0.00193789
C        2.51247870       9.84492988       3.78993866      -0.00179488      -0.00094100       0.01222108
C        9.89482681       1.33904699       3.81638018       0.01546140      -0.00966821       0.00392228
C        8.68512326       3.49461035       3.70635085       0.00631368      -0.00302772      -0.00610517
C        7.50051436       5.65846930       3.62636572       0.00151836       0.00744317       0.01316271
C        6.26030036       7.81624361       3.72692402      -0.01472422       0.00226607       0.00375560
C        4.98418483       9.90600724       3.84061546      -0.00290082      -0.00278704      -0.00272735
Ru       2.69072138       4.94305782       4.46537788       0.00289797      -0.00180144      -0.00433251
O        2.80193655       5.63022519       6.21454095       0.00636477       0.00271035       0.00229742
O        1.42857110       5.84172055       6.75324135      -0.01578600      -0.00304173      -0.00536903
H        1.62348212       5.72337862       7.70750435       0.00939130       0.00508299       0.01624456
