52
Lattice="12.336457 0.0 0.0 -6.168228499999997 10.683685154694365 0.0 0.0 0.0 15.0" Properties=species:S:1:pos:R:3:forces:R:3 energy=-446.04661553866174 free_energy=-446.04661553866174 stress="-0.0017148575817141087 0.0005181243127394302 -3.609038492034941e-05 0.0005181243127394302 -0.004607222034021949 -3.344840801564099e-05 -3.609038492034941e-05 -3.344840801564099e-05 5.038905723002442e-05" pbc="T T T"
C        0.04214942      -0.06307379       3.74936756      -0.00203395       0.00434834      -0.00148679
C       -1.20061753       2.06075793       3.65305208       0.00293572       0.00028626      -0.00742562
C       -2.43637182       4.20486558       3.65777808       0.00067178      -0.01054378       0.00374404
C       -3.67448246       6.33847133       3.71983120      -0.01296480       0.00557336       0.00270791
C       -4.91429329       8.47046517       3.79419070      -0.00522058      -0.01319229      -0.00093301
C        2.49167008      -0.03230997       3.68441989      -0.00663827      -0.01451152      -0.00552114
C        1.23696785       2.06261733       3.62215186      -0.00309415       0.00018138       0.00566889
C        0.01789239       4.11183530       3.60097969      -0.00306710       0.00295995       0.00318373
C       -1.19984485       6.33286351       3.65093629       0.00007020       0.00119088      -0.00645810
C       -2.45464163       8.47812360       3.67597450       0.00277273       0.00536744      -0.00746671
C        4.94466144      -0.06641971       3.64066874       0.01009167      -0.00532153      -0.00540636
C        3.75552236       2.06534188       3.67423916      -0.00094649      -0.00053704       0.00109319
P        1.57479262       6.29271944       2.90004066      -0.00125024      -0.00378021      -0.01202887
C       -0.00564999       8.49402906       3.72143217      -0.00095862       0.00929355       0.00182445
C        7.41663701      -0.04443378       3.69456472       0.00295244       0.00596114       0.01383734
C        6.19513964       2.06191189       3.61865314       0.00539698      -0.00944270       0.01096159
C        4.99353346       4.12118243       3.83074958       0.00464652       0.00518770      -0.00338560
P        3.40408001       6.19128658       4.39230820      -0.00626860      -0.00225415       0.00059367
C        2.51337252       8.57861435       3.93368511      -0.00159228       0.00151108      -0.00350114
C        9.91120250      -0.04375981       3.76696260      -0.00222468       0.00750771       0.00721808
C        8.66610920       2.07559788       3.64228563      -0.00091120       0.00076652       0.01056768
C        7.43500983       4.20466498       3.69038048      -0.00278232       0.00290947      -0.00061301
C        6.17705178       6.30862050       3.89701337      -0.00380972      -0.00532062      -0.00225878
C        4.98053814       8.50116000       3.95810240       0.01561591      -0.00321122      -0.00542295
C        0.04171602       1.36340967       3.66728083       0.00006176       0.00330566       0.00531979
C       -1.19917773       3.47058409       3.63422445       0.00446310      -0.00321407       0.00156239
C       -2.42912166       5.62773662       3.67020993      -0.00786577      -0.00268787      -0.00506042
C       -3.67956840       7.76215826       3.72903203      -0.00090583       0.00379531      -0.00795400
C       -4.90000828       9.91128573       3.74678918      -0.01236507      -0.01473379       0.00145081
C        2.49614045       1.41013860       3.65367860      -0.00102559      -0.00866009       0.00106022
O        1.19312554       3.42933881       3.55773367      -0.01384081      -0.00137405       0.00961418
C        0.05250815       5.55033844       3.67128270       0.01478664       0.00365386       0.00715761
C       -1.21042129       7.75873101       3.66255942       0.00085826       0.00626277      -0.00039548
C       -2.45378034       9.91168655       3.66627139       0.00558900      -0.00056708      -0.00446101
C        4.94985078       1.36156283       3.62384130       0.00264069      -0.00588211       0.00131824
O        3.80010698       3.42757807       3.82220667      -0.00351579       0.00766253       0.00590622
C        1.27046932       7.80743350       3.89255960      -0.00840405      -0.00016532      -0.00472311
C        0.01278385       9.90934101       3.68267468       0.00937865       0.00504428       0.00161944
C        7.42254010       1.36661531       3.63288633       0.00542699      -0.00112436       0.00808331
C        6.20628228       3.46823254       3.67806187       0.00275859      -0.00668963       0.00573642
C        4.97927086       5.51286431       4.00017423      -0.00082141       0.00581782      -0.01284487
C        3.71364512       7.88146673       4.08166677       0.00715368       0.00447772       0.00015342
C        2.49457934       9.96443336       3.79620896      -0.00295174       0.00549231       0.00516409
C        9.90779761       1.36832687       3.67769025      -0.00011194       0.00654809       0.00265867
C        8.66979630       3.49645910       3.64949306      -0.00264388      -0.00227792       0.00616828
C        7.42526590       5.62155097       3.76439173      -0.01239250       0.00268741       0.00347697
C        6.19097340       7.75176299       3.90243139       0.00591785      -0.01495014       0.00393770
C        4.97505188       9.92116376       3.82897519       0.00323346       0.00405016      -0.00588338
Ru       1.29882207       6.16381807       5.20463702      -0.00199465       0.00547441      -0.00256367
O        0.97575746       6.01399992       6.94978371       0.00276370       0.00207826      -0.01280644
O        1.89161077       6.98805552       7.71397968      -0.00530957       0.00853779      -0.01190765
H        1.57686817       6.73586122       8.61061350       0.01772528       0.00250829      -0.00128025
