52
Lattice="12.336457 0.0 0.0 -6.168228499999997 10.683685154694365 0.0 0.0 0.0 15.0" Properties=species:S:1:pos:R:3:forces:R:3 energy=-443.9387282574172 free_energy=-443.9387282574172 stress="0.0004934197404887259 0.008128182971158108 -4.7121995742275655e-06 0.008128182971158108 0.0013645534147784589 6.0188638218961685e-06 -4.7121995742275655e-06 6.0188638218961685e-06 -2.3035337916127943e-05" pbc="T T T"
C        0.01166340       0.03363931       3.71458913      -0.00250176       0.00060499      -0.00030838
C       -1.15721265       2.18977149       3.88983085       0.00127948      -0.00098889      -0.00332421
C       -2.44193393       4.31772444       4.08102934      -0.00115467      -0.00472884       0.00990494
C       -3.73479793       6.43412498       3.98559468       0.00474460      -0.00083709       0.00591579
C       -4.96717486       8.55395161       3.77897346      -0.00313889       0.01050652      -0.00579696
C        2.48155672       0.02924751       3.72178849       0.00913500      -0.01090398       0.00204682
C        1.29372010       2.15248399       3.22414398       0.00271843      -0.00366532       0.00799061
C       -0.01778538       4.42962145       4.15745089       0.00480571      -0.00819586       0.00021433
C       -1.29986869       6.49279832       4.27157349       0.00755358       0.00943018       0.00030565
C       -2.50084207       8.58695271       4.04248670      -0.00676784       0.00098675       0.00084576
C        4.94899462       0.00973691       3.96962038      -0.00100699       0.00653127       0.00163882
C        3.81018308       2.06981282       3.52214498      -0.00710681      -0.00613690      -0.00181741
O        1.11643828       6.52854827       4.41128121      -0.00144944      -0.00130463      -0.00236752
C       -0.02908482       8.58350969       4.20781147      -0.00343818       0.00260197       0.00366912
C        7.43326790       0.00206658       4.08672225      -0.00520321       0.00410479      -0.00391896
C        6.23874684       2.11694726       3.89009953      -0.00003350      -0.00019886      -0.00741679
C        5.05321497       4.18244127       3.50687588       0.00280056       0.00238282      -0.00430672
P        3.41083843       6.21854286       2.93942251       0.01025866       0.01477906      -0.00868637
C        2.43714593       8.53698282       3.99401745       0.00249554      -0.00350471       0.00062587
C        9.89835953       0.01527563       3.94403769       0.00159623       0.00518677      -0.00076416
C        8.69901838       2.15280810       4.01834929       0.00641857       0.00067016      -0.00135337
C        7.44270245       4.27640825       3.89662147      -0.00698509      -0.00054511       0.00139648
C        6.14452821       6.37810720       3.65572823      -0.00068815       0.00497667      -0.00399890
C        4.89476192       8.53369879       3.69313423       0.00356003       0.00093557       0.00340370
C        0.04567577       1.47654187       3.65973250      -0.00513587      -0.00741801      -0.00649315
C       -1.17588292       3.63144799       4.04817595      -0.00001828      -0.00429713       0.00182526
C       -2.49950987       5.73787140       4.13134588       0.01147028      -0.00106252      -0.00286625
C       -3.73727559       7.85969454       3.93822376      -0.00699651       0.00268505       0.00176127
C       -4.93557716       9.98745147       3.72154323       0.00460797       0.00516889       0.00059787
C        2.54577983       1.44107898       3.50309017      -0.00234740      -0.01651595       0.00102448
S        1.21547516       3.21868148       1.78095040      -0.00577232      -0.01121425      -0.00338615
C       -0.08049687       5.82833233       4.31082061       0.00223799       0.00022129      -0.00006091
C       -1.28384459       7.89873937       4.21259901      -0.00439569       0.01121857       0.00594546
C       -2.47085215      10.00744350       3.92140735       0.00916293      -0.00594994      -0.00611754
C        4.99970968       1.41430638       3.81224390      -0.00501506       0.00357986       0.01160493
O        3.91000802       3.42314192       3.23020394       0.00021142      -0.00311346       0.00526658
C        1.17335218       7.88471692       4.18128642      -0.00198505      -0.00119896       0.00429921
C        0.01156479       9.99556799       4.10783372      -0.00709225       0.00180280       0.00142187
C        7.45715327       1.42886164       4.02026874       0.00443323       0.00383787      -0.00327721
C        6.24128903       3.52284064       3.78551465      -0.00287449       0.00018246      -0.00534690
C        4.96388173       5.57623538       3.44681714       0.00065766       0.00483117      -0.00683309
C        3.63350027       7.83755614       3.66029888       0.00680843       0.00117748      -0.00417885
C        2.48561953       9.96990441       4.04783279      -0.00234649       0.00114451       0.00481236
C        9.93341459       1.45238424       3.97613130       0.00551732       0.00548735      -0.00514361
C        8.68281265       3.58062505       4.00693370      -0.00589563      -0.00223266       0.00438703
C        7.38931444       5.69755991       3.84642874      -0.00313099       0.00004350       0.00563521
C        6.13204427       7.81637170       3.68064122      -0.00069089       0.00608013       0.00255817
C        4.94039814       9.98139848       3.79772948      -0.00268078       0.00183015      -0.00443722
Ru       1.82127462       4.24320290       3.63161903      -0.01023393      -0.00521213      -0.00161840
O        2.69226971       4.26986558       5.34726440       0.00524597      -0.00289682      -0.00701182
O        1.88202327       4.91983922       6.39947750      -0.00173187      -0.00393558       0.00260793
H        2.04707589       4.30390112       7.14743036       0.00009846      -0.00693097       0.00912531
