51
Lattice="12.336457 0.0 0.0 -6.168228499999997 10.683685154694365 0.0 0.0 0.0 15.0" Properties=species:S:1:pos:R:3:initial_magmoms:R:1:forces:R:3 energy=-1384958.2971637785 free_energy=-1384958.2971637785 stress="266.2262256768742 1239.2854806771036 -321.926435834717 1239.2854806771036 991.7930224158499 -66.7989179425878 -321.926435834717 -66.7989179425878 1931.2241964878976" pbc="T T T"
C       -0.79842551      -0.83465841       4.59733535       0.00000000     551.76686250     879.88847467     156.47452394
C       -0.22059597      -0.84606848      -2.23966791       0.00000000      -1.37112720       2.06660358      -1.07484320
C       -7.58712076      11.77519528      -2.04668500       0.00000000       1.97903403      -2.67097065      -2.33983344
C        1.94709814       8.40636082       2.16339988       0.00000000    -153.92602559    1748.17222310   -1020.99962504
C       -8.63811523       8.52267146       5.80026165       0.00000000     221.28783164    2056.30884294     576.98789799
C        1.36910302      -5.86454523       9.66594546       0.00000000     117.10118660      35.98830733      49.92390591
C       -0.26332123      -1.20969353       3.08466888       0.00000000     -23.29672370     -27.47746054     150.81901673
C       -3.15894036       7.76568343      12.85406783       0.00000000       0.33814190       0.07292237      -0.29594068
C        3.26997109       9.88262576       0.77600864       0.00000000     280.71448271     153.67994353    -278.47058147
C       -6.65095573       9.33412433       4.78363936       0.00000000     420.62371921    -383.75922351       3.87303523
C        3.22504813       3.45470958       7.87748996       0.00000000   73065.46876313  -46473.53366867   79138.00524426
C       -2.25211874      -7.68105770      -4.10314449       0.00000000    -353.84743796      40.26907797    -274.01402892
O        1.73524951       5.89473762       6.95132954       0.00000000  -96953.38379143  206476.00312736  -22423.34249423
C       -2.37296312       6.14005921       2.24138019       0.00000000     182.38838431    -103.05730147     206.83726778
C        8.50953173      -0.68141536       3.28668198       0.00000000      -8.71457762     -16.88393740     -72.11538240
C       14.70197032       1.24360895      11.40107124       0.00000000     -58.33458008     -17.43807596     -74.65123137
C        2.43992649       4.03677732       4.98340114       0.00000000 -3916232.35590321 -9193294.36526341 -4027898.77637468
P        2.36073214       3.80495347       4.62421522       0.00000000 3669643.72705606 7281882.34008040 5369235.50159220
C        1.10802665       4.04844704       6.20279564       0.00000000 -8124906.53426065 -1429811.01725082 3936849.47838303
C       13.42138887      -0.68962256       4.77671322       0.00000000   -1957.33708319   -2628.75651578    -147.22094086
C       12.25166954       1.67880255       6.90778940       0.00000000   25858.69692425   67410.27972283  -12346.30767322
C        5.78373855       3.73285256       1.71973120       0.00000000    4047.46524052     569.04556902   -3569.74623371
C       11.98081476      12.66280110      12.99143338       0.00000000       8.40150684      -8.75040959      -1.48891567
C        7.27036005      10.48151641       8.24172311       0.00000000    -331.54839608     -64.49830881     611.70772374
C        3.44065078      -2.55559468      -6.23434267       0.00000000      -0.82975379     -21.51123124       7.23976510
C      -13.42049911       2.90025440      -4.07068590       0.00000000     280.81462800      52.01267433     128.11089453
C       -8.36386373       3.92899567       4.47210487       0.00000000   69065.35275752  138798.06855198  127912.52534534
C       -3.63608606      11.94286430       2.01028541       0.00000000     282.87357694   -9477.50277725  -10010.01548482
C       -8.74232779       6.75486892       7.93142730       0.00000000     -81.90754677    2509.93296106     696.74117513
C        2.55449137      -1.31935284       0.67688114       0.00000000    -670.14260631   -3532.87274184    1850.87268601
P        9.28729717      12.53905473      -6.77039991       0.00000000   -1678.09413375   17837.06569892   -4797.99902865
C        4.02801365      17.77316705       0.94468183       0.00000000      -0.12521712       1.84802321       8.51074946
C        1.59161734       9.86101717       2.02234684       0.00000000       9.65415038     113.53505638     -15.37838988
C       -0.10955161       7.91010074       2.01659111       0.00000000    -760.24036474    1205.66047290    -895.60950365
C        2.48549804       4.39801546      -0.50450074       0.00000000       1.31591476      50.94362905   -1426.33879353
O        2.17630548       3.75132114       6.20833946       0.00000000 1904213.41753454 1002135.99158972 -2734143.69416050
C       -0.38572276       8.16262731      -0.82656850       0.00000000      -0.07892168      -0.41784492       1.96873357
C        4.88511225       9.89931229       1.42473234       0.00000000      -9.73793675      -1.20329916      -8.02824221
C        9.02042503      -1.04632398       1.22660161       0.00000000    -330.63704885    -186.68080572     349.24305135
C        0.86955989      -0.25736214      -2.82858931       0.00000000      -2.70814740      -0.11690551       2.35216826
C        0.22940371       5.67525887       9.73209895       0.00000000   -1025.14052171      51.38112360     169.32176986
C        8.81921598       9.85320470       0.41054291       0.00000000     681.67982098    3325.11327058   -1986.36577043
C       -0.16145222      16.83644029       6.95516243       0.00000000    3297.71451928    2127.43916937     191.34248401
C       16.63449888       0.10003099       5.97041807       0.00000000    1973.51284237   -4080.46604048    1475.49348189
C        5.40376574       3.06949918       1.75768870       0.00000000    2824.68194173   -1964.93515688   -3536.27443563
C       10.60911630       4.53034068       6.52452071       0.00000000   37012.44184474   -4023.04239918     917.53339672
C        8.31774752       1.91029148       4.14131135       0.00000000     -12.39790113     -60.17771296     -25.34736331
C        2.60800161       7.92127254      13.42298803       0.00000000       0.43062115       0.71847451      -0.42275239
Ru       0.71728861       3.90863174       6.44051073       0.00000000 5849550.98521033 2022537.27704184 -3772378.74361174
O        5.38356394       5.73912125       7.62445691       1.00000000    9635.59858448    4489.42774909    7486.51087327
O        1.30384331       4.12656708       6.83698229       1.00000000  492322.25692582  -60309.39507987 1069157.68647032
