51
Lattice="12.336457 0.0 0.0 -6.168228499999997 10.683685154694365 0.0 0.0 0.0 15.0" Properties=species:S:1:pos:R:3:initial_magmoms:R:1:forces:R:3 energy=-440.3522816505203 free_energy=-440.3522816505203 stress="0.0013259842314156584 -0.00018527194874281078 1.9321162103336868e-05 -0.00018527194874281078 0.0038534673522755566 8.660192219761475e-05 1.9321162103336868e-05 8.660192219761475e-05 -3.8040831004444605e-06" pbc="T T T"
C        0.08651781       0.04074409       3.67464792       0.00000000       0.00903484      -0.02055130      -0.00195613
C       -1.15098136       2.16305167       3.53732706       0.00000000      -0.02917997      -0.00504204      -0.04163240
C       -2.38236753       4.28863914       3.43842252       0.00000000       0.00403624       0.00398769       0.02046964
C       -3.61568832       6.42581915       3.53821062       0.00000000       0.02008759       0.00418754       0.00032983
C       -4.84752124       8.58021453       3.67916864       0.00000000      -0.01931190       0.01456477      -0.00852729
C        2.54214805       0.04577983       3.71402265       0.00000000       0.02573723      -0.00376074      -0.02098984
C        1.28921081       2.19288601       3.73467450       0.00000000      -0.02027295      -0.00289126      -0.02604340
C        0.06410978       4.29301495       3.41542997       0.00000000      -0.01446118      -0.01218238      -0.01819872
C       -1.14410096       6.41105386       3.42690376       0.00000000       0.00525771       0.01066269       0.00528583
C       -2.38067723       8.55960039       3.55692139       0.00000000      -0.01550267       0.00496621       0.02297986
C        5.02108461      -0.00113868       3.71927307       0.00000000      -0.01316300       0.01538910       0.01088037
C        3.78050689       2.08470583       4.19050344       0.00000000      -0.02173440       0.00152046      -0.01153068
O        1.25258772       6.42087963       3.57508802       0.00000000      -0.01202645       0.00792818      -0.02772137
C        0.08565861       8.52344456       3.59829770       0.00000000       0.01101429       0.00335753       0.01857318
C        7.48610933      -0.01578360       3.65217278       0.00000000      -0.01401022       0.02642426      -0.04540459
C        6.26595717       2.12479685       3.85866206       0.00000000       0.00479280      -0.02911767      -0.02278144
C        5.12846576       4.26778064       4.33424456       0.00000000       0.00285275       0.00393779       0.02496076
P        3.89094962       6.58543434       5.35717325       0.00000000      -0.00315987      -0.00880631      -0.00111161
C        2.52419561       8.51574762       3.82602174       0.00000000       0.02845897       0.02586102       0.00421922
C        9.94332021       0.00393740       3.63867554       0.00000000       0.01249985       0.01100358      -0.00068761
C        8.71404508       2.14242765       3.57088830       0.00000000       0.01610290       0.00584938      -0.01011665
C        7.49778962       4.28297361       3.68239665       0.00000000       0.01216336      -0.02292008       0.01141095
C        6.30729115       6.45982782       3.92521498       0.00000000      -0.00767920       0.00694575       0.00230603
C        5.01875792       8.58336253       3.90234819       0.00000000       0.00135659      -0.00741880       0.01850699
C        0.08847458       1.47677955       3.64207498       0.00000000      -0.02559566      -0.00837641       0.00964007
C       -1.14419281       3.58409669       3.44034384       0.00000000      -0.01365334      -0.00437542      -0.03475949
C       -2.38307316       5.70572843       3.43520598       0.00000000       0.02906596      -0.00171151       0.02897034
C       -3.61991867       7.85469265       3.57799833       0.00000000      -0.01762199       0.01001896      -0.01358148
C       -4.85073932      10.01370873       3.67543321       0.00000000       0.02667430       0.00077094      -0.00399561
C        2.52747818       1.48006036       3.88635710       0.00000000      -0.01390726      -0.00879451      -0.04680744
O        1.25827716       3.57213411       3.56017696       0.00000000       0.02051876       0.01063880      -0.00330575
C        0.06237400       5.70179576       3.41836044       0.00000000      -0.01598144      -0.01187088      -0.01203292
C       -1.15323365       7.83473282       3.51572948       0.00000000      -0.00313927       0.01748748      -0.03088509
C       -2.39195307       9.99418763       3.65755259       0.00000000       0.00891186      -0.00158227       0.02327513
C        5.02090574       1.41383520       3.93314384       0.00000000      -0.01412725       0.00657572      -0.00171179
P        3.89755595       3.43593864       5.38210572       0.00000000      -0.01088709      -0.01681048      -0.02406096
C        1.28631823       7.80702583       3.68668506       0.00000000       0.02258179       0.00839504       0.01023681
C        0.08731131       9.95921737       3.65056618       0.00000000      -0.01924877       0.01050537       0.01630585
C        7.48576415       1.41842303       3.67010605       0.00000000       0.02508295       0.00540147       0.01406256
C        6.30514728       3.54138461       3.92727987       0.00000000       0.01415587      -0.03382161       0.02916085
C        5.12968691       5.73609124       4.32920419       0.00000000      -0.01617184       0.00524574       0.03919440
C        3.77497392       7.90851775       4.13858902       0.00000000       0.01344225      -0.00053565      -0.01335884
C        2.54077690       9.95055274       3.66873888       0.00000000       0.00273632       0.03646127       0.01105080
C        9.95541476       1.43795051       3.55261822       0.00000000      -0.00861253       0.01401035       0.04362242
C        8.71873767       3.57103903       3.53706691       0.00000000       0.01651481      -0.00589895       0.01146676
C        7.49890782       5.71652994       3.68221964       0.00000000       0.00963184      -0.00648116       0.02073933
C        6.26652933       7.87566047       3.84821032       0.00000000      -0.01495752       0.00578006      -0.00580114
C        5.01990610      10.00007280       3.70883310       0.00000000       0.00374426      -0.01366450       0.01393063
Ru       3.28784286       5.00324039       3.98780502       0.00000000      -0.00132902      -0.00138000       0.00996044
O        0.81568203       5.09706564       6.07361839       1.00000000      -0.03390519      -0.05922861      -0.01219023
O        0.34722505       3.95119578       6.09617513       1.00000000       0.03318390       0.00934537       0.01765341
