52
Lattice="12.336457 0.0 0.0 -6.168228499999997 10.683685154694365 0.0 0.0 0.0 15.0" Properties=species:S:1:pos:R:3:forces:R:3 energy=-443.66763675756965 free_energy=-443.66763675756965 stress="0.001456567075651498 -7.231247961345984e-07 4.212554570768958e-06 -7.231247961345984e-07 0.0024447598747370735 9.548441893821845e-07 4.212554570768958e-06 9.548441893821845e-07 1.3014411300615391e-06" pbc="T T T"
C       -0.03036644       0.00968094       3.64749501      -0.00222677      -0.00353713      -0.00279611
C       -1.26466619       2.14322725       3.55483658      -0.00101967      -0.00136620       0.00636852
C       -2.48487663       4.27394658       3.56879729      -0.00635607       0.00181385       0.00250465
C       -3.72503725       6.40512226       3.64769185       0.00127324       0.00183543      -0.00823338
C       -4.96727647       8.55394443       3.70452874       0.00717836      -0.00001441       0.01182765
C        2.42375946       0.01591897       3.66070752       0.00410251       0.00074282       0.01012107
C        1.17550111       2.16005559       3.64688435       0.00476841      -0.00283197       0.00414468
C       -0.03982476       4.27768595       3.49988691       0.00189078      -0.00623727       0.00866096
C       -1.25029892       6.39230243       3.52665054       0.00153332       0.00609692       0.00266717
C       -2.49554161       8.53741192       3.59029616      -0.00867467       0.00355190      -0.00237673
C        4.90132515      -0.01372498       3.71023819       0.00173505       0.00346424       0.00489416
C        3.64685310       2.07269795       4.12297561      -0.00500932       0.00598091      -0.00347204
O        1.14588666       6.42484712       3.48468085       0.01230668      -0.00706435      -0.00231824
C       -0.03013532       8.51727047       3.59211549      -0.00284699       0.00421311      -0.00199855
C        7.36791444      -0.02180985       3.64883406      -0.00216790      -0.00668986       0.00736762
C        6.14466228       2.10833224       3.88384997      -0.00118589      -0.00657884      -0.00540043
C        4.99142762       4.25169386       4.31489507       0.01127098       0.00256900       0.00337579
P        3.63994586       6.50575556       5.25531887      -0.00162068       0.00473389       0.01316164
C        2.40774261       8.51439438       3.79179254      -0.00170890       0.00698668      -0.00487829
C        9.83000879      -0.01078568       3.64475931      -0.01008317       0.00308692       0.00743952
C        8.60165403       2.12977475       3.63722352      -0.00842535      -0.00443544       0.00301774
C        7.38676545       4.26356617       3.78322229       0.00061204       0.00406044       0.00181963
C        6.18691509       6.44128198       3.97377870       0.00649547       0.00050346      -0.00242576
C        4.89675606       8.56027393       3.91613609       0.00334342      -0.00203895      -0.00406191
C       -0.02975361       1.44452033       3.59243936       0.00236581      -0.00242767       0.00346121
C       -1.24953694       3.56917246       3.52738258      -0.00556630      -0.00186844      -0.00326691
C       -2.48543925       5.68721149       3.56931273      -0.00080245       0.00540159      -0.00604680
C       -3.73582434       7.83164822       3.63710850      -0.00187204      -0.00171588      -0.00560461
C       -4.96913009       9.98355908       3.65265996       0.00350435      -0.00058024      -0.01318774
C        2.40775379       1.44698966       3.79374901       0.00243005       0.00106509      -0.00566311
O        1.14629950       3.53720246       3.47730660       0.00805608      -0.00390547       0.01041993
C       -0.04030148       5.68441634       3.50180989       0.00261256      -0.00469376       0.00114434
C       -1.26504711       7.81815329       3.55301862      -0.00741257       0.00852417       0.01295268
C       -2.50729737       9.97181696       3.64562457       0.00237475       0.00250706       0.00199424
C        4.89723515       1.40048276       3.91842818      -0.00428436       0.00356156      -0.00603745
P        3.63809502       3.45837681       5.25393947       0.00318553      -0.00617243       0.00196501
C        1.17520692       7.80236022       3.64850454       0.00014096      -0.00037626       0.00010387
C       -0.03040680       9.95211611       3.64542774       0.00003451       0.00291500      -0.00609205
C        7.37025283       1.40772096       3.70603860      -0.00450290      -0.01183574      -0.00426161
C        6.18705805       3.51964217       3.97589706       0.00270599      -0.00166135      -0.01010494
C        4.99316187       5.70928666       4.31635994      -0.00144353       0.00828001      -0.00227253
C        3.64640530       7.88687016       4.11900464      -0.00052511       0.00395363      -0.00364326
C        2.42439634       9.94536467       3.65764983      -0.00514475       0.00276793       0.01207493
C        9.84161014       1.42368789       3.59185131      -0.00659163       0.00027478      -0.01173112
C        8.61215356       3.55602377       3.64743669      -0.00628236      -0.00099046      -0.00333979
C        7.38647477       5.69695726       3.78237608       0.00518033       0.00337630       0.00286131
C        6.14379595       7.85285538       3.88127111       0.00863022      -0.00245855      -0.00495122
C        4.90179468       9.97486023       3.71120317      -0.00797445      -0.00020341      -0.00445777
Ru       3.21586594       4.98490869       3.71516850       0.01189460      -0.00815955      -0.00231615
O        4.07277225       4.98218838       6.93603154      -0.00336466      -0.00681690       0.00150296
O        3.16277628       4.97683970       8.09773985      -0.00647551       0.00271916      -0.01324652
H        3.83152348       4.98190941       8.80975394       0.00394197      -0.00032534       0.00833380
