52
Lattice="12.336457 0.0 0.0 -6.168228499999997 10.683685154694365 0.0 0.0 0.0 15.0" Properties=species:S:1:pos:R:3:forces:R:3 energy=-444.62945929286434 free_energy=-444.62945929286434 stress="-0.002830984279491226 0.007784923002629649 1.7257384819298542e-05 0.007784923002629649 -0.002029234381989929 -4.522630815408207e-05 1.7257384819298542e-05 -4.522630815408207e-05 2.9997513413771622e-06" pbc="T T T"
C        0.01671905      -0.03385932       3.66831869       0.00445614      -0.00447729       0.00307947
C       -1.16294087       2.14111255       3.77772174      -0.00377969       0.00057956       0.00419082
C       -2.40098627       4.26102168       3.95508474      -0.00311011       0.00711016       0.00006620
C       -3.70839219       6.38327679       3.89107557      -0.00636780      -0.01094821      -0.00770189
C       -4.95270857       8.50418825       3.73037933       0.00370822      -0.00327832      -0.01121236
C        2.48522312      -0.02391966       3.68931947      -0.00176294      -0.00188127       0.00242286
C        1.28866416       2.08129777       3.33893601       0.00696493      -0.00558604       0.00916145
C        0.07633999       4.39145862       3.81447376       0.00057951       0.00159814      -0.01357157
C       -1.28456821       6.44751644       4.07468233       0.00023647      -0.00020335      -0.00073323
C       -2.49018783       8.54072000       3.95729942      -0.01055030       0.00040668       0.00870379
C        4.95021132      -0.02864474       3.89540506       0.00006998       0.00481365       0.00350794
C        3.79313900       2.04817947       3.57241882      -0.00277144      -0.00073032      -0.00226034
O        1.05741679       6.49860370       4.38510763       0.01565019      -0.00324171      -0.01047061
C       -0.02912304       8.54947801       4.11186812      -0.00081471      -0.00107266      -0.00666150
C        7.43853984      -0.04209880       4.01573300       0.00140821       0.00495221      -0.00271043
C        6.24879493       2.06518965       3.81601201      -0.00634938       0.01219454       0.00688973
C        5.08901941       4.14750698       3.48956688       0.00088060      -0.00099201       0.01190649
P        3.41143549       6.14229483       3.02207781      -0.00403487       0.00017019      -0.01252325
C        2.44490986       8.49416862       3.96216621       0.00090423       0.00183059       0.00478721
C        9.90383731      -0.03391894       3.88076976       0.00338036      -0.00717851       0.00352259
C        8.70766028       2.10425359       3.93655943      -0.00295568      -0.00340054      -0.00837119
C        7.47468980       4.22723221       3.80772950       0.00889180      -0.00664459      -0.00006815
C        6.18438807       6.33854131       3.58501134       0.00804705      -0.00054971       0.00769674
C        4.90805243       8.48216670       3.66427592      -0.00458141      -0.00275537       0.00702416
C        0.05244411       1.40748897       3.59240458       0.00403615      -0.00175670       0.00180771
C       -1.15748077       3.57056447       3.88130875      -0.00617788       0.00471030      -0.00502906
C       -2.47714316       5.68607403       3.98751884      -0.00438420       0.00416618       0.00712963
C       -3.72080595       7.81013727       3.86454293      -0.00403274      -0.01174180      -0.00986690
C       -4.92653903       9.93693709       3.68769864       0.00264511      -0.00300088      -0.00329073
C        2.52806766       1.40301696       3.51456811       0.00315500      -0.01007303      -0.01465793
P        1.23879216       3.72081562       2.53399158       0.00080762       0.01090523       0.01438012
C       -0.07437346       5.78824648       4.03227969       0.00409383      -0.00161945       0.00775695
C       -1.27481930       7.85752391       4.09081821      -0.00608885       0.00078603      -0.01249224
C       -2.46710548       9.96301919       3.85697182      -0.00248201       0.00340381       0.00569361
C        4.99503700       1.37822347       3.76196327      -0.00239684       0.00776025      -0.00267177
O        3.87476960       3.43795186       3.49902151      -0.00778974      -0.00051136       0.00450086
C        1.17232888       7.85538640       4.12030854       0.00415823       0.00183308      -0.00045245
C        0.01231692       9.95971361       4.02635698       0.00193635       0.00023734      -0.00418328
C        7.46518828       1.37973847       3.94358369      -0.00806697       0.00610124      -0.00378630
C        6.27365068       3.46911435       3.70448370       0.00826651       0.00434100      -0.00382309
C        5.01713774       5.53455264       3.39788943       0.00680484      -0.00242924       0.00693560
C        3.64844959       7.79644040       3.66411218      -0.00572847      -0.00311271      -0.00656521
C        2.49286064       9.92809322       3.99312950       0.00127733       0.00089724      -0.00789165
C        9.93821964       1.40355018       3.88742904      -0.00216504      -0.00675416       0.00815112
C        8.70908022       3.52987670       3.91752016       0.00591704      -0.00330534      -0.00422029
C        7.41971716       5.64826073       3.76344319       0.00243129      -0.01096293      -0.00884030
C        6.15179470       7.77167272       3.63315876       0.00094122       0.00167949       0.01380885
C        4.94807152       9.92715577       3.74716128       0.00347504      -0.00551705       0.01350594
Ru       2.25524021       4.59093370       4.24038448       0.00160141       0.00450869      -0.00116866
O        2.84295006       5.16209392       6.04985869      -0.00071955       0.00996167      -0.00337279
O        1.60947084       5.44066961       6.82427053      -0.00443762       0.00341386       0.01431159
H        1.85619660       4.98444293       7.65632691      -0.00517642       0.01536341      -0.00234428
