52
Lattice="12.336457 0.0 0.0 -6.168228499999997 10.683685154694365 0.0 0.0 0.0 15.0" Properties=species:S:1:pos:R:3:forces:R:3 energy=-444.8038983071056 free_energy=-444.8038983071056 stress="0.0008378918954430157 0.0013166787397054331 2.599642554232136e-05 0.0013166787397054331 0.0014939743565124894 3.0496278865596316e-05 2.599642554232136e-05 3.0496278865596316e-05 6.9319214820035544e-06" pbc="T T T"
C        0.05568842       0.03830378       3.93864518       0.00487717      -0.00501276       0.00017620
C       -1.18399020       2.16450198       4.04392539      -0.01061178       0.00873820       0.00036238
C       -2.42028199       4.30639608       4.02310758       0.00402890       0.00331683       0.00113013
C       -3.66481385       6.43717354       3.94078595       0.00376568       0.00592617       0.00406816
C       -4.89795575       8.57551431       3.89127885      -0.01176784      -0.02307117       0.02571211
C        2.51105395       0.07885037       3.91113230      -0.01431277      -0.00697549       0.01189542
C        1.25490529       2.19414768       3.95975709      -0.00648409      -0.00239711       0.01736456
C        0.02154761       4.24723562       3.83402386      -0.00206636       0.00696007       0.01540729
C       -1.18600101       6.41649017       3.70209109       0.01305064      -0.00591228       0.01694578
C       -2.42617975       8.57511675       3.79519237       0.00626787       0.01523274       0.01153770
C        4.96783785       0.03797137       3.84566739      -0.00075107       0.00306510      -0.00257340
C        3.77764283       2.18386435       3.95546726       0.00931822      -0.01504813      -0.01486770
P        1.39488170       6.30486679       2.61997141      -0.01001433      -0.01107412       0.00050217
C        0.02142651       8.59898896       3.50522746      -0.00342946       0.00649290       0.01100289
C        7.43471125       0.04700446       3.78926849      -0.00198991       0.00298814       0.00830440
C        6.21685383       2.15564494       4.01952822       0.01012642      -0.00678927       0.00055360
C        5.02132904       4.23492970       4.02890792      -0.00287990       0.00297723      -0.01969551
S        3.76453252       6.61289483       2.08385430       0.01429104       0.00309619       0.00027126
C        2.49154093       8.68198747       3.32754117      -0.00379959       0.00960670       0.02103556
C        9.91972926       0.04573778       3.84856710       0.00561997       0.00181151       0.01737935
C        8.68397484       2.16644122       4.03499526      -0.00049572       0.00221242       0.00360945
C        7.45627921       4.30154255       4.08156995       0.00292916       0.00197063       0.00891667
C        6.17564895       6.41433780       3.96181846      -0.01256577      -0.00343533      -0.00929565
C        4.99844459       8.58788189       3.68477013       0.00113867       0.00619738      -0.00314157
C        0.06073418       1.47032284       4.00288000      -0.00852428       0.00354313      -0.01810126
C       -1.19064218       3.57627454       4.02506460      -0.00024823       0.01075968      -0.00556237
C       -2.42336732       5.72465456       3.90932192       0.00929965      -0.00014308       0.01672521
C       -3.66435777       7.86431845       3.88170862       0.00522786       0.00521697      -0.01295065
C       -4.88406667      10.01723465       3.90822258      -0.00714000      -0.02564076       0.01088013
C        2.51179442       1.52576596       3.94944991      -0.00059701      -0.00644921      -0.01818815
O        1.21701498       3.56551911       3.88907860      -0.00607405       0.00147954      -0.00220147
C        0.01503840       5.63765828       3.58452822       0.00620055      -0.00643786      -0.02139351
C       -1.19303538       7.85777680       3.64705277       0.00026399      -0.00142753      -0.01318323
C       -2.43469175      10.01748333       3.84712522      -0.00672405       0.01601501      -0.02592108
C        4.97180403       1.46543857       3.95131953       0.01167647      -0.01091415       0.01963786
O        3.82903609       3.54747633       3.95336938       0.00381481      -0.00715047      -0.02060352
C        1.27762447       7.97424334       3.20275726      -0.00493299       0.00876263       0.01198948
C        0.03095040      10.01497699       3.71469051      -0.00461258       0.00628612      -0.00197954
C        7.44240000       1.45492102       3.97116573       0.00651378      -0.00066278      -0.00566835
C        6.23659522       3.56155174       4.08416517       0.00009735      -0.00237851      -0.00656242
C        4.98079543       5.64422104       4.01954427       0.00455198      -0.00091262       0.00272791
C        3.74458241       7.94849080       3.28460755       0.00581516       0.00824956       0.00372522
C        2.51030298      10.05259657       3.66980197      -0.00020576       0.00902474       0.01178033
C        9.92441805       1.45800601       4.00177492      -0.00559514       0.00357657       0.00644268
C        8.68830096       3.59009693       4.07670944       0.00638470       0.00084145      -0.00996513
C        7.43500430       5.72137602       4.02309283      -0.00340662       0.00288961      -0.01907225
C        6.18955396       7.85164415       3.84985758      -0.01369949      -0.00950612      -0.01560029
C        4.98713113      10.00267840       3.83618696       0.00890502       0.00623446      -0.01495792
Ru       3.03525609       6.23418242       4.24759433       0.00707834      -0.00274813      -0.00807968
O        2.29083645       5.57242441       5.79022312       0.00240710       0.00102701      -0.01609445
O        2.90722695       4.31962870       6.31850717       0.00973176       0.01274981       0.03618044
H        2.81706257       4.51788085       7.27898248      -0.02045346      -0.02316161      -0.01060524
