52
Lattice="12.336457 0.0 0.0 -6.168228499999997 10.683685154694365 0.0 0.0 0.0 15.0" Properties=species:S:1:pos:R:3:forces:R:3 energy=-451.08358988726457 free_energy=-451.08358988726457 stress="-0.004170778773209751 0.0019288238726866446 3.368148286255214e-05 0.0019288238726866446 -0.0061158904795582895 3.195330842420975e-05 3.368148286255214e-05 3.195330842420975e-05 2.0220420566239447e-05" pbc="T T T"
C        0.01343380       0.00153387       3.66626087      -0.00088147       0.00600410       0.00853271
C       -1.21026458       2.15042952       3.49253468       0.00399090      -0.00173342       0.00491080
C       -2.45832266       4.28610679       3.65877599       0.00034774       0.00310781      -0.00003849
C       -3.70066465       6.41379745       3.80929281      -0.00204190      -0.00170754       0.00379369
C       -4.93262926       8.54438683       3.82461532       0.00139252      -0.00094017      -0.00222509
C        2.47641930      -0.01054470       3.72664692      -0.00039545       0.00070612       0.00111960
C        1.26553229       2.06133488       3.30091418       0.00336800       0.01042820      -0.00093272
C       -0.04381161       4.32933182       3.30112655      -0.00733349       0.00545785       0.01410091
C       -1.24312367       6.43687792       3.70350308      -0.00976723       0.00405476       0.00069526
C       -2.46698467       8.55548340       3.80571166       0.00088118      -0.00191795      -0.00189533
C        4.95078070       0.00162615       3.78774404       0.00052699       0.00118140       0.00020771
C        3.72344614       2.14829455       3.78497680      -0.00899475      -0.00018052       0.00391312
C        1.24489091       6.43111045       3.81300713       0.00415951      -0.00004578      -0.00428018
C        0.00382631       8.55665921       3.80077761       0.00161978      -0.00454286       0.00713015
C        7.41682739       0.01440342       3.77741265       0.00249249      -0.00796104       0.00107259
C        6.19600357       2.13300869       3.81676783      -0.00206801       0.00050894       0.00029583
C        4.94307266       4.23902852       3.97986437       0.00255312      -0.00078973       0.00424747
B        3.63615867       6.42301257       4.08396067      -0.00360714       0.00665376       0.00401532
C        2.47247580       8.58522060       3.87047920       0.00444826       0.00254936      -0.00773275
C        9.88867661       0.01962601       3.72609983       0.00051471       0.00228610      -0.00380964
C        8.65772300       2.14802789       3.71009585       0.00034991       0.00058713      -0.00064509
C        7.41830698       4.27424541       3.83143648       0.00652071       0.00074448       0.00193033
C        6.16613093       6.40827812       3.93313325      -0.00135589      -0.00458566      -0.00388545
C        4.94864757       8.56166295       3.87171189       0.00126535       0.00077843       0.00302236
C        0.01284125       1.42049891       3.47631828       0.00519694       0.00654944       0.00652818
C       -1.22879125       3.57316499       3.47887034      -0.00439763       0.00010505      -0.00683402
C       -2.46104052       5.71081175       3.72146003      -0.00514077       0.00073021       0.00705278
C       -3.69914111       7.83801780       3.82095403       0.00088144      -0.00215531      -0.00026628
C       -4.92708554       9.96702066       3.73991372      -0.00126059       0.00153466      -0.00773128
C        2.48495261       1.40765963       3.61468759      -0.00365352       0.00017522      -0.00185179
S        1.28891034       3.58421688       2.43359678       0.00988219      -0.00763075      -0.00941636
C        0.02437770       5.74597037       3.59355780      -0.00884093       0.00884630      -0.00031724
C       -1.23138075       7.85026010       3.78389615      -0.00148687      -0.00014268      -0.00198394
C       -2.45624589       9.97076543       3.79028835       0.00161784      -0.00129669       0.00095780
C        4.96441890       1.41879774       3.79736564      -0.00674734       0.00295600       0.00166214
C        3.75432000       3.51089441       3.99659796       0.00378579      -0.00028268      -0.00604965
C        1.25086042       7.83196051       3.83759374       0.00549945       0.00165223      -0.00040741
C        0.01495699       9.97485847       3.79481603       0.00073416      -0.00599821       0.00116553
C        7.42938861       1.43003855       3.76754175      -0.00095843      -0.00543009      -0.00612942
C        6.20199342       3.54624972       3.87590981       0.00567058       0.00190063       0.00194194
C        4.94196716       5.67912212       4.01995109      -0.00496820       0.00008518      -0.00470586
C        3.70066673       7.88667490       3.94273481       0.00154474       0.00363439      -0.00408907
C        2.48092326      10.00016775       3.78966103       0.00469467      -0.00161252       0.00010007
C        9.89654087       1.44263991       3.63899043       0.00151077       0.00130299       0.00052822
C        8.65253879       3.56995180       3.73359756       0.00513546       0.00226260       0.00083118
C        7.40998591       5.70034875       3.86221699       0.00076690      -0.00257477      -0.00004778
C        6.16891486       7.83376135       3.88523643       0.00113761      -0.00327249       0.00203352
C        4.94921847       9.98490943       3.75583338      -0.00111979       0.00267818       0.00427352
Sc       2.08301574       4.66108692       4.74408269       0.00908217      -0.00662487       0.00240723
O        2.04805865       4.60143414       6.54791622      -0.00376313      -0.01412971      -0.00550239
O        1.93736817       4.56782124       7.94131829      -0.00308003      -0.00273018      -0.01490643
H        2.86389856       4.65364502       8.24061524      -0.00970929      -0.00117588       0.00721367
