52
Lattice="12.336457 0.0 0.0 -6.168228499999997 10.683685154694365 0.0 0.0 0.0 15.0" Properties=species:S:1:pos:R:3:initial_magmoms:R:1:forces:R:3 energy=-459.4242907136227 free_energy=-459.4242907136227 stress="-0.004687383945787671 0.005351309663847572 5.4289905717853406e-05 0.005351309663847572 -0.00020097528787384083 -0.0001825259242683462 5.4289905717853406e-05 -0.0001825259242683462 0.0001266298034185411" pbc="T T T"
C       -0.02571356      -0.01623411       3.73098500       0.00000000       0.01223154      -0.00416727      -0.00254939
C       -1.23239559       2.12942183       3.71839820       0.00000000       0.02467866       0.00009677      -0.00341320
C       -2.45919895       4.25777322       3.60567887       0.00000000       0.02037479      -0.00984219       0.01326515
C       -3.72310650       6.39089760       3.53608876       0.00000000      -0.00755787       0.00360752      -0.00307609
C       -4.98519602       8.52261309       3.64194098       0.00000000      -0.00746135      -0.00366795       0.00796890
C        2.43037655      -0.00436266       3.54701279       0.00000000      -0.00625754      -0.00765252       0.00764023
C        1.23449373       2.16139341       3.71394238       0.00000000      -0.00671041      -0.02240015       0.03810651
C       -0.00533300       4.30356574       3.91185036       0.00000000       0.01490628      -0.00647591      -0.01259591
C       -1.28783328       6.42373582       3.72931706       0.00000000      -0.03265281       0.00628304       0.00393155
C       -2.52006184       8.54374047       3.54290286       0.00000000       0.00600656      -0.01212531       0.01228483
C        4.91318241      -0.02245800       3.42142543       0.00000000      -0.01541388      -0.01315971      -0.00065096
C        3.70297324       2.10031594       3.41411176       0.00000000      -0.00001908      -0.02130187      -0.01185243
B        2.59267407       4.34740703       3.80209682       0.00000000      -0.01043159      -0.00223220       0.00354989
N        0.97795554       6.55160264       4.43217395       0.00000000      -0.14676079      -0.10052843       0.01304984
C       -0.06435720       8.54926290       3.69617096       0.00000000      -0.02022421      -0.01816209      -0.01591133
C        7.39439515      -0.03760062       3.53827796       0.00000000      -0.01164646       0.00345104       0.04137073
C        6.19610340       2.07427653       3.30832040       0.00000000       0.00778785       0.00543427      -0.01570177
C        5.01848373       4.17884291       3.43205629       0.00000000       0.00144506       0.00101265       0.02057405
P        3.46375042       6.05029083       4.31132031       0.00000000      -0.00828142      -0.00112748      -0.01278660
C        2.40133821       8.52574080       3.95355829       0.00000000      -0.00068241      -0.02656387      -0.02192767
C        9.85423214      -0.03278755       3.73163856       0.00000000       0.01005397       0.00954712       0.00277739
C        8.65318075       2.09937182       3.49381509       0.00000000      -0.00024610       0.01323686       0.00773958
C        7.44056787       4.23354847       3.39775210       0.00000000       0.00101311       0.01606150      -0.00688329
C        6.16823446       6.36105227       3.65973623       0.00000000       0.01497313       0.01002598       0.01313144
C        4.88089370       8.49013156       3.87434384       0.00000000       0.01509019       0.00586866      -0.01110548
C       -0.00187306       1.42308790       3.73557468       0.00000000       0.00123050      -0.00733720       0.00673985
C       -1.22850490       3.56397084       3.74180395       0.00000000      -0.00717332      -0.02738629       0.00422222
C       -2.48847121       5.68435366       3.60113186       0.00000000       0.00101530      -0.01615620      -0.00522637
C       -3.74879786       7.81983496       3.56171211       0.00000000      -0.00666631       0.00208476       0.02332982
C       -4.97012644       9.95523339       3.64858456       0.00000000      -0.00104578      -0.00030671      -0.00756275
C        2.44649592       1.42264781       3.55461248       0.00000000      -0.00066121       0.01547106       0.00686684
C        1.24674140       3.61163089       3.85625802       0.00000000      -0.02624750      -0.01434793      -0.01131444
C       -0.07683573       5.75310332       4.02940323       0.00000000       0.13333455       0.14358625      -0.04226429
C       -1.29349690       7.83984963       3.64609384       0.00000000       0.02053099      -0.01252284      -0.00504342
C       -2.50633520       9.96677905       3.48959739       0.00000000      -0.01095221      -0.01479192      -0.01731570
C        4.94023607       1.38317089       3.33944114       0.00000000       0.01678801      -0.01147598       0.00835183
C        3.77951019       3.49695302       3.46078855       0.00000000       0.00503556      -0.01238375      -0.03410664
C        1.12041640       7.85084091       4.01868826       0.00000000       0.02229978       0.02784439      -0.00911990
C       -0.02412596       9.95398946       3.52039185       0.00000000      -0.00515262       0.00345638       0.01438604
C        7.42125915       1.37519611       3.41378877       0.00000000      -0.00055425       0.00608993       0.01040107
C        6.23478490       3.49150997       3.30432909       0.00000000       0.00614620       0.00694625       0.00087863
C        5.01784128       5.55892775       3.74145277       0.00000000       0.01144937       0.00472005      -0.01966910
C        3.61807935       7.80207216       4.03463632       0.00000000      -0.01114320       0.01530850      -0.00169212
C        2.44133141       9.93824998       3.73652058       0.00000000      -0.00277481      -0.00332170      -0.00412853
C        9.87453652       1.39698548       3.64620240       0.00000000       0.00749385       0.01433186      -0.00819735
C        8.66376614       3.52742422       3.46965592       0.00000000       0.00977831      -0.00054369       0.02294808
C        7.40746550       5.66073855       3.50266356       0.00000000       0.00431393       0.00017156       0.01694077
C        6.12499297       7.79352046       3.74684049       0.00000000       0.00284197      -0.01133329       0.00820160
C        4.90758189       9.93238070       3.79732721       0.00000000       0.01305680       0.01082524      -0.00131043
Sc       1.69981700       5.54948560       6.28691684       0.00000000      -0.00620183      -0.33415778       0.16441465
O        2.95658468       5.88212884       7.56303360       1.00000000       0.05728123       0.15566174      -0.10679443
O        3.45712269       5.09160964       6.43353686       1.00000000      -0.08823853       0.23434889      -0.08087192
