52
Lattice="12.336457 0.0 0.0 -6.168228499999997 10.683685154694365 0.0 0.0 0.0 15.0" Properties=species:S:1:pos:R:3:forces:R:3 energy=-453.63782433826435 free_energy=-453.63782433826435 stress="-0.006566256653709743 -0.002902145421084672 -8.541953854552201e-07 -0.002902145421084672 -0.006745056597830123 -6.450276402377682e-06 -8.541953854552201e-07 -6.450276402377682e-06 -1.1432834959288026e-05" pbc="T T T"
C        0.00037928      -0.00304045       3.68493718       0.00481559       0.00515290       0.01233330
C       -1.24883448       2.11448714       3.72044108       0.00276364       0.00072088      -0.00102938
C       -2.47164676       4.25863688       3.68513168       0.00588626      -0.00079289      -0.00066989
C       -3.69453250       6.40563573       3.64157136       0.00152669       0.00290652       0.01137364
C       -4.92067280       8.54722397       3.64914395      -0.00774038       0.00163409      -0.00232572
C        2.45712987      -0.01099756       3.65737316       0.00239595      -0.00104611       0.00229893
C        1.20476167       2.14457499       3.87838790      -0.00130936      -0.00497517      -0.00163785
C       -0.01592118       4.18396370       3.92458781      -0.00110763       0.00209804      -0.00126708
C       -1.23675627       6.39073925       3.72209699       0.00298474       0.00001007      -0.00749536
C       -2.45796728       8.53752156       3.60771078       0.00167719       0.00472749      -0.01150451
C        4.93714405      -0.00984921       3.58314930      -0.00306817       0.00241457       0.00388680
C        3.68124828       2.07480526       3.73877453      -0.00028362      -0.00342705       0.00380884
B        1.12670982       6.48545363       3.92792942      -0.00286415       0.00521261       0.00682634
C       -0.00394516       8.55299733       3.63334160      -0.00245548      -0.00483202      -0.00491749
C        7.40416158      -0.00033835       3.60145440      -0.00870334      -0.00259909      -0.00172236
C        6.15687360       2.14388036       3.65013778      -0.00138076      -0.00149710      -0.00532414
C        4.96985394       4.33368251       3.88310679      -0.00614091       0.00570382       0.00501696
N        3.78237005       6.46659982       4.11243771      -0.00078299      -0.00351237      -0.00335249
C        2.50273336       8.55577337       3.75663180       0.00341411      -0.00269160      -0.00017480
C        9.87210907      -0.00443513       3.66158512       0.00353437       0.00231103      -0.00615356
C        8.62754213       2.13170475       3.62772733       0.00459681      -0.00000468       0.00259966
C        7.40690889       4.27575200       3.66969093      -0.00206462      -0.00568343       0.00203214
C        6.19136736       6.44143470       3.75667304      -0.00302731      -0.00289124      -0.00267476
C        4.95190082       8.54424749       3.74503488      -0.00081222       0.00188399       0.00496347
C       -0.01500133       1.41654375       3.74756372       0.00070222       0.00014005       0.00300598
C       -1.25505259       3.51966113       3.76210645       0.00399348       0.00000357      -0.00976260
C       -2.47009807       5.68584526       3.67255236       0.00465730       0.00072418      -0.00566809
C       -3.69054150       7.82941743       3.62642182      -0.00109022       0.00525870      -0.00535701
C       -4.93523634       9.96547198       3.65938792       0.00194059       0.00051344      -0.00500850
C        2.43439788       1.40538951       3.76060748       0.00000795      -0.00406441       0.00103894
N        1.15526541       3.49499187       4.11017394      -0.01008419      -0.00669109      -0.00427401
C       -0.03252050       5.62720137       3.88091325       0.00247959       0.00294603       0.00605973
C       -1.21952186       7.81741670       3.64712273      -0.00039119       0.00024127       0.00485103
C       -2.46663698       9.96169747       3.60135184       0.00192686       0.00400254       0.00272884
C        4.94139130       1.40839746       3.63833902      -0.00056844       0.00054820       0.00047883
B        3.81092172       3.47543078       3.94050100       0.00343973      -0.00357341      -0.00072655
C        1.25619079       7.88627035       3.72893693       0.00133922       0.00216755       0.01054003
C        0.00063452       9.97131526       3.58161740      -0.01022671      -0.00555656       0.00669462
C        7.39511337       1.42372930       3.60801848       0.00129758      -0.00175954      -0.00388268
C        6.17381116       3.57071565       3.72185415      -0.00644690      -0.00170497      -0.00075040
C        4.95289870       5.77689356       3.92397007      -0.00189213       0.00165852      -0.00534233
C        3.73227871       7.81659313       3.87702351       0.00294031      -0.00581858      -0.00426352
C        2.47997822       9.97223391       3.65729858      -0.00074218      -0.00012173       0.00061131
C        9.85766466       1.41374335       3.65337041       0.00496579       0.00403949      -0.00951351
C        8.63119976       3.55561855       3.64338559       0.00495277      -0.00065358       0.00521633
C        7.40816026       5.70279255       3.68077181      -0.00233931      -0.00332565       0.00067368
C        6.18577265       7.84654145       3.71592963      -0.00745612      -0.00206161      -0.00257369
C        4.93619874       9.96368183       3.68492457       0.00439793       0.00597202       0.01146581
Sc       2.46432647       4.98227799       5.06168940       0.00552000       0.00294616      -0.00895398
O        2.44855635       4.98853742       6.85896499       0.01582745       0.00194973       0.00038968
O        2.33972786       4.99215538       8.25166063      -0.00489313      -0.00084424       0.00098932
H        3.27137223       5.01649326       8.54658347      -0.00611264       0.00224067       0.00644209
