52
Lattice="12.336457 0.0 0.0 -6.168228499999997 10.683685154694365 0.0 0.0 0.0 15.0" Properties=species:S:1:pos:R:3:forces:R:3 energy=-449.87070349364865 free_energy=-449.87070349364865 stress="-0.004078056374423596 -0.003671873157207734 1.0780016200689314e-05 -0.003671873157207734 -0.002907578170400303 4.158309685049968e-05 1.0780016200689314e-05 4.158309685049968e-05 6.251171302450686e-06" pbc="T T T"
C        0.00697240       0.00064742       3.80211266      -0.00685500      -0.00010642       0.00455923
C       -1.25201713       2.12761621       3.84850119      -0.00514407      -0.00118971      -0.00160501
C       -2.47151205       4.27882339       3.86781954       0.00433695       0.00195768      -0.00253267
C       -3.67315726       6.42433050       3.82581401       0.00436828      -0.00073600       0.00351519
C       -4.90494992       8.56699576       3.81466458       0.00300455      -0.00179833       0.00002457
C        2.47426410       0.01647495       3.79952029       0.00097880       0.00212964       0.00556502
C        1.19502874       2.10611162       3.85948564       0.00183671       0.00216883      -0.00765497
C       -0.05398885       4.22002059       4.10040135      -0.00195643      -0.00154737       0.00005898
C       -1.21719383       6.40473500       4.00926231      -0.00151212      -0.00030116      -0.00086193
C       -2.44402185       8.55610002       3.87898570      -0.00211964       0.00047222       0.00416481
C        4.93623740       0.02000279       3.72770695       0.00137112       0.00012676       0.00214675
C        3.67622135       2.10450912       3.38038178       0.00025352       0.00839644       0.00357215
B        1.19855963       6.46223578       4.25956633       0.00601951      -0.00249616       0.00006882
C        0.00636234       8.57061517       3.94248253      -0.00632427      -0.00019191      -0.00090695
C        7.40410896       0.01423697       3.74041727       0.00351858       0.00139335       0.00731852
C        6.15899313       2.16312543       3.51947415      -0.00636943      -0.00457912      -0.00203336
C        5.00562784       4.36723305       3.30237062       0.00071032      -0.00011275       0.00578334
N        3.79277502       6.44550698       3.81586319       0.00542814       0.00328962       0.00003564
C        2.50139852       8.55480746       3.89342032      -0.00221919       0.00376880       0.00196060
C        9.87239675       0.00325515       3.76670618       0.00146868       0.00028272       0.00886236
C        8.62834617       2.14852408       3.71605084      -0.00106846      -0.00095828       0.00022285
C        7.41418034       4.29638598       3.65488289       0.00323360       0.00240561       0.00123077
C        6.22062106       6.45840383       3.67139856      -0.00013678       0.00420146      -0.00201246
C        4.96171308       8.55373705       3.77819350      -0.00073595      -0.00083558       0.00256020
C       -0.01063777       1.42644147       3.83398918      -0.00082573       0.00226536      -0.00394910
C       -1.25507313       3.53635655       3.93745104      -0.00168859      -0.00197430      -0.00312329
C       -2.45054701       5.70203590       3.90375728       0.00298713       0.00043833      -0.00228779
C       -3.67299861       7.84852713       3.84806345       0.00360415      -0.00347059      -0.00627499
C       -4.92082154       9.98969710       3.82361190      -0.00196698      -0.00078895       0.00270684
C        2.44769484       1.45129457       3.71181121       0.00307038       0.00416417       0.00117225
O        1.13121924       3.47408849       4.16829155       0.00112206       0.00065500       0.00098927
C       -0.00473164       5.63567165       4.14056193      -0.00156492      -0.00052675      -0.00096216
C       -1.20810612       7.83312758       3.95614549      -0.00588064      -0.00019379      -0.00546204
C       -2.45620007       9.98590098       3.80731010       0.00103949       0.00091463       0.00066274
C        4.92224337       1.44704195       3.53216492      -0.00524188      -0.00075940      -0.00254431
S        3.61565149       3.64132280       2.52527616       0.00667680      -0.00103861       0.00337959
C        1.25891640       7.88321213       4.03094443      -0.00378921       0.00106234      -0.00606306
C        0.00185163       9.99371494       3.80128149       0.00125193       0.00036048      -0.00259857
C        7.38937643       1.44319772       3.65005788      -0.00229468      -0.00215352       0.00322716
C        6.18004149       3.59183173       3.48153538       0.00099754      -0.00343936      -0.00139701
C        4.97907643       5.78253738       3.56851566       0.00214134       0.00128887      -0.00015519
C        3.73921045       7.81329543       3.83533078      -0.00033942       0.00172402       0.00108108
C        2.47961161       9.97947570       3.78778287       0.00386757       0.00372292       0.00245954
C        9.86364272       1.42870364       3.77114990      -0.00301858      -0.00100952      -0.00162090
C        8.63535248       3.57286030       3.74548336       0.00678828       0.00203213      -0.01083882
C        7.43197929       5.72025221       3.71153512       0.00060499       0.00509249       0.00060416
C        6.20231492       7.86619210       3.76077658       0.00056778       0.00317001      -0.00425469
C        4.94050609       9.97264835       3.78450246      -0.00509817      -0.00239472       0.00321269
Sc       2.74721772       4.74728424       4.71718602       0.00054478      -0.00158083      -0.00173839
O        3.76796545       4.50582697       6.34470961       0.00365346      -0.00605133       0.00076227
O        2.32309999       4.32574865       6.82232220      -0.01596423      -0.00384463      -0.00319864
H        2.35304456       4.88763302       7.61862844       0.00666793      -0.01340481       0.00216890
