53
Lattice="12.336457 0.0 0.0 -6.168228499999997 10.683685154694365 0.0 0.0 0.0 15.0" Properties=species:S:1:pos:R:3:forces:R:3 energy=-456.7541160355231 free_energy=-456.7541160355231 stress="-0.004129874548060998 0.002625741935138058 7.320554928086644e-05 0.002625741935138058 -0.0035754024578136382 -4.657366544761285e-05 7.320554928086644e-05 -4.657366544761285e-05 -1.7892726116703922e-05" pbc="T T T"
C        0.12094758       0.09388017       3.89584389       0.00068953      -0.00512384      -0.01182648
C       -1.10017624       2.22374229       3.72518282       0.01078170       0.01589852       0.01738125
C       -2.33545032       4.35750618       3.62336368      -0.00779896       0.00829120       0.00812708
C       -3.58553562       6.49377190       3.77934556       0.00373284       0.00242047       0.00926973
C       -4.83748373       8.62327831       3.92996544      -0.01237742      -0.00727009      -0.00532026
C        2.57897236       0.09226716       3.87616447      -0.00613149       0.00619341       0.02581470
C        1.36436558       2.25597690       3.89006671       0.00595888       0.01310057      -0.01017576
C        0.12313211       4.34748116       3.45997420       0.01110739      -0.00882071      -0.01347657
C       -1.14526747       6.50777050       3.40270519      -0.00698523      -0.01076280       0.01278755
C       -2.37350971       8.64134849       3.68286027       0.00303815      -0.01413009      -0.01782098
C        5.05550595       0.07860796       3.73393044      -0.00548772       0.00229106      -0.00168808
C        3.84588762       2.20426931       3.94019498      -0.00701850       0.01475920       0.00371114
B        2.70060668       4.43663906       4.10294133      -0.02310624      -0.01924859      -0.02159445
P        1.46850130       6.53745962       2.31757009       0.01441898       0.01114138       0.01224429
C        0.09294818       8.64365062       3.45144813       0.02153488       0.00540689      -0.00623146
C        7.52430062       0.08929546       3.63069231       0.01625633      -0.01036716       0.00019157
C        6.32048113       2.19440108       3.81559191      -0.01499777      -0.01092230       0.00582631
C        5.14149843       4.29908157       4.09263628      -0.00803741       0.00759206      -0.00721643
S        3.50449164       6.29685069       4.48863487      -0.00779721      -0.00253431       0.02092244
C        2.59138082       8.66672623       3.60004378      -0.00224355      -0.02080684       0.02623038
C       10.00226191       0.09139687       3.74764994       0.00762525      -0.00882087       0.00784431
C        8.77688594       2.21830957       3.70416966      -0.00712316      -0.01105975       0.01750811
C        7.56221802       4.34865519       3.85595197      -0.00375022       0.00020652       0.02658896
C        6.28624197       6.47464886       4.09238954       0.01810967       0.01233145      -0.00128514
C        5.03120784       8.61454364       3.96481900       0.00294419       0.01504173      -0.01034211
C        0.13327462       1.52380500       3.84200852       0.01478538       0.00262668      -0.01679604
C       -1.11390719       3.63798546       3.58211682       0.00180198       0.01382247       0.00621940
C       -2.35964305       5.78315198       3.60447419      -0.00973522       0.00260515       0.01132247
C       -3.59811945       7.92117804       3.80540096      -0.00549269      -0.00455232       0.00755406
C       -4.82258137      10.05727533       3.91381799      -0.00577660      -0.00583305      -0.00620301
C        2.58633989       1.52042506       3.92236612       0.00059982       0.01763970      -0.01515606
C        1.36085358       3.71516884       3.84622903       0.00168221       0.00862803      -0.00928454
C        0.05476084       5.75740587       3.07883998      -0.03249045      -0.02516926       0.02009798
C       -1.14243568       7.93610334       3.47445394       0.02247763      -0.00304908      -0.01503281
C       -2.36002820      10.06038124       3.77211316      -0.00826599      -0.00537622      -0.01212378
C        5.07884618       1.48814892       3.84065312      -0.01877859       0.00250491      -0.03223630
C        3.91648748       3.60973848       4.04958063      -0.01895417       0.01303368      -0.00957291
C        1.35336091       7.94559193       3.37652118       0.01017994      -0.02453523      -0.02944026
C        0.11506210      10.06382001       3.60191134       0.01255455       0.00883718      -0.00140478
C        7.54393079       1.50037292       3.70914454      -0.01154763      -0.01251611       0.00495717
C        6.35892623       3.60839989       3.92546069      -0.01006918      -0.00363064      -0.00118692
C        5.12804423       5.69143167       4.25685445       0.01530553       0.00695706      -0.01945361
C        3.76489017       7.96504772       3.92119960       0.01882996       0.02056971      -0.03100438
C        2.59619277      10.08149710       3.63764951       0.01117457      -0.02561391       0.01536498
C       10.00657860       1.51125100       3.72027135       0.00941990      -0.00006141       0.00185466
C        8.78065337       3.63948806       3.72220401      -0.00511695      -0.00390787       0.02442834
C        7.53526650       5.77223291       3.92297712       0.01268803       0.00594717      -0.00301754
C        6.26621924       7.90489998       4.02716826      -0.00428072       0.00790488       0.01074153
C        5.05531194      10.05525729       3.86887488       0.00521099      -0.00079810      -0.01119491
Sc       0.93800718       5.94235922       5.16840792       0.02339976       0.00201889      -0.00134237
O       -0.00069219       5.03273824       6.37119864      -0.00549589       0.00809305       0.00200449
O       -0.72169122       4.26020042       7.27141011       0.02632139       0.01464364       0.02575753
H       -0.06628019       4.05199644       7.97016716      -0.05377047      -0.00559609      -0.00332253
