52
Lattice="12.336457 0.0 0.0 -6.168228499999997 10.683685154694365 0.0 0.0 0.0 15.0" Properties=species:S:1:pos:R:3:initial_magmoms:R:1:forces:R:3 energy=-460.3916759970151 free_energy=-460.3916759970151 stress="0.0025279200293481458 0.002808644066483188 4.866687980778373e-06 0.002808644066483188 -0.0013252700908277168 -9.057656381775225e-07 4.866687980778373e-06 -9.057656381775225e-07 5.09895135355942e-05" pbc="T T T"
C        0.01360931       0.00915581       3.61039291       0.00000000       0.00069595       0.00022596       0.00174539
C       -1.19903482       2.16445664       3.60080123       0.00000000       0.00031533      -0.00128840       0.00072865
C       -2.42358278       4.29741083       3.66769251       0.00000000      -0.00126951       0.00025586      -0.00200356
C       -3.67877173       6.42575445       3.70712083       0.00000000      -0.00035329      -0.00058647      -0.00017587
C       -4.93836856       8.55076666       3.64427768       0.00000000       0.00019994       0.00067388       0.00012098
C        2.48157601       0.00946356       3.77384615       0.00000000       0.00042041      -0.00009622      -0.00045725
C        1.27297400       2.14998961       3.57017289       0.00000000      -0.00011590      -0.00118096      -0.00038076
C        0.05264193       4.30414185       3.39694891       0.00000000      -0.00478700      -0.00294496      -0.00259103
C       -1.20253906       6.44524519       3.59728874       0.00000000       0.00033396       0.00044269      -0.00121478
C       -2.46319743       8.56418008       3.75962881       0.00000000      -0.00013695       0.00021784      -0.00136532
C        4.94523290       0.02011373       3.94224994       0.00000000       0.00011980      -0.00035383      -0.00011094
C        3.71454031       2.12785561       4.05401160       0.00000000      -0.00050036      -0.00116242      -0.00072052
B        2.68254395       4.25020771       3.32458112       0.00000000       0.00321533      -0.00041590      -0.00373685
C        1.29328288       6.49977318       3.53897705       0.00000000      -0.00289679       0.00528376      -0.00111693
C        0.00084058       8.59014240       3.76858782       0.00000000       0.00008651       0.00031648       0.00026845
C        7.42036185       0.03780941       3.88168563       0.00000000       0.00045841      -0.00057533      -0.00053864
C        6.20410710       2.15108476       4.09419693       0.00000000       0.00019035       0.00045142      -0.00033440
C        5.01247991       4.28022193       4.07664172       0.00000000       0.00137305       0.00013326       0.00061048
P        3.31382644       6.10341757       3.03790941       0.00000000       0.00425352       0.00203968      -0.00273756
C        2.46986818       8.61730103       3.60691759       0.00000000       0.00036189      -0.00018796      -0.00074315
C        9.89562393       0.03455782       3.68142295       0.00000000      -0.00018251       0.00113105       0.00107450
C        8.67324867       2.16551264       3.85090051       0.00000000      -0.00013344       0.00133589      -0.00091523
C        7.45193102       4.29466111       3.91433419       0.00000000      -0.00013920      -0.00030549      -0.00019516
C        6.16920767       6.40185588       3.66445759       0.00000000       0.00091480      -0.00085216      -0.00016443
C        4.91794245       8.53932429       3.50529440       0.00000000       0.00017677       0.00042851      -0.00169927
C        0.03127858       1.43998679       3.58190823       0.00000000       0.00060503      -0.00068279       0.00013379
C       -1.19480199       3.58769114       3.54045234       0.00000000      -0.00111204      -0.00127939       0.00045275
C       -2.43026421       5.72498470       3.65764465       0.00000000      -0.00014766       0.00025242       0.00000146
C       -3.69506332       7.84933157       3.69799428       0.00000000      -0.00026634      -0.00018290       0.00052865
C       -4.92260245       9.97929350       3.66209548       0.00000000       0.00076542       0.00073532       0.00052564
C        2.50264753       1.44560974       3.79965540       0.00000000      -0.00034486      -0.00145161      -0.00146412
C        1.29880724       3.57688545       3.37697979       0.00000000      -0.00156697      -0.00553230      -0.00433585
C        0.06959691       5.74773075       3.46105630       0.00000000      -0.00384393       0.00170811      -0.00275999
C       -1.22373154       7.86104208       3.72255352       0.00000000       0.00013313       0.00062992       0.00198383
C       -2.45685004       9.98700771       3.83957174       0.00000000       0.00011319       0.00006335       0.00006917
C        4.94561794       1.44470167       4.06785744       0.00000000      -0.00014020      -0.00021457      -0.00013878
C        3.71603801       3.58762341       4.43604949       0.00000000       0.00133474      -0.00123166      -0.00117539
C        1.23565244       7.90177459       3.64756264       0.00000000      -0.00024476       0.00079506       0.00005174
C        0.01082818      10.00754809       3.88495397       0.00000000       0.00037040      -0.00053224      -0.00016303
C        7.43074121       1.45432218       3.96473678       0.00000000       0.00032229       0.00017372      -0.00084602
C        6.22323931       3.57607951       4.09878142       0.00000000       0.00066230       0.00038513       0.00033306
C        4.96007160       5.62129521       3.68866104       0.00000000       0.00100471       0.00045861       0.00063373
C        3.65222392       7.87150353       3.40807878       0.00000000       0.00017370      -0.00014350       0.00019759
C        2.48527617      10.02674568       3.73812010       0.00000000       0.00053558      -0.00042257       0.00110771
C        9.90221456       1.45761467       3.71660648       0.00000000      -0.00032843       0.00112937      -0.00042038
C        8.68241674       3.58694144       3.82695156       0.00000000      -0.00034509       0.00093435       0.00111724
C        7.42488347       5.71050856       3.76945718       0.00000000       0.00009311      -0.00116555       0.00100488
C        6.16113866       7.82933910       3.57232867       0.00000000       0.00029719      -0.00031184      -0.00079129
C        4.94404182       9.97952540       3.58685403       0.00000000      -0.00007835       0.00109474       0.00049131
Sc       1.39259173       4.97443722       5.53406143       0.00000000       0.06067538       0.00570747       0.58236358
O        0.51035173       5.33645627       6.96889062       1.00000000       0.00027341      -0.00016427      -0.04116766
O        3.22895869       3.89537731       5.69466382       1.00000000      -0.06154203      -0.00373854      -0.52108043
