51
Lattice="12.336457 0.0 0.0 -6.168228499999997 10.683685154694365 0.0 0.0 0.0 15.0" Properties=species:S:1:pos:R:3:initial_magmoms:R:1:forces:R:3 energy=-448.57560418177627 free_energy=-448.57560418177627 stress="0.01242885626237985 9.608182349037152e-05 2.4629462404512054e-05 9.608182349037152e-05 -0.004238353662610663 9.207326354100661e-05 2.4629462404512054e-05 9.207326354100661e-05 -5.8302381242741856e-05" pbc="T T T"
C       -0.00982723      -0.00054291       3.91508545       0.00000000      -0.01155876       0.00291940       0.00502659
C       -1.20818252       2.19357650       3.84869280       0.00000000       0.00107312      -0.00519484       0.02007808
C       -2.44745700       4.31232220       3.45901855       0.00000000       0.01211650      -0.01349310       0.00359502
C       -3.70829672       6.42116499       3.37980482       0.00000000       0.00290183       0.01223394      -0.00246666
C       -4.95572125       8.53489542       3.62729827       0.00000000       0.00516717       0.00491443       0.00216487
C        2.45768642      -0.08189827       4.06448726       0.00000000       0.00386946      -0.00139915      -0.01434643
C        1.21296543       2.02087699       4.51465068       0.00000000      -0.00674743       0.02063762       0.01494604
C        0.03184551       4.36056754       3.65221666       0.00000000       0.01071017      -0.00125503       0.01619861
C       -1.15700551       6.43449591       3.34908579       0.00000000       0.01070425      -0.00410824       0.00072475
C       -2.45905846       8.53132884       3.62942777       0.00000000       0.00984853      -0.00011975      -0.03167059
C        4.93699465      -0.01732140       3.90152280       0.00000000       0.00162191       0.00209811      -0.03370098
C        3.70623603       1.97251600       4.43407873       0.00000000       0.00587793      -0.00031494      -0.02226978
B        1.58757213       6.45971456       3.49195885       0.00000000       0.02010056      -0.02515448       0.01555122
C        0.01788617       8.57618094       3.62724683       0.00000000       0.00061509       0.00680691      -0.01893920
C        7.38959640       0.07582176       3.76212836       0.00000000       0.00580651       0.00093960      -0.01721202
C        6.13544104       2.18480051       3.81923672       0.00000000       0.00594958      -0.00937253      -0.00553453
C        4.89813734       4.35371641       3.62827907       0.00000000      -0.01792689       0.00189372      -0.01159448
C        3.42728499       6.46264263       3.58793060       0.00000000       0.02385782       0.01264186      -0.01841764
C        2.47067725       8.67539858       3.68227700       0.00000000      -0.00882636      -0.00802777      -0.01505184
C        9.87700455       0.07936957       3.76451850       0.00000000       0.00429477       0.00496471      -0.00161596
C        8.63340253       2.20390695       3.65945827       0.00000000      -0.00658470       0.00452825       0.01800926
C        7.37146577       4.31160384       3.45089279       0.00000000       0.00914187       0.00282112       0.00551899
C        6.08048547       6.43648165       3.37618891       0.00000000      -0.01238941      -0.00704516       0.01315877
C        4.90977079       8.57893272       3.63910877       0.00000000       0.00703582      -0.01237052       0.00845921
C       -0.00168210       1.42931923       4.09924824       0.00000000      -0.01692288      -0.00237902       0.01998886
C       -1.19703576       3.61029617       3.64221719       0.00000000      -0.00376792      -0.01448193       0.01458671
C       -2.43365363       5.72781226       3.35710643       0.00000000       0.00610525       0.00105630      -0.00484327
C       -3.70851321       7.83240279       3.52903763       0.00000000       0.00177582       0.01074492      -0.02487297
C       -4.95446041       9.93413754       3.87978834       0.00000000      -0.00494374      -0.00260795      -0.00398473
C        2.45375302       1.29616451       4.39468881       0.00000000       0.01532264      -0.00782314      -0.00156239
P        1.32949874       3.78546209       4.70907116       0.00000000      -0.04057278       0.02189761       0.06851172
C        0.15165904       5.74882208       3.38686669       0.00000000       0.00400453      -0.01147725       0.01083596
C       -1.20662813       7.84438493       3.51361890       0.00000000       0.00203110       0.00071376      -0.01131644
C       -2.46361905       9.93036272       3.87757881       0.00000000       0.00639560      -0.00450374      -0.01688000
C        4.93355746       1.40692871       4.05439695       0.00000000      -0.00022795       0.00725961      -0.01892732
P        3.62771061       3.67809436       4.65999819       0.00000000       0.02046063       0.02686728      -0.02340435
C        1.28132931       7.92642793       3.61820058       0.00000000      -0.00308702      -0.00017213      -0.00861684
C        0.00439856      10.00072129       3.76071811       0.00000000       0.00178678       0.01083251      -0.03714926
C        7.38117461       1.49777509       3.74402965       0.00000000      -0.00152932      -0.00311648       0.00210490
C        6.12281340       3.60657444       3.61369805       0.00000000       0.00531782      -0.00853380      -0.00250920
C        4.77769321       5.75363827       3.44583669       0.00000000      -0.02454022       0.00066806      -0.02488073
C        3.65590682       7.90270404       3.65247022       0.00000000       0.00188574      -0.00312855      -0.02707822
C        2.46722506      10.08447184       3.73355390       0.00000000       0.00470655      -0.00038758      -0.01316011
C        9.88482212       1.50086621       3.75329591       0.00000000      -0.00789140       0.00455813       0.01660061
C        8.63071383       3.61494047       3.50986814       0.00000000       0.00387621      -0.00310348       0.01052288
C        7.35280185       5.72731596       3.36626501       0.00000000      -0.00332803       0.01807115       0.00686750
C        6.12925292       7.84778872       3.52420260       0.00000000       0.01364407      -0.00190930       0.01564270
C        4.92495841      10.00656202       3.76432748       0.00000000       0.00052424      -0.01153396       0.00455009
Sc       2.75366791       5.70463571       5.72594532       0.00000000      -0.34790083       0.59107397       0.55907292
O        3.98410499       4.25882433       6.10874451       1.00000000       0.01922407      -0.08824547      -0.08792434
O        1.10187712       4.62488986       6.06411226       1.00000000       0.27099169      -0.51988365      -0.35278598
