52
Lattice="12.336457 0.0 0.0 -6.168228499999997 10.683685154694365 0.0 0.0 0.0 15.0" Properties=species:S:1:pos:R:3:initial_magmoms:R:1:forces:R:3 energy=-460.5714852973779 free_energy=-460.5714852973779 stress="0.0020144955203799894 0.004762978041923604 4.6845778032109235e-05 0.004762978041923604 0.0026624918864618665 3.783057599924176e-05 4.6845778032109235e-05 3.783057599924176e-05 3.1756337991634896e-05" pbc="T T T"
C       -0.00205281       0.03159508       3.68136708       0.00000000      -0.00837329       0.01609128       0.02357559
C       -1.21228770       2.17288904       3.66330607       0.00000000      -0.00346439      -0.00480621       0.05085613
C       -2.44526249       4.30086811       3.72766217       0.00000000       0.00938064       0.00533732      -0.00548689
C       -3.73309633       6.42481838       3.72192744       0.00000000      -0.01897793      -0.00110684      -0.01091311
C       -4.98314114       8.55000811       3.70161323       0.00000000      -0.01425768      -0.00063325      -0.00847026
C        2.45327391       0.02019930       3.62556713       0.00000000      -0.01600727       0.00300543       0.02988630
C        1.24864242       2.19635790       3.43423363       0.00000000      -0.01565338       0.00893099       0.00393303
C        0.03961822       4.34479383       3.64863044       0.00000000      -0.02037712       0.00554572       0.02510708
C       -1.26465924       6.45207712       3.91529466       0.00000000       0.00502740      -0.01885514      -0.01624934
C       -2.50149314       8.56896177       3.84357860       0.00000000       0.02612955      -0.01101733      -0.01494934
C        4.93603696       0.00198288       3.78100160       0.00000000      -0.01380550       0.00799248       0.00589848
C        3.73451987       2.10731577       3.41035878       0.00000000       0.01698217      -0.00540952       0.01425585
B        2.59189033       4.31896245       2.90787636       0.00000000       0.00869550       0.02850511      -0.02019390
N        1.09586448       6.48171351       4.34689212       0.00000000       0.03075721      -0.01806658       0.06388701
C       -0.02902553       8.56894878       4.09729797       0.00000000      -0.00206890      -0.00570627      -0.04311395
C        7.41190357       0.00185687       3.93569201       0.00000000      -0.00656728      -0.00832934       0.00152356
C        6.20796427       2.11021117       3.63055197       0.00000000      -0.00832089       0.00881555      -0.01434182
C        5.03054613       4.20077641       3.20658867       0.00000000       0.03188087      -0.02265769       0.01702721
S        3.32143501       6.01016280       2.50112423       0.00000000       0.00002916       0.06594495       0.03761517
C        2.45225295       8.57437355       4.32664389       0.00000000       0.00499066      -0.02309520      -0.02346688
C        9.87633492       0.01744161       3.92359117       0.00000000       0.01829608       0.01195546       0.00210135
C        8.66211628       2.14790069       3.74753427       0.00000000      -0.00470771       0.00272636       0.03676989
C        7.43430240       4.27939792       3.57817621       0.00000000       0.01380257      -0.02136159       0.01543135
C        6.10692413       6.40327243       3.44857078       0.00000000       0.00149751      -0.00767561      -0.01010944
C        4.92748190       8.57146291       4.00253455       0.00000000      -0.01078603       0.00686191      -0.01546734
C        0.01451567       1.46490638       3.58957970       0.00000000      -0.01287650      -0.00367218       0.00716429
C       -1.20194854       3.60647853       3.67748160       0.00000000       0.00265093      -0.00066261       0.01618346
C       -2.48214135       5.72484730       3.78742622       0.00000000      -0.01010940       0.00399657      -0.04308865
C       -3.73977900       7.84827369       3.75107676       0.00000000       0.01460237       0.00622387      -0.02744302
C       -4.95505054       9.98601522       3.66894028       0.00000000      -0.02197310      -0.00004855      -0.00341964
C        2.46654392       1.44205167       3.47585159       0.00000000      -0.00548722      -0.00379522      -0.02446006
C        1.25392163       3.65101072       3.33854322       0.00000000      -0.02804302       0.00478179       0.02110981
C       -0.00816658       5.77337332       3.96275176       0.00000000       0.00767130       0.00991672      -0.00962777
C       -1.26683960       7.86525464       3.97966397       0.00000000       0.02110287      -0.02242831      -0.04468674
C       -2.48475654       9.98998694       3.75824468       0.00000000      -0.00053418      -0.00277217      -0.03043148
C        4.96607869       1.40420458       3.61607565       0.00000000       0.00012458      -0.01119524      -0.03978773
C        3.81157721       3.48982773       3.16992840       0.00000000       0.04295098      -0.02126294      -0.00532455
C        1.18557366       7.85156897       4.30614290       0.00000000      -0.00405020      -0.02925762      -0.00580269
C       -0.00005279       9.98020819       3.95172208       0.00000000      -0.02524785       0.00356338       0.01857700
C        7.43248937       1.41645600       3.77865473       0.00000000      -0.01838272      -0.00807519      -0.00373329
C        6.24098957       3.52410666       3.47791695       0.00000000       0.01252020      -0.00886840       0.00333579
C        4.96107015       5.61551814       3.09296566       0.00000000       0.02924558      -0.00456447       0.03005811
C        3.74754729       7.97070408       4.64761315       0.00000000      -0.01087685      -0.01372779      -0.01348641
C        2.47380295       9.97602891       4.06428885       0.00000000       0.01468295      -0.01614776       0.00828024
C        9.89137761       1.44231658       3.77855530       0.00000000       0.00479377       0.00709584       0.01430070
C        8.66614158       3.57588811       3.68596771       0.00000000       0.01631593       0.00634772       0.00424546
C        7.37633486       5.70861687       3.57410319       0.00000000      -0.00160228      -0.01271950      -0.02629245
C        6.10716587       7.83033560       3.70982447       0.00000000      -0.02161663       0.00709676      -0.00305098
C        4.93480190       9.99001153       3.87235611       0.00000000       0.01277061       0.00692940       0.01476508
Sc       2.70037100       5.27578647       5.42943494       0.00000000      -0.00206947       0.12428499       0.28680482
O        2.22457779       4.45352006       6.86196583       1.00000000       0.01582462      -0.05377964       0.05595297
O        3.88527219       7.09410333       5.58471812       1.00000000      -0.05648924       0.00974855      -0.34524799
