52
Lattice="12.336457 0.0 0.0 -6.168228499999997 10.683685154694365 0.0 0.0 0.0 15.0" Properties=species:S:1:pos:R:3:initial_magmoms:R:1:forces:R:3 energy=-475106.23512271885 free_energy=-475106.23512271885 stress="228.90409762588138 -44.27622474044984 -32.62758630443757 -44.27622474044984 215.68270525049536 51.02773393462919 -32.62758630443757 51.02773393462919 586.720667991169" pbc="T T T"
C       -4.54954963       3.06145021       4.58692836       0.00000000  -20975.06135813   -1441.33161100   18736.59212998
C       -5.48481598      12.20515029       0.73512352       0.00000000     -56.53813259      15.47876812     -32.73551696
C       -1.69146412       8.60935364       1.60859877       0.00000000    2894.53068439    8407.33688368    5600.61118825
C        4.14168914       5.97833189       3.65497274       0.00000000     488.05027118   -1224.57994502     845.36681669
C       -3.30233148      14.29184818       4.17653763       0.00000000    2046.48088447   -2054.77153947    4509.25988005
C       -1.39107137       0.23250750       9.66730522       0.00000000       0.19999269      -0.02583285      -0.41472989
C        5.15569131       0.30938701       3.11202801       0.00000000  126484.22752945 -145345.29630607  -81847.35226597
C       -5.12286728       0.37318982       0.92058593       0.00000000   -9128.53253086   -1736.61489942    6805.35897402
C       -1.82818850       9.05949060       5.94978670       0.00000000   -3696.16535937    1172.35055560   -4375.02745327
C       -3.63075516       5.67080226       0.87627589       0.00000000      -2.37531955     -10.06859239      -2.38009860
C        4.96917717      -0.40278340       2.78506974       0.00000000  140853.63601549   86613.99083381    5017.07286513
C        5.22644215      -1.30173189       5.00187009       0.00000000  -77229.22243031   59759.03160803  111534.95295887
B        5.79720864       8.50432666      -2.69171947       0.00000000       1.24576001       0.01667976       2.08977855
P       -1.19956074       9.44333958       5.59802512       0.00000000   91841.27705003  -12128.11995559 -150832.38066164
C       -0.90716461       7.32824907       3.53290507       0.00000000     111.80425946    1370.51945549     290.24774992
C        6.16393002       1.09800576       5.22724014       0.00000000  -14618.70472371   42623.16935603   29969.22011676
C        5.56436496      -0.05169681       2.81182752       0.00000000 -172076.55213393  -19946.53638124  135521.92420978
C       -0.44642915       6.38183767       1.71473109       0.00000000     -23.86871758      73.29759203      63.69792178
S        7.33215910       5.64798794       0.34892978       0.00000000     159.73951451     335.11485691     211.17924705
C       -5.26638266       3.18420029       4.81824751       0.00000000  -25894.54933686   -8298.26653440   29141.61073499
C        5.01767535      -1.02093751      11.01507160       0.00000000     -10.31443236     -55.09817600      32.54266550
C       10.01153409       3.40299191       5.14376677       0.00000000    -523.48226525    -168.25801194     206.37180114
C       14.97367194       4.39857013       5.42572959       0.00000000    8680.70254247   -4327.97537667    3564.71568293
C        6.37404807       9.22703601       3.03825038       0.00000000     -46.70976938     -13.18121192     -23.25697109
C        1.77342110       8.76472308      13.74616793       0.00000000       4.78242127      -9.20745832      15.98157528
C       -1.67405887       2.12916247      -2.22803346       0.00000000       0.41866734       0.50328523      -0.40551503
C       -0.53388323       4.42375084      -0.49625401       0.00000000      -1.04067497     -10.49671302     -12.73263395
C       -0.89270068       5.88905078       5.46931243       0.00000000      48.31285541    -183.12232346     -18.36526149
C       -4.07644584       9.65493242       4.49656124       0.00000000     427.64641642      26.18582086    -609.68801978
C       -1.62974273       9.62187721       0.95291725       0.00000000    3369.22222046    4167.50212847    8393.48060375
C        2.78987127       2.61360750       4.02064629       0.00000000    3776.43521437     153.74635573    3662.98707200
C        1.01358187      -2.19308331      -0.81723480       0.00000000      89.74478778      -4.59571667     -62.09698301
C       -4.73765431       9.79654455       4.96221696       0.00000000   -1283.62665721    -176.24623838     146.12590839
C       -9.23367716       6.41362699       0.54884995       0.00000000      -4.32502334      -4.42108248     -12.33343706
C        2.12317607       7.28101094      -0.63117856       0.00000000      16.34987312     -11.12543501     -16.95295710
C        3.46006253       1.61557590       4.76834223       0.00000000   14920.21759316    9115.44725854    8500.05096268
C        3.88435137       3.50781795       4.77688733       0.00000000   32047.45335112   -9655.69335680   31195.25858970
C        4.70387353       4.67273517       4.32311830       0.00000000    7730.44666705  -14062.16245481   19725.42163937
C        2.04906088       8.99015157       3.27951667       0.00000000    -426.51855530     113.89997131     162.88321437
C        5.55485914      -0.37869951       3.41150250       0.00000000  -47143.02491208   78141.26960358 -107411.05739122
C        6.24820883       2.10371850       4.30884236       0.00000000  -18490.08845762   10592.77116336   36164.08982178
C        7.00626284       4.95799540      -0.07599455       0.00000000    -163.55418645    -325.55145786    -222.71018991
C        9.43301399      16.04702392      13.31892547       0.00000000      -0.68777637       1.30954249       2.67848394
C        2.57266037       4.94331658       2.55669475       0.00000000     188.03257131     494.03333410    -465.45390761
C        7.40023965       2.66082981       5.20749950       0.00000000  -29340.11597627    5045.82050391   13145.40892724
C        5.65879474       0.13556086       2.24710681       0.00000000  -48689.82713711  -32607.69640048   89429.65652502
C        4.58108823       3.07724521       4.83892712       0.00000000   44273.45231141   -9957.75244633   79398.85004464
C        9.33894972      10.78489359       5.97097408       0.00000000    1964.41953326    3953.86012749    1888.60362040
C        6.45367710       8.49053725      -0.45689983       0.00000000    -107.72181322      -0.27582830      48.98875495
Sc       5.64735377       3.27115349       7.25074539       0.00000000 2723839.23685059 -1901254.90087281  -90930.91894759
O        4.80345024       2.76032489       7.65989224       1.00000000  -84407.69333477  -80338.81641112  -49649.28232925
O        5.64550751       3.26543300       7.23800707       1.00000000 -2651917.76482359 1933175.53288534 -157407.73519444
