52
Lattice="12.336457 0.0 0.0 -6.168228499999997 10.683685154694365 0.0 0.0 0.0 15.0" Properties=species:S:1:pos:R:3:forces:R:3 energy=-454.85564905929914 free_energy=-454.85564905929914 stress="0.0055717352622272264 2.9450971654174262e-05 4.0214263537849466e-05 2.9450971654174262e-05 -0.002703606819881673 -8.166079153679048e-06 4.0214263537849466e-05 -8.166079153679048e-06 3.772380725399591e-05" pbc="T T T"
C        0.00443520      -0.09272939       3.62214561      -0.00133244      -0.00455275       0.00545596
C       -1.20870622       2.06902703       3.73962011      -0.00568830      -0.00330574       0.00022222
C       -2.43685562       4.18494690       3.74021730       0.00144918      -0.00028158       0.01016005
C       -3.69973069       6.30687557       3.62173293       0.00239461       0.00199037       0.00041512
C       -4.93914572       8.43700666       3.55863004       0.00116608       0.00054886       0.00562177
C        2.46829495      -0.14280548       3.55057968       0.00057003      -0.00556699      -0.00756861
C        1.26677636       2.00299103       3.70463045      -0.00872552      -0.00560337      -0.01563357
C        0.11380041       4.21595599       3.87134760      -0.01107792       0.00128973      -0.00428574
C       -1.23077046       6.32722633       3.71788522      -0.00104797       0.00437524      -0.00601134
C       -2.46116985       8.43671460       3.57112172       0.00444830      -0.00009110      -0.00058238
C        4.93289444      -0.09390387       3.61813468      -0.00066673      -0.00392520       0.00626886
C        3.67153733       2.00149833       3.68818336       0.00250143       0.00064878      -0.00114778
N        1.12415589       6.41117894       4.15534590      -0.00258093      -0.00674421      -0.00697151
C       -0.00377405       8.46668246       3.72771909      -0.00161504       0.00104997       0.00345303
C        7.40102557      -0.07363204       3.73093861      -0.00000660      -0.00033482       0.00175756
C        6.14731161       2.06726608       3.72152159       0.00298204       0.00332965       0.00447309
C        4.82427545       4.21294194       3.83403666       0.00401982       0.00015907      -0.00146043
N        3.80358132       6.40299030       4.07272690       0.01190825      -0.00521798      -0.00070046
C        2.46759345       8.45925645       3.89720728       0.00011802      -0.00364059       0.00609277
C        9.87272535      -0.07327982       3.73177617       0.00207393       0.00363005      -0.00127744
C        8.63729551       2.06366984       3.73696487       0.00107005       0.00176933      -0.00081011
C        7.37460568       4.18431459       3.72416296       0.00248356       0.00013565       0.00230313
C        6.16702004       6.32617112       3.67375429       0.00400445       0.00172029       0.00213145
C        4.93925020       8.46659779       3.70165600       0.00053889       0.00457417      -0.00027011
C        0.01693603       1.34059260       3.68451519      -0.01183086      -0.00607433      -0.00586530
C       -1.16156541       3.49701478       3.78745611      -0.00463823      -0.00378575      -0.00442587
C       -2.45647065       5.60270918       3.68463997       0.00272668       0.00064418      -0.00414375
C       -3.70013012       7.72510286       3.56479173       0.00342735       0.00429261       0.00201801
C       -4.94171640       9.85612708       3.55910376      -0.00084198      -0.00050657       0.00334264
C        2.46849865       1.26582298       3.62767092      -0.00098565      -0.00129896       0.00093726
B        1.52874141       3.49400786       3.87331087       0.00937934       0.00877279      -0.01036445
C        0.01307197       5.65475412       3.90281605      -0.00849098       0.00127220      -0.00503519
C       -1.22677087       7.73908552       3.65947002       0.00082855       0.00186303       0.00149561
C       -2.45820201       9.85571639       3.56115666       0.00024540      -0.00421117       0.00123160
C        4.92144233       1.33920533       3.66805061       0.00533975      -0.00376143      -0.00562057
B        3.40937610       3.49143558       3.85525760      -0.00238838       0.01433624       0.00152113
C        1.20991667       7.75511229       3.93598893      -0.00440932      -0.00497645      -0.00480974
C        0.00104084       9.89063027       3.68085869      -0.00039504       0.00034500       0.00405474
C        7.39318295       1.35591151       3.72334361       0.00088229       0.00345063       0.00804001
C        6.10014913       3.49501860       3.76144998       0.00073122       0.00383878       0.00312291
C        4.92260676       5.65175204       3.84223430       0.01188254      -0.00378507       0.00687403
C        3.72392807       7.75328540       3.89697729       0.00490167      -0.00287568       0.00386703
C        2.46834627       9.88697445       3.78139138       0.00242679      -0.00067479       0.00011490
C        9.88166138       1.35671530       3.73142005      -0.00093120      -0.00024641       0.00527514
C        8.63722938       3.48504789       3.73186681       0.00223541      -0.00047030       0.00970133
C        7.39338714       5.60197444       3.66269959       0.00336027       0.00069613       0.00153524
C        6.16238529       7.73898682       3.62884614      -0.00006077       0.00278993      -0.00054255
C        4.93598102       9.89133827       3.67606493       0.00111250       0.00209969       0.00059975
Sc       2.50270772       5.34892389       5.38055917      -0.00414884      -0.00172712       0.00118384
O        2.63331903       6.16312741       6.95242659      -0.00928842      -0.00159887      -0.00271666
O        2.76320701       6.93565444       8.10872655      -0.01086787       0.00310392      -0.00651498
H        2.66209643       6.27929787       8.82819439       0.00081058       0.00253091      -0.00651167
