51
Lattice="12.336457 0.0 0.0 -6.168228499999997 10.683685154694365 0.0 0.0 0.0 15.0" Properties=species:S:1:pos:R:3:initial_magmoms:R:1:forces:R:3 energy=-456.4087759236555 free_energy=-456.4087759236555 stress="-0.0021576554419026135 0.00012853974422144326 7.406099049301495e-05 0.00012853974422144326 0.003226954716239708 6.158223372175703e-05 7.406099049301495e-05 6.158223372175703e-05 -2.7408001122571263e-05" pbc="T T T"
C       -0.00256530       0.03088042       3.70652981       0.00000000      -0.00786103      -0.00256136      -0.00525982
C       -1.24776240       2.16550280       3.68816242       0.00000000      -0.00355062       0.00464313      -0.03385957
C       -2.48997787       4.30832581       3.36866986       0.00000000       0.00615761       0.02774807       0.01134551
C       -3.70861591       6.45776446       3.30640197       0.00000000      -0.00663386       0.01068661       0.01741379
C       -4.93446805       8.59971875       3.48854179       0.00000000      -0.00150691       0.01731809      -0.01145277
C        2.46535836       0.05784786       3.78833095       0.00000000       0.00296376      -0.01858514       0.02563341
C        1.20272832       2.13662985       4.14612124       0.00000000      -0.00020644       0.00114343      -0.02382607
C       -0.09097261       4.34871497       3.80511229       0.00000000      -0.00833958       0.02392467      -0.02497749
C       -1.26039264       6.46384851       3.45360583       0.00000000      -0.00051515       0.00432466      -0.04214715
C       -2.47812524       8.60069703       3.48264823       0.00000000       0.00095710       0.00155751      -0.00618941
C        4.93007589       0.02893158       3.73837464       0.00000000      -0.00789418       0.01525321       0.00082074
C        3.73404849       2.13402786       4.25850372       0.00000000      -0.01412779      -0.01678084      -0.04271747
N        1.08890427       6.46671846       4.09243489       0.00000000      -0.07171497       0.02736399      -0.02087693
C       -0.01415449       8.56785887       3.65787242       0.00000000       0.00423276       0.00892386      -0.01351314
C        7.40261362       0.00784941       3.68559942       0.00000000      -0.00774527       0.00644737      -0.01701361
C        6.17305418       2.16360201       3.76365219       0.00000000       0.00819761       0.01465785       0.01331764
C        5.02266317       4.34429231       3.98322876       0.00000000      -0.04203310       0.02080122      -0.00036457
N        3.83983602       6.47674183       4.13290955       0.00000000       0.06380370       0.02697112      -0.02922763
C        2.46183996       8.52296149       3.86788819       0.00000000       0.01195899      -0.02736953      -0.04611902
C        9.85872322       0.00897250       3.67079945       0.00000000      -0.00512975       0.01395413       0.00098217
C        8.62672855       2.15877623       3.52800531       0.00000000       0.00889550      -0.00257082      -0.00597969
C        7.40019564       4.31079156       3.42585495       0.00000000       0.03949472      -0.01927341      -0.00336522
C        6.18243854       6.46222629       3.51006043       0.00000000       0.02409744      -0.01006516      -0.00057930
C        4.93791660       8.57084331       3.66611047       0.00000000      -0.00542904      -0.01369380      -0.00848478
C       -0.00113325       1.45727185       3.84679464       0.00000000      -0.00290393       0.00638729       0.02223275
C       -1.25993365       3.60519362       3.58115386       0.00000000      -0.00522752       0.00655002      -0.01327322
C       -2.48018692       5.73635477       3.32737423       0.00000000      -0.00655302       0.02338819       0.00737875
C       -3.70658153       7.88515501       3.39429780       0.00000000      -0.00680709       0.01703685       0.01250644
C       -4.93114993      10.02356468       3.65051789       0.00000000      -0.00428622       0.00184638       0.03901545
C        2.46864262       1.47767749       4.10415132       0.00000000      -0.01054851      -0.01864969      -0.01423461
B        0.96370375       3.58442647       4.58834857       0.00000000      -0.02287548       0.02722987      -0.04111709
C       -0.04590259       5.76997531       3.74774491       0.00000000       0.04459970       0.00385016      -0.01354111
C       -1.24864425       7.88102325       3.50281825       0.00000000       0.00424915      -0.00189860       0.01202184
C       -2.47695962      10.02185940       3.66310171       0.00000000       0.00487724       0.00031856       0.02798018
C        4.92975377       1.45395992       3.92570413       0.00000000       0.00466186       0.00775173       0.04117906
B        4.00972174       3.55080898       4.83343122       0.00000000       0.03455492      -0.02262468      -0.01717718
C        1.19305295       7.81521511       3.87515680       0.00000000       0.02354161      -0.01351320       0.01560817
C       -0.00315007       9.99169641       3.68014877       0.00000000      -0.01458088       0.01378289       0.01050207
C        7.39472748       1.44330913       3.63069668       0.00000000       0.00701550       0.00666875       0.01889124
C        6.18077664       3.60533226       3.69217313       0.00000000      -0.00342765       0.01246958      -0.00232143
C        4.98100529       5.76498224       3.85142685       0.00000000      -0.04866985      -0.00138392      -0.03043867
C        3.73146719       7.82316338       3.88826263       0.00000000       0.00247791      -0.04884726       0.02297576
C        2.46250066       9.95623713       3.71886954       0.00000000      -0.00016798       0.00886274       0.05631714
C        9.86275988       1.44419195       3.60398978       0.00000000      -0.00157101       0.00811273      -0.01127916
C        8.62209998       3.58795942       3.40039612       0.00000000       0.03909194      -0.00535728       0.00166858
C        7.39850102       5.73813348       3.37200225       0.00000000       0.01608042      -0.02162667      -0.02014991
C        6.17089006       7.87978703       3.52528616       0.00000000       0.00739084      -0.00485769       0.00698689
C        4.92913172       9.99472823       3.66770660       0.00000000      -0.01166963      -0.00477286      -0.01530983
Sc       2.49857677       5.58164505       5.65290522       0.00000000       0.15303253      -0.31426334       0.40411100
O        3.75255396       4.06273828       6.05637649       1.00000000      -0.06556231       0.34001191      -0.35184414
O        1.27309658       4.16879735       5.76012511       1.00000000      -0.12479404      -0.14129135       0.09775146
