51
Lattice="12.336457 0.0 0.0 -6.168228499999997 10.683685154694365 0.0 0.0 0.0 15.0" Properties=species:S:1:pos:R:3:initial_magmoms:R:1:forces:R:3 energy=-449.18473372452354 free_energy=-449.18473372452354 stress="-0.0012276136793910035 -0.0034159454033414064 0.0001430767442801575 -0.0034159454033414064 -0.005610617973824835 3.4826143755678776e-05 0.0001430767442801575 3.4826143755678776e-05 4.048579433627322e-06" pbc="T T T"
C        0.01077583      -0.07205873       3.65940667       0.00000000      -0.04588853       0.01620356       0.02575761
C       -1.22898654       2.06753327       3.46612687       0.00000000      -0.00550667      -0.00375588      -0.02125155
C       -2.43748748       4.21155974       3.39783041       0.00000000       0.04788490      -0.00406675      -0.00184130
C       -3.66419550       6.34653347       3.56516835       0.00000000       0.02692566      -0.00943000      -0.00308253
C       -4.90689197       8.47636302       3.72543786       0.00000000      -0.02060315       0.01045306       0.00727108
C        2.48640724      -0.10720355       3.60885752       0.00000000      -0.01765569      -0.02219403       0.04437655
C        1.23318188       2.03133397       3.53348442       0.00000000       0.02085426       0.00180619       0.00823970
C        0.06240209       4.16852854       3.46206217       0.00000000      -0.03598798      -0.00749593       0.04641645
C       -1.19399067       6.33904337       3.67485915       0.00000000      -0.00268151       0.00222924      -0.04658724
C       -2.42127958       8.46851740       3.72450875       0.00000000       0.00002055       0.01097320       0.02081952
C        4.94811197      -0.04746140       3.68031880       0.00000000       0.00671842       0.00763933      -0.02224341
C        3.66268164       2.04060147       3.42970187       0.00000000       0.00422975      -0.00883649      -0.02863411
P        1.30107621       6.19701051       4.65031223       0.00000000       0.01502041       0.00408901      -0.00729705
C        0.02125286       8.52101769       4.06907543       0.00000000      -0.02650067      -0.00676986      -0.01986096
C        7.40929974      -0.01925185       3.81057797       0.00000000       0.00206468      -0.01068541       0.00562379
C        6.16086684       2.09742249       3.46733180       0.00000000       0.01192038      -0.00032601       0.00197680
C        4.95172370       4.29297729       3.53803599       0.00000000      -0.00103762      -0.01997901      -0.01782786
B        3.95278581       6.40311706       4.72933533       0.00000000       0.00707807       0.00970202      -0.02802568
C        2.50884918       8.58361384       4.31046244       0.00000000      -0.00703753       0.01393666      -0.04669559
C        9.88052924      -0.02926158       3.77178258       0.00000000       0.02150604      -0.00167482       0.02484010
C        8.63744704       2.08540029       3.46877849       0.00000000       0.01654546       0.02637221       0.05633984
C        7.41639769       4.22558382       3.43239266       0.00000000       0.01140349       0.03207784       0.02761023
C        6.21673330       6.36765090       3.74836569       0.00000000      -0.00013724       0.00019363       0.02805493
C        4.95642451       8.51863432       4.01180062       0.00000000       0.02179419      -0.02941346       0.02279216
C       -0.00691997       1.34065087       3.54180909       0.00000000      -0.00804829       0.01634450       0.01146710
C       -1.20482035       3.48443296       3.37754419       0.00000000       0.01535764      -0.01715396       0.00054615
C       -2.43374595       5.63393885       3.50652961       0.00000000       0.02857545      -0.02134269      -0.01604344
C       -3.66316841       7.76462897       3.66904071       0.00000000       0.00033278       0.00189097      -0.01935186
C       -4.91800550       9.88974135       3.67502084       0.00000000      -0.04680339       0.01091136      -0.00130405
C        2.46083359       1.29809906       3.52121052       0.00000000       0.00515744      -0.02281749      -0.01739328
C        1.31102261       3.43890541       3.60732923       0.00000000       0.01858183       0.01881125      -0.02811976
C       -0.00836776       5.57132864       3.68433602       0.00000000      -0.04672757      -0.01594280      -0.02169355
C       -1.18534206       7.76637733       3.84626787       0.00000000      -0.00936763       0.00165578      -0.00506271
C       -2.43670512       9.89175708       3.67628239       0.00000000       0.00134684       0.01144386       0.04296740
C        4.93077623       1.37622764       3.51046724       0.00000000       0.00867923       0.00287698       0.00003532
P        3.31655079       3.71028107       2.99382933       0.00000000       0.00959121      -0.00088264      -0.00163560
C        1.24428563       7.91826114       4.45007344       0.00000000      -0.00731024       0.00539010      -0.05406982
C        0.01020932       9.94650038       3.86755666       0.00000000      -0.00943844      -0.01182211      -0.02506592
C        7.39745681       1.38674616       3.56201463       0.00000000       0.02011187      -0.00317453       0.01623671
C        6.16867833       3.52527469       3.42251785       0.00000000       0.00001521      -0.00016883      -0.00312794
C        5.00982082       5.66262471       3.85487832       0.00000000       0.02609325      -0.02826137       0.00290385
C        3.74974972       7.87425414       4.34517539       0.00000000      -0.00380309       0.01376764      -0.00838161
C        2.48317967       9.97370374       3.97680807       0.00000000       0.01119077       0.01095125      -0.03378124
C        9.86980381       1.37310126       3.54292769       0.00000000       0.01274979       0.00086805       0.01872262
C        8.65094134       3.50774451       3.39306737       0.00000000       0.03276423       0.04149974       0.02634290
C        7.43672774       5.64482010       3.54639108       0.00000000       0.00429440       0.03187167      -0.02068719
C        6.20095406       7.78905393       3.85319448       0.00000000       0.00292346      -0.01163913       0.02132382
C        4.94812805       9.93415887       3.81271096       0.00000000      -0.00393253      -0.03791889      -0.03262055
Sc       2.64790131       4.31343265       5.65493722       0.00000000      -0.08505314       0.17991570       0.07865826
O        1.13912484       5.48506323       6.07531043       1.00000000      -0.10528676       0.02623215      -0.02459321
O        3.77453872       5.81555121       5.96498799       1.00000000       0.07707602      -0.21435489       0.01695611
