52
Lattice="12.336457 0.0 0.0 -6.168228499999997 10.683685154694365 0.0 0.0 0.0 15.0" Properties=species:S:1:pos:R:3:forces:R:3 energy=-451.02018158166777 free_energy=-451.02018158166777 stress="-0.005011050242231529 -0.0015556719271583455 9.090080762675958e-06 -0.0015556719271583455 -0.007993118449423601 9.881461018410424e-06 9.090080762675958e-06 9.881461018410424e-06 -4.286663750423078e-05" pbc="T T T"
C        0.05789304       0.00034580       3.74949602      -0.00607880      -0.00098243      -0.00215703
C       -1.18554628       2.13604562       3.76286604      -0.00454066      -0.00317156       0.00254885
C       -2.40208244       4.27403322       3.80800894      -0.00126824       0.00429577       0.00319391
C       -3.62505094       6.40757590       3.82864572       0.00522032      -0.00232505       0.00175992
C       -4.86944893       8.54380463       3.81298381      -0.00419434      -0.00202664       0.00036648
C        2.52826716      -0.02658989       3.70081338      -0.00292226      -0.00124581      -0.00126103
C        1.28373668       2.12735311       3.69259513       0.00011621       0.00095181       0.00882843
C        0.07624416       4.24558572       3.90337415      -0.00086383       0.00433264      -0.00875008
C       -1.15714398       6.41081671       3.89897642       0.00141775       0.00100235      -0.00768669
C       -2.40196485       8.53723988       3.81672352      -0.00203439      -0.00335330      -0.00957842
C        4.99527564      -0.01456259       3.65272079       0.00477884       0.00192712      -0.00410131
C        3.74145190       2.04829755       3.32049060      -0.00191395       0.00117957      -0.00661187
C        1.32652056       6.41526338       4.04639272      -0.01007495       0.01145465       0.00329257
C        0.06240871       8.54065949       3.84946856       0.00048565      -0.00877661      -0.00487773
C        7.44849297       0.01384942       3.70909924       0.00268890      -0.00509150      -0.01102874
C        6.21847676       2.13880610       3.49919103      -0.00189380      -0.00318821       0.00641078
C        5.06314900       4.31447803       3.40084761       0.00144695       0.00239743       0.00603456
B        3.73073250       6.46123537       3.87887961      -0.00531249       0.00949679       0.00854629
C        2.51572843       8.58845499       3.83700499       0.00598666       0.00799674      -0.00281071
C        9.92162748       0.01708394       3.74464380       0.00827442      -0.00736399       0.00200450
C        8.68499783       2.14568062       3.69191742       0.00247814      -0.00365468      -0.00384265
C        7.47580503       4.27946364       3.68186810      -0.00438048       0.00408081      -0.00668836
C        6.24381593       6.42105648       3.78583744       0.00011729       0.00535097       0.00507177
C        5.00943770       8.57207326       3.79317901       0.00299982       0.00009874       0.00336699
C        0.04355218       1.41710721       3.73341312      -0.00344085      -0.00250360      -0.00465720
C       -1.18695723       3.55101658       3.81986222      -0.00360543       0.00049202       0.00065550
C       -2.38882689       5.69921179       3.85105688       0.00660474       0.00274552      -0.00800602
C       -3.63233558       7.83035270       3.83039171      -0.00144897      -0.00640962       0.00319784
C       -4.87614354       9.95991392       3.76805501      -0.00551621      -0.00315928      -0.00089968
C        2.52160383       1.38776334       3.57649106      -0.00216591      -0.00078979       0.00011349
C        1.23427520       3.48749572       3.87317907      -0.00044710       0.00343769      -0.00008896
C        0.11028279       5.70951303       3.96522855      -0.00266826       0.00505069       0.00136326
C       -1.16435628       7.82808466       3.86303079      -0.00141188      -0.00225778       0.01068736
C       -2.40252570       9.95494970       3.72558200       0.00309815       0.00070365      -0.00737009
C        4.99388356       1.40833423       3.47558690      -0.00343109       0.00650721       0.00746583
S        3.64570648       3.65634928       2.67673303       0.01116882      -0.00431606       0.00768871
C        1.30982178       7.81880032       3.91589610       0.00595028       0.00433552      -0.01053760
C        0.05975137       9.96254917       3.73893820       0.00221032      -0.00862514       0.00368861
C        7.44521406       1.43592807       3.62917817       0.00105218      -0.00620781       0.00178880
C        6.24785508       3.55737848       3.50588656       0.00064872      -0.00424557      -0.01093192
C        5.00601432       5.69938659       3.70706877      -0.00011428       0.00625161      -0.00496802
C        3.75685886       7.91254582       3.81387041       0.00371341       0.00819492       0.00840054
C        2.51290078      10.00188244       3.76376237       0.00731486       0.00298883       0.00098061
C        9.91375580       1.43193755       3.73186684       0.00110443      -0.00746843      -0.00185497
C        8.69973072       3.56671964       3.72680525      -0.00207330       0.00301321       0.00114119
C        7.47750016       5.70150624       3.77215561      -0.00227574       0.00606915      -0.00341560
C        6.23176948       7.84006782       3.81557097      -0.00287163       0.00387404       0.00347178
C        4.99458741       9.98905992       3.76459619       0.00032727      -0.00501392       0.00111156
Sc       2.51961842       4.76756534       4.99163054       0.00069006      -0.00865504      -0.00297022
O        1.85356663       4.73710384       6.66825350       0.00035041      -0.00713979       0.00246433
O        1.24177751       4.69101720       7.92276212      -0.01447163      -0.00229330       0.00578753
H        1.99945181       4.68820765       8.54095085       0.01117594       0.00203546       0.01366293
