52
Lattice="12.336457 0.0 0.0 -6.168228499999997 10.683685154694365 0.0 0.0 0.0 15.0" Properties=species:S:1:pos:R:3:initial_magmoms:R:1:forces:R:3 energy=-458.56316675891986 free_energy=-458.56316675891986 stress="-0.002014341324405158 -0.006658358566163686 2.4679935142304635e-05 -0.006658358566163686 0.006020783067866375 -4.591929426645304e-05 2.4679935142304635e-05 -4.591929426645304e-05 -4.307226345343826e-06" pbc="T T T"
C        0.00910680       0.00826234       3.63903859       0.00000000       0.01000502       0.00193191       0.00864345
C       -1.27288105       2.10069755       3.61728270       0.00000000      -0.00371191       0.00290738      -0.02006893
C       -2.51511749       4.25374076       3.61719481       0.00000000       0.01162897      -0.00248709      -0.00606538
C       -3.68356682       6.41180528       3.64914475       0.00000000       0.00473514      -0.00368352      -0.00699180
C       -4.89585469       8.56710768       3.66387219       0.00000000      -0.00909455      -0.00516963      -0.00469620
C        2.49132706       0.02945190       3.62372330       0.00000000       0.01396998       0.01058316      -0.02047769
C        1.21855146       2.15051368       3.58228016       0.00000000      -0.00790356      -0.00034747      -0.00886964
C       -0.08853008       4.22049066       3.55227327       0.00000000      -0.00120741      -0.01034323       0.02013020
C       -1.22530917       6.38676841       3.58479883       0.00000000      -0.00447078      -0.00217253       0.00023467
C       -2.42513141       8.54899663       3.62133075       0.00000000      -0.00605771       0.00596956       0.00210715
C        4.95179711       0.00681504       3.65513364       0.00000000       0.00785909       0.00323297       0.00400951
C        3.68046130       2.22270580       3.64817364       0.00000000       0.01063436      -0.00303256       0.00951651
B        2.31235587       4.53651459       3.59302044       0.00000000      -0.01801038       0.01481089      -0.02831640
B        1.38519327       6.14767847       3.58690265       0.00000000      -0.00914472      -0.01473684      -0.00740466
C        0.07153475       8.47946949       3.65089597       0.00000000      -0.00313231       0.00663449       0.01418665
C        7.40758927      -0.03041811       3.72256957       0.00000000      -0.00561901      -0.00128313      -0.01001506
C        6.14923442       2.15091164       3.70637989       0.00000000      -0.00535466      -0.01047880       0.01506568
C        4.90970604       4.34569292       3.83848634       0.00000000       0.00137345       0.01753026      -0.00271963
O        3.92393900       6.56131068       4.44440969       0.00000000      -0.00081202      -0.01374908      -0.01662321
C        2.51426565       8.47853265       3.82135621       0.00000000       0.00658880      -0.00529486       0.01774921
C        9.86130545      -0.02942723       3.72029728       0.00000000       0.00209790      -0.00399029       0.00778627
C        8.60673748       2.11636995       3.69344471       0.00000000      -0.00630739       0.00422461      -0.00962981
C        7.37816762       4.27796099       3.71716821       0.00000000      -0.00298469       0.00271982      -0.00609121
C        6.21176072       6.44414510       3.80121492       0.00000000       0.00711605       0.00764629      -0.00862584
C        4.97883564       8.55873827       3.77319170       0.00000000       0.01062969      -0.00208665       0.01869779
C       -0.01716281       1.41990284       3.60299436       0.00000000      -0.00694239       0.00529286       0.01556189
C       -1.30882040       3.51550825       3.57790064       0.00000000       0.00437912      -0.00518200       0.02417206
C       -2.47566508       5.68171390       3.60891658       0.00000000       0.00548423      -0.00461429      -0.00012943
C       -3.66049502       7.84391722       3.64012957       0.00000000      -0.00935078      -0.00026541       0.00180517
C       -4.90675043       9.99670189       3.63587867       0.00000000       0.01409272       0.00290100       0.00277413
C        2.47364085       1.46391943       3.61480031       0.00000000       0.00299343       0.01373840      -0.00991284
C        1.15126219       3.55464794       3.55362695       0.00000000      -0.00506800      -0.00514961      -0.00860771
C       -0.04182462       5.62906011       3.56346106       0.00000000      -0.01509832      -0.01489053      -0.00592374
C       -1.19180630       7.81555838       3.61205643       0.00000000      -0.00445683       0.00259293      -0.00358085
C       -2.44264837       9.98267538       3.63028406       0.00000000       0.01128432       0.00796799      -0.00046327
C        4.91737990       1.45526495       3.67108115       0.00000000       0.00666061      -0.01013779       0.02788763
C        3.64063952       3.69014638       3.70625737       0.00000000       0.00824969      -0.00226711      -0.00228667
C        1.31813921       7.71898009       3.68754252       0.00000000       0.00234764       0.00036998       0.00071734
C        0.02182437       9.93689078       3.68063494       0.00000000      -0.00262103       0.00570113      -0.00385790
C        7.38176277       1.40898396       3.71125411       0.00000000      -0.00723427      -0.00183213       0.00156738
C        6.14268032       3.58627898       3.74401748       0.00000000      -0.00426681      -0.00403644       0.01684935
C        5.02383521       5.75831152       4.01919813       0.00000000       0.00073906       0.01500972       0.02156901
C        3.78736164       7.86804274       3.97292850       0.00000000       0.00220225      -0.00760011       0.00181156
C        2.47648546       9.92624686       3.76411257       0.00000000      -0.00320017      -0.00613054      -0.02765002
C        9.83909366       1.39416284       3.67789282       0.00000000      -0.00367986       0.00262025      -0.01432475
C        8.59865713       3.54502293       3.67436036       0.00000000       0.00567742       0.00488771      -0.00887369
C        7.41787216       5.70174801       3.71191895       0.00000000       0.00208433       0.00148809       0.00041667
C        6.22027836       7.86354472       3.74378007       0.00000000      -0.00366104      -0.00815719      -0.00049373
C        4.94480385       9.97744157       3.69758312       0.00000000       0.00846948      -0.00564177      -0.00418627
Sc       3.53901819       5.36755283       6.22110561       0.00000000       0.03423534      -0.11582716       0.07684767
O        1.88935381       5.72236274       6.81129583       1.00000000      -0.02316191       0.00941436       0.02939352
O        2.14536224       4.31470914       6.67291188       1.00000000      -0.02298559       0.12041202      -0.09261415
