51
Lattice="12.336457 0.0 0.0 -6.168228499999997 10.683685154694365 0.0 0.0 0.0 15.0" Properties=species:S:1:pos:R:3:initial_magmoms:R:1:forces:R:3 energy=-776354.3426810008 free_energy=-776354.3426810008 stress="467.0087646392503 -391.90789116676603 -90.1627852990435 -391.90789116676603 739.2334622843932 83.89103010173054 -90.1627852990435 83.89103010173054 -9.252550964210515" pbc="T T T"
C       -2.62530161      -1.00446679       3.33965022       0.00000000      25.23210325    -400.41893509       6.71113101
C       -1.18974333       6.16138889       1.23626026       0.00000000     974.06384237     929.77939506   -1718.63806187
C       -0.05430186       7.60914101       1.44130840       0.00000000     -53.84164640      66.39588411    -111.67013974
C      -10.96911590       6.43425697       6.50054480       0.00000000     205.14991777    -177.32923742    -146.90310956
C       -4.51476903       8.87484576       1.25043621       0.00000000     -72.37397563     -49.20371620       1.21006935
C        2.26525744      -2.03145457       0.84012421       0.00000000     136.65642684     122.25839013    -129.56206976
C        3.11046565     -14.32572684      13.75455976       0.00000000     -65.73356446     129.53462903    -146.66034815
C       -0.82110633      10.14193743      -8.77697336       0.00000000     -36.97122319      23.72161658      -8.77047916
C       -6.71980475      10.29052770      -0.50788346       0.00000000      -3.44224051      17.15953982     -18.93896525
C       -3.25779863       6.89541424       8.56014168       0.00000000      -1.02786966      -2.02423133      -1.09296781
C       10.52368176      -3.32697780       9.16573651       0.00000000       0.56181219       2.15542575       1.29542486
C        7.43653843       1.98547955       9.70677367       0.00000000       3.53728874       1.71432545      20.31470888
B        1.93219981       8.56681188      -7.60032167       0.00000000       5.79617537      -0.15976038       9.64976479
C        2.48896244       3.65219887       6.70017438       0.00000000    -159.88018214      92.26655739     736.77109757
C        6.94339328       2.38927299       5.24452627       0.00000000   28125.30845667   14328.72111566   15245.12292294
C        7.42872018      -1.26768654       4.12310587       0.00000000      38.33153621    -228.06803567    -115.40459849
C       10.86208268      -6.91391361       5.69921506       0.00000000     193.44147348    -465.83208254    2496.45517444
N        4.05285918      11.54488821       9.46689127       0.00000000      -2.29698570      -1.56722378      -2.03267097
C        0.88336258      10.86740089       5.32003298       0.00000000     236.25759034    2616.22013896     -86.54701789
C       10.90948784       5.87459790       1.76086240       0.00000000    -188.90363591   -1004.41245622    1687.00808887
C        8.07867986       4.11124943       2.18371507       0.00000000    -622.09875308    -227.33767298    -193.04887718
C        7.82010002       2.92994266       6.91942805       0.00000000     353.38559104    -126.10000462    -105.89225091
C        7.31212133       7.90563478       1.68885894       0.00000000    -196.49244983     -16.28650793     -41.67109397
C        3.49542596      10.83491547       3.98215726       0.00000000      31.16720477     -86.16468889     -67.83388965
C       -0.18527848      -1.99395733       2.09851953       0.00000000    -375.74981767    -125.57109304     103.13781322
C       -2.69065405       5.61388250       2.07918857       0.00000000     353.10960101    1695.03371208    -932.84759962
C        2.75252417       4.78343727       6.20338679       0.00000000    -770.41104234    -134.39930256    3355.68034704
C       -3.79010075       7.81888294       1.79877936       0.00000000      47.05728224    -114.88240595     136.53672954
C       -6.08803445      14.15495991       6.31684953       0.00000000     387.01959754      94.39894869    -388.96551937
C        4.74493942       2.94749512       9.11335017       0.00000000       6.21327844      -9.79677476      36.14690770
N        2.33918008       1.89913498       7.13658813       0.00000000     193.06398383     398.44808308    -637.75076500
C       -3.90380344       7.70969055       3.77161564       0.00000000      20.15103499      34.73731181      24.87542845
C       -5.49124335       3.60769567       6.22944832       0.00000000     150.95002339    1058.47840700    1213.20976595
C       -2.06119065       8.71509141      -2.41532380       0.00000000       0.41590648      -0.07464666       0.29749451
C        5.63399279       3.48461435       4.74006890       0.00000000    7773.21256774   -4156.28565003   10857.61572612
B        4.16605544       3.76787414       2.47439992       0.00000000 -751707.76122654 2217943.76227623  259624.41939260
C       -0.38557101       8.53959576      -7.68339516       0.00000000       2.40388775      -6.96619935       2.94089853
C        0.40385430      12.85851024       5.05602604       0.00000000  -28587.33968844  -14100.92021412  -17048.97395822
C        6.88904949      -0.35447820       5.31714717       0.00000000    -548.56036563   -2669.48224401      99.22925229
C        7.76378847       3.38694542      10.84630344       0.00000000      -1.32250886      -4.95245914      -4.91130990
C        4.69114288       6.12763277       2.42297001       0.00000000  -63151.67968972 -132354.43290861    9063.08147059
C        3.32992831      15.80943288       2.37192408       0.00000000    -744.80532524   -1840.64977764     979.19545083
C        2.15054683      11.90915255       5.73058150       0.00000000    -183.40264145     436.57236104     -99.08790979
C       11.45071313       3.51676880       3.87946663       0.00000000      33.42741181     -55.41307518     -19.11169981
C        3.77032985       3.42806058       9.11547023       0.00000000     -26.22887189      17.16302035       3.65971169
C        7.08927078       4.71513485       0.91992905       0.00000000    2456.72142168     -88.06573874    -797.19337818
C        8.64926419       6.37761954       1.63914482       0.00000000    -282.43023702    -173.44135700     -30.40894788
C        2.98771096       9.87391011       8.54847970       0.00000000       0.81523403      -1.76288757       2.19175343
Sc       3.75331775       4.32624826       2.55700220       0.00000000 -6031922.51960646 -2273153.73766862  216946.45700642
O       -1.27790844      -1.56506536       1.45148070       1.00000000     118.68758857    -261.55539581     -22.09907896
O        3.66844641       4.39457935       2.57016615       1.00000000 6837833.13530920  192028.77321363 -499777.19682451
