51
Lattice="12.336457 0.0 0.0 -6.168228499999997 10.683685154694365 0.0 0.0 0.0 15.0" Properties=species:S:1:pos:R:3:initial_magmoms:R:1:forces:R:3 energy=-447.0191828429962 free_energy=-447.0191828429962 stress="0.0012055419225977027 -0.0011109595771733984 0.00023963399717535002 -0.0011109595771733984 0.00813320595939425 -0.0002249125472083177 0.00023963399717535002 -0.0002249125472083177 0.0003807610752478978" pbc="T T T"
C        0.00284866      -0.03712954       3.67968687       0.00000000      -0.00282993       0.00278644       0.00686994
C       -1.25456106       2.07418240       3.67202682       0.00000000      -0.01979981      -0.00709122       0.00015847
C       -2.48308844       4.22039415       3.57687167       0.00000000      -0.00142850      -0.00259684       0.00126121
C       -3.69752670       6.37315436       3.51197482       0.00000000      -0.00039886      -0.00154930       0.00360007
C       -4.92408151       8.52005384       3.55910798       0.00000000      -0.00153712       0.00145605       0.01122496
C        2.46810434       0.01520437       3.77211423       0.00000000       0.00087229       0.00627952       0.00043475
C        1.18451238       2.12172569       3.83417641       0.00000000      -0.01061729      -0.02283361      -0.00289584
C       -0.05410673       4.17260706       3.84018692       0.00000000      -0.02004718       0.03565029      -0.00493236
C       -1.25052831       6.33756268       3.82816891       0.00000000      -0.00255938      -0.00500706      -0.00242852
C       -2.46076587       8.50828339       3.77324320       0.00000000       0.00292423       0.00097067      -0.00142770
C        4.92767103      -0.03484169       3.85392601       0.00000000       0.00160784       0.00327032      -0.00933836
C        3.71859471       2.13241884       3.86444151       0.00000000       0.00796120      -0.01962331      -0.00706083
B        1.06721605       6.28835739       4.59565619       0.00000000      -0.00029307       0.00462894      -0.02473271
C        0.01208626       8.47786883       4.04431616       0.00000000       0.00826302       0.00692765      -0.00808550
C        7.39854256      -0.06683965       3.81920118       0.00000000      -0.00033583       0.00664396      -0.00126468
C        6.16328576       2.09172742       3.63078524       0.00000000       0.01452815      -0.00703755      -0.00497882
C        4.96738557       4.23406209       3.45168738       0.00000000       0.00038575       0.03240885       0.01070896
O        3.70905553       6.40640899       3.36932030       0.00000000       0.03086424       0.06739614      -0.03425069
C        2.46720683       8.44433331       3.95217483       0.00000000       0.00807795       0.00079185       0.00576098
C        9.85604769      -0.07560404       3.71334325       0.00000000       0.00149609       0.00346704       0.00569635
C        8.62227593       2.07550543       3.59964987       0.00000000       0.00086610      -0.00344904       0.00156118
C        7.39781319       4.22972359       3.40953264       0.00000000       0.00148580       0.00071930       0.00219446
C        6.18537204       6.38060442       3.31287111       0.00000000      -0.00003225      -0.00688556       0.00460636
C        4.93827279       8.49029824       3.60630914       0.00000000      -0.01939210       0.00680263       0.01514934
C       -0.00309376       1.39591343       3.73214729       0.00000000       0.02176319      -0.00595423       0.00162281
C       -1.25698926       3.48936249       3.66821184       0.00000000      -0.00221301       0.00933570       0.00063163
C       -2.47895767       5.64538475       3.61162966       0.00000000       0.00475383       0.00437113       0.00272477
C       -3.68879020       7.80205023       3.60095291       0.00000000       0.00002622       0.00127371       0.00432532
C       -4.92112822       9.95926685       3.67206609       0.00000000       0.00039309      -0.00373451       0.00793814
C        2.45867460       1.47509490       3.84254021       0.00000000       0.00049106       0.01047937      -0.00970401
O        1.13563007       3.48967204       3.93473331       0.00000000      -0.02074662      -0.03991335      -0.05201724
C       -0.07202920       5.56469309       3.99808411       0.00000000       0.00905654      -0.03032096       0.00020884
C       -1.23283602       7.77559348       3.90902071       0.00000000      -0.00919601       0.00354468      -0.00523255
C       -2.47483582       9.95275096       3.81427424       0.00000000      -0.00016434      -0.00197404      -0.00563247
C        4.91788504       1.40907265       3.78889035       0.00000000      -0.01931436      -0.00220944      -0.01371357
O        3.77940001       3.54174864       3.87263785       0.00000000       0.02050088      -0.03096428      -0.04190114
C        1.23988471       7.75921154       4.22720352       0.00000000      -0.00638182      -0.00138502      -0.00232807
C       -0.00504102       9.91631643       3.91263820       0.00000000      -0.00375324      -0.00406357      -0.00961090
C        7.38525749       1.36640708       3.67148156       0.00000000      -0.00173924       0.00071968      -0.00140616
C        6.16919470       3.50869649       3.44577340       0.00000000       0.01068725       0.00490477      -0.00000514
C        4.98212557       5.64345797       3.28196543       0.00000000       0.01166837      -0.01901871       0.00601130
C        3.71788119       7.78692023       3.73214764       0.00000000       0.01540272      -0.00328965       0.01065943
C        2.46188189       9.88936571       3.82233747       0.00000000      -0.00019801      -0.00551018       0.00289574
C        9.85681055       1.35914839       3.65353707       0.00000000       0.00234386       0.00247731       0.00304018
C        8.62506846       3.50432678       3.50963885       0.00000000       0.00075654       0.00346050       0.00357579
C        7.40940414       5.65501667       3.37413926       0.00000000      -0.00004239       0.00115931       0.00333305
C        6.18355276       7.80480529       3.45825659       0.00000000       0.01506071       0.00483881       0.01043239
C        4.93233130       9.92049157       3.66996887       0.00000000       0.00446599      -0.00251562       0.01053208
Sc       3.45661797       5.43713354       5.11122171       0.00000000       0.35432303      -0.82251953       0.66818848
O        2.58154886       6.08553325       6.71536856       1.00000000      -0.12723155      -0.01161322      -0.50272312
O        1.61784557       5.42807518       5.71567627       1.00000000      -0.28077402       0.83429521      -0.05967659
