52
Lattice="12.336457 0.0 0.0 -6.168228499999997 10.683685154694365 0.0 0.0 0.0 15.0" Properties=species:S:1:pos:R:3:forces:R:3 energy=-447.3796626928519 free_energy=-447.3796626928519 stress="-0.0031642917221851863 -0.0007946469477021879 4.516193990530345e-06 -0.0007946469477021879 -0.006974369678843654 -1.744530662301643e-05 4.516193990530345e-06 -1.744530662301643e-05 6.215878666914876e-05" pbc="T T T"
C       -0.11717221      -0.05462220       3.66277337      -0.00081636      -0.00215578       0.00047448
C       -1.35592437       2.08741645       3.81979713       0.00370555       0.00143643      -0.00865715
C       -2.58643766       4.23304816       3.60268685      -0.00290210      -0.00842090      -0.00342184
C       -3.81309460       6.36557965       3.43613763       0.01026140       0.00012927      -0.00864430
C       -5.04523668       8.50415071       3.45469305      -0.00336552      -0.00940745      -0.00647494
C        2.35363273      -0.07437766       3.70568294      -0.00359563      -0.00234609       0.01030451
C        1.10123741       1.96453398       4.28700078      -0.01070790       0.00850380      -0.00682343
C       -0.20334963       4.25841281       4.14647993       0.00851843       0.00330885      -0.00105016
C       -1.34076383       6.37162520       3.62687038       0.00209269      -0.00195116      -0.00982842
C       -2.57610889       8.49827586       3.47246458      -0.00665465       0.00381784      -0.00603213
C        4.82084935      -0.04770865       3.62249176       0.00219251       0.00486312       0.00852078
C        3.60242733       1.96935683       4.22966697      -0.01035241       0.00623420      -0.00199465
B        1.14865609       6.42920854       4.13875640      -0.00567850      -0.00577213      -0.01164351
C       -0.11895133       8.51772916       3.59052791       0.00225020      -0.00031543       0.00193647
C        7.28617656      -0.02474989       3.54987485      -0.00293712       0.00524809       0.00160923
C        6.05189614       2.09758807       3.73798619       0.00185172       0.00047474       0.00573824
C        4.90015693       4.28282102       4.01771930       0.00490926       0.00016264       0.00624105
C        3.59667146       6.41020742       4.01665436      -0.00967014       0.00098549      -0.00436336
C        2.35956564       8.54226643       3.68973138       0.00704644      -0.00779006      -0.00165178
C        9.75889837      -0.02774399       3.58018815      -0.01292332      -0.01072217      -0.00390246
C        8.51995097       2.10295501       3.57070174       0.00844821       0.00004562       0.00156161
C        7.29043532       4.23833527       3.54764422      -0.00758358       0.00914822      -0.00825680
C        6.05351890       6.38346250       3.52907404      -0.00139589      -0.00463211       0.00595139
C        4.82375719       8.50750818       3.56979557       0.01396881       0.00418654      -0.00929920
C       -0.12687733       1.35071875       3.91906935      -0.00369771       0.00110681      -0.00711766
C       -1.37530866       3.51121701       3.84539558       0.00520549       0.00302748       0.00169540
C       -2.57981758       5.65695965       3.52733056       0.00603888      -0.00808168      -0.00249578
C       -3.81210604       7.79037603       3.42537441      -0.00272295      -0.00136865       0.00860750
C       -5.04980471       9.91669425       3.58326231      -0.00240303      -0.00797651       0.00162983
C        2.35086469       1.29574124       4.08164730      -0.01146289       0.00253234       0.00997822
P        1.04037758       3.50957319       5.12318045       0.00202331       0.00349663       0.00803144
C       -0.13397800       5.66635117       3.93392307       0.00281855       0.00096522      -0.00932599
C       -1.33958428       7.78964002       3.54356082      -0.00512106       0.00193111       0.00490059
C       -2.57918632       9.91607143       3.57446221       0.00053599       0.00462978      -0.00725696
C        4.82804592       1.36171569       3.84864886      -0.00268275       0.00475083       0.00777575
P        3.64930863       3.53951464       4.98461932      -0.00200882       0.00063887      -0.01132721
C        1.12480618       7.85414398       3.76695333       0.00564459      -0.00641439       0.00160846
C       -0.11703426       9.94112744       3.54416535       0.00284265       0.00306528       0.00831454
C        7.28097890       1.39625836       3.58559511       0.00727809       0.00560195       0.00883300
C        6.06801315       3.52610853       3.74130537       0.00058292       0.00003127       0.00996453
C        4.81440657       5.70670944       3.82210612       0.00050836      -0.00120681       0.01660693
C        3.58221881       7.79157085       3.75346889       0.01838722       0.00592447      -0.00207046
C        2.35830139       9.95715785       3.56174061      -0.01374947      -0.00838417       0.01006716
C        9.75693867       1.39156140       3.62790537       0.00531595      -0.00860186      -0.00098590
C        8.51955087       3.52601105       3.54219192      -0.01005576       0.00136539       0.00093391
C        7.28291855       5.66072734       3.47597243       0.00613675       0.00932555       0.01262398
C        6.05267059       7.79890273       3.48745039       0.00461074      -0.00838801       0.00573928
C        4.82033052       9.92717226       3.57750272      -0.00287511       0.00172087       0.00194290
Sc       2.65229152       5.69263632       5.91701414       0.00317641       0.01157057      -0.00551541
O        4.02322117       5.95626891       7.03802862      -0.00171677      -0.01218108      -0.00363351
O        5.14744541       6.20799975       7.82293507       0.00035945      -0.00102177      -0.01563402
H        4.91022900       5.83882450       8.69876865       0.00036881       0.00690889      -0.00418411
