51
Lattice="12.336457 0.0 0.0 -6.168228499999997 10.683685154694365 0.0 0.0 0.0 15.0" Properties=species:S:1:pos:R:3:initial_magmoms:R:1:forces:R:3 energy=-1480105.8132965749 free_energy=-1480105.8132965749 stress="676.6053573683639 -391.69474978294943 37.58339143959471 -391.69474978294943 1335.4815586152465 473.60264569894423 37.58339143959471 473.60264569894423 1212.877257582229" pbc="T T T"
C        1.64637284      -6.11060161       3.15570287       0.00000000    -204.26011494      -7.29190893       1.93283337
C       -3.30996417       0.87310434       1.40263979       0.00000000     -35.52515250      12.65183813     -37.41168489
C       -9.14524676       1.06105569      11.27571801       0.00000000      -2.01784551       3.24203042      -0.43051869
C       -5.16509448       8.58240125       1.34423826       0.00000000     -59.75602447     -97.12507525     -37.17606210
C       -3.28566028       9.06190381       3.03586991       0.00000000     164.88111240    -950.61645506    -443.36879865
C        5.03396173       3.69019771       3.97945900       0.00000000  -23228.66797086   -4295.50904899    7658.89381126
C        1.33719288       2.60491490       4.29453401       0.00000000 -106671.21856869  320183.84753596  453999.38390475
C       -1.27567721       4.60404941       3.38173941       0.00000000    6846.01430103   -8887.55891501    5340.56645692
C        4.04010030       7.77747732      -0.90742514       0.00000000     -70.77538957    -182.68426358    -121.23854282
C       -7.12091323       8.84912598       9.02244275       0.00000000      -5.31598952       2.65267475       4.10405825
C        2.67883206       3.70178339       3.43992937       0.00000000 -110757.95199918  -72491.66694742  167844.20678015
C        2.03823036       2.01550351       4.83905023       0.00000000 -284870.91163544  240615.67849409   90074.93809051
C       -0.02230233       4.14465344       3.74509448       0.00000000   73567.35115804  -68031.63174269   18568.33683689
C        0.58882714      10.41057389       5.73322977       0.00000000     269.34805059    -132.03044548      34.10792062
C       -2.25004212       5.50400051       0.67490652       0.00000000    -126.75773895      82.73595148    -264.44289141
C        6.78458009       4.70735585      -2.94370623       0.00000000      -2.84002853       0.17494224       1.85563967
C        6.99922631       6.73303756       9.84979755       0.00000000      -5.58597829       5.08482718       8.22724318
B        4.84842564       6.99634860       5.47762137       0.00000000    5335.37987056    1900.80817123   -4496.43404966
C        7.97757633       8.09422962       0.09721696       0.00000000      55.10992386    -293.13045653    -244.92115986
C        8.42735649      -0.70099190       1.54767212       0.00000000   -1619.34647659     -88.78674374   -4553.58942191
C        1.71371263      -2.08289483       0.50129904       0.00000000     -39.43605736     265.54387510     156.39955287
C        6.61956762       8.47465344       5.26414450       0.00000000     -27.28264307    -368.10568796      -4.33582026
C       10.32371420       3.53980445       1.25707380       0.00000000    -148.19667185     -33.14893194    -199.00141525
C        7.59745230      14.23193376       3.31897237       0.00000000   31805.47402104  -12644.20895815  200111.05780380
C       -1.33410562      -6.24715778      12.97590617       0.00000000       6.46572269      -0.65409395      -5.63121043
C        2.30787396       9.27368508       8.64856072       0.00000000       0.97263548       0.98006335      -2.97720981
C       -4.48713949       8.02280613      11.83240266       0.00000000      -1.14329007      -1.07707134      -1.39532686
C       -4.90622668       7.80126779       3.30142753       0.00000000    -587.96420566     988.29163247     108.48159916
C       -3.02341623      12.68484917       5.22870270       0.00000000 -127650.67687230   85967.99968895  -44453.93584506
C       -1.98071713      -1.28664927      10.27463044       0.00000000       2.40171804      -3.96508224      -6.24071863
C        1.05664843       2.96843798       4.44001688       0.00000000  576351.51681346 -314997.34423909   39433.61499383
C        3.85574549       7.25297902      -1.19929069       0.00000000      55.87427097     186.51996509      77.36225749
C        7.63469412       6.28233019      -6.04765506       0.00000000       5.01531883      -3.48694345      -9.88555778
C       -4.30262728      12.11878028       4.69443751       0.00000000  -11033.60763490  698526.23805725  132481.37979592
C        6.25821747      -7.53657184       3.71854386       0.00000000  106012.18815129     252.76929560  109942.51391012
S       19.60250879      -5.50295064      -0.29430901       0.00000000     -27.12715911     408.08700554   -1088.50518050
C        3.62942171       7.71792207      -1.79987383       0.00000000      21.49388879      -1.37521911      53.40120932
C       -2.30003469       7.75074219       5.59788872       0.00000000    -958.19677797     884.05596919    -120.44353668
C       11.26205617       3.08514554       4.63939222       0.00000000   98306.62451600  -14362.53384391     455.30709175
C        4.59338367       9.39379906       0.34075733       0.00000000     -10.01017057      -9.62931531     -13.38660992
C        1.85037696       9.07056146       6.65191577       0.00000000     337.39550889    4806.69216378     460.45525261
C        5.94268414       3.73955980      -3.36811868       0.00000000      -3.94534816       2.48330337       4.59319090
C        1.12700279      10.27993563       4.02460547       0.00000000      78.09088287     -39.12349584     -18.77651924
C       10.66373713       4.23833237       6.13470164       0.00000000  -38281.85930875   -9864.84280460  -22457.02764740
C        2.54925243       1.36072017       5.79549795       0.00000000  -16481.76418317   93711.72460741  -75107.58170528
C        5.39712841       6.26420723       2.99513436       0.00000000   -1432.01680663    -945.17770410    1008.59989423
C        7.12417134       8.38047679       3.33592412       0.00000000     577.01371632   -1459.20112420    -231.53222662
C        2.45078684       9.99268325       2.07474109       0.00000000    1600.68005364      53.21656657    4579.17192280
Sc       1.51286603       3.60959482       5.90595686       0.00000000 7558561.56711875 -4585848.38419638 -4373416.66559098
O        0.59089203       2.50917346       7.27332679       1.00000000   -6417.00451062   79950.19248068   39803.68195120
O        1.52758762       3.55910507       5.84093239       1.00000000 -7729199.69620033 3567228.61957441 3255123.76124912
