53
Lattice="12.336457 0.0 0.0 -6.168228499999997 10.683685154694365 0.0 0.0 0.0 15.0" Properties=species:S:1:pos:R:3:forces:R:3 energy=-462.3773480728578 free_energy=-462.3773480728578 stress="-0.002438813287413888 0.004729289658337161 -1.7245297296216215e-05 0.004729289658337161 0.0015374609709633833 6.865728423990281e-06 -1.7245297296216215e-05 6.865728423990281e-06 9.69462683081551e-06" pbc="T T T"
C        0.10121270       0.09178558       3.69897115      -0.00462450      -0.00055201      -0.00455682
C       -1.10428289       2.23488200       3.79438058      -0.01391690      -0.00136051       0.00777435
C       -2.33522793       4.36758641       3.85775523       0.00128193      -0.00151957      -0.00516081
C       -3.60179031       6.49939459       3.76682075       0.00650306       0.00451985       0.00654747
C       -4.85403801       8.63075365       3.66505028       0.00252995      -0.00281016       0.00161251
C        2.56246880       0.09876256       3.73224533       0.00669891      -0.00128454      -0.00465654
C        1.36022783       2.26976969       3.59180806       0.00578230       0.00432222       0.00054829
C        0.13013319       4.41340457       3.77334462       0.00106453       0.00257939       0.00469126
C       -1.15586660       6.52839083       3.94645563      -0.00507037       0.00136106      -0.00702284
C       -2.38871085       8.64792471       3.87869837      -0.00436477      -0.00048914       0.00420379
C        5.04039479       0.08683597       3.90490686      -0.00618414      -0.00584749       0.00104687
C        3.83525813       2.20765574       3.64008704       0.00367104       0.00643622       0.00708911
B        2.70195386       4.44016343       3.07072462       0.00569518       0.00028213       0.00087898
N        1.20534699       6.55419527       4.36733702       0.00549152      -0.00544450       0.00775400
C        0.07568352       8.63795001       4.06853114      -0.00292275       0.00115078      -0.00801268
C        7.52024511       0.07058314       4.01451734       0.00592323       0.00158326      -0.00700209
C        6.31593828       2.19243590       3.83018977      -0.00210069      -0.00373615       0.00141756
C        5.14488925       4.28909409       3.43669062      -0.00701155      -0.00022186       0.00831571
P        3.53073510       6.25390032       2.79815924      -0.00524838       0.00004929      -0.01190254
C        2.54752164       8.59950285       3.93730600       0.00284855       0.00415685       0.00274637
C        9.98293875       0.07154509       3.86986406      -0.00105738      -0.00159447      -0.00139632
C        8.77348276       2.21310304       3.90874795       0.00498697      -0.00281730      -0.00107383
C        7.55636668       4.34587120       3.73783783       0.00495519       0.00177761      -0.00447663
C        6.29172930       6.47770039       3.46718372      -0.00030892      -0.00112619      -0.00127661
C        5.00144083       8.60220972       3.59670689      -0.00715986      -0.00299083       0.00269237
C        0.12470780       1.53089504       3.69900280      -0.00817698       0.00488702       0.00456017
C       -1.09973882       3.66780894       3.81429964      -0.00081210       0.00155646      -0.00086323
C       -2.36596757       5.79453309       3.86105450      -0.00072124      -0.00467679      -0.00685258
C       -3.61735089       7.92773397       3.76294091       0.00512243      -0.00031193       0.00978509
C       -4.83968461      10.06208818       3.69319439       0.00256093      -0.00318355      -0.00884816
C        2.57715247       1.53006786       3.64643436       0.00958425       0.00158517      -0.00223538
C        1.37894170       3.73777857       3.49942433       0.00695662       0.00460134       0.01611508
C        0.07548135       5.83929262       4.00260083       0.00137162       0.00597177      -0.01069210
C       -1.15929773       7.94108086       3.99394732      -0.00699256       0.00335647      -0.01068436
C       -2.37690668      10.07191233       3.84390576      -0.00232178      -0.00548782       0.00845521
C        5.06685204       1.49489401       3.80392968      -0.00575943      -0.00289098       0.00593310
C        3.89665509       3.60810994       3.45862079      -0.00377970       0.00289177      -0.00384152
C        1.28667326       7.91291386       4.13474397       0.00303655      -0.00228613       0.00193364
C        0.10212758      10.05811721       4.01396843      -0.00157426       0.00246321       0.00039122
C        7.53921690       1.49110778       3.94303474       0.00725050      -0.00200649      -0.00925547
C        6.35077170       3.60404457       3.68022747      -0.00415574      -0.00005656       0.00723387
C        5.12593921       5.69714898       3.25608400      -0.00099527      -0.00447750      -0.01059211
C        3.73293285       7.90238055       3.57306401      -0.00487023      -0.00279681      -0.00198092
C        2.57713073      10.03452364       3.97913514       0.00470892       0.00538128      -0.00291032
C       10.00185998       1.50492779       3.87636449      -0.00571558      -0.00682629       0.00387605
C        8.77964181       3.64049732       3.85080102       0.00238420      -0.00048152       0.00203979
C        7.52541698       5.77333768       3.65371981       0.00608035       0.00787259       0.00348980
C        6.25207484       7.90703608       3.54533080      -0.00613560       0.00160216       0.00162185
C        5.03379876      10.04062098       3.72871750      -0.00615502      -0.00216884       0.00205723
Sc       2.30507055       5.02438894       5.39013297       0.00511347      -0.00333680      -0.00007398
O        1.44563972       4.08808112       6.62806477       0.00912212       0.00202976       0.00698339
O        0.68933799       3.29043151       7.49303844      -0.00509171       0.01467488       0.01653234
H        0.60949687       3.83099704       8.30714187       0.00250309      -0.01430982      -0.02295863
