52
Lattice="12.336457 0.0 0.0 -6.168228499999997 10.683685154694365 0.0 0.0 0.0 15.0" Properties=species:S:1:pos:R:3:initial_magmoms:R:1:forces:R:3 energy=-461.19041708042926 free_energy=-461.19041708042926 stress="-0.0019925612412942423 -0.003501258271515384 -4.955276210833866e-05 -0.003501258271515384 0.0018356830791614466 -2.1995634457726074e-05 -4.955276210833866e-05 -2.1995634457726074e-05 -2.9436497369497754e-05" pbc="T T T"
C        0.08402708      -0.03149398       3.68155690       0.00000000      -0.00628216      -0.00222056       0.00381385
C       -1.17683481       2.07855456       3.67257757       0.00000000       0.00239569      -0.00675897       0.00347278
C       -2.41770749       4.22583193       3.68482537       0.00000000       0.00358442       0.00512375      -0.00009780
C       -3.61456218       6.37278107       3.70547558       0.00000000      -0.01258902       0.00036166      -0.00610870
C       -4.83223562       8.52218411       3.70652995       0.00000000       0.00749700       0.00334942       0.00081450
C        2.55852412      -0.01965490       3.67328852       0.00000000      -0.00275518      -0.00282751       0.00199443
C        1.30696278       2.12031181       3.67334352       0.00000000      -0.00041393       0.00369978       0.00094662
C        0.02205939       4.20289696       3.66103539       0.00000000       0.00160626      -0.00980678      -0.00168205
C       -1.13968293       6.35536489       3.65914284       0.00000000       0.00561746       0.00942585      -0.00995670
C       -2.36578978       8.50961305       3.66266901       0.00000000      -0.00020336      -0.00428791       0.00766690
C        5.02187379      -0.03301851       3.64998252       0.00000000       0.00339257      -0.00408625       0.00017849
C        3.76458215       2.14666337       3.67845417       0.00000000      -0.00307216      -0.00334303      -0.00833579
B        2.47858486       4.49679493       3.68942828       0.00000000      -0.00839159      -0.00088771      -0.00805581
B        1.49938373       6.18320166       3.63071967       0.00000000       0.00006408      -0.02267624      -0.00151329
C        0.11422819       8.47077627       3.61157343       0.00000000       0.00034680       0.00526668      -0.00238298
C        7.47833945      -0.04666682       3.64066329       0.00000000      -0.00052489      -0.00754707      -0.00465826
C        6.23733276       2.10151067       3.68206785       0.00000000       0.00593175       0.00290000      -0.00166137
C        5.00939566       4.24703485       3.74590422       0.00000000      -0.00506777       0.00309885      -0.00948983
C        3.78334531       6.37822841       3.89470757       0.00000000       0.01235826       0.00669165       0.00432858
C        2.55381641       8.49920252       3.64546780       0.00000000      -0.00886448       0.01230442      -0.00150458
C        9.94462248      -0.04965389       3.66438690       0.00000000       0.00078453       0.01138356      -0.00609210
C        8.69819640       2.08970404       3.67629102       0.00000000      -0.00747017      -0.00961909      -0.00116212
C        7.46816583       4.23796980       3.71724986       0.00000000       0.00346554      -0.00049148       0.00428994
C        6.25906238       6.38986834       3.75837475       0.00000000       0.00187879       0.00340989       0.00602107
C        5.03602438       8.51157491       3.71318279       0.00000000      -0.00144708      -0.00739680       0.00030997
C        0.07039916       1.38693824       3.67447957       0.00000000       0.00188971      -0.00201531      -0.00310725
C       -1.20188432       3.49594177       3.67102117       0.00000000       0.00274312      -0.00720949       0.00118770
C       -2.39354242       5.65159954       3.68434429       0.00000000      -0.00223368       0.01279474       0.00214365
C       -3.60309546       7.80284689       3.69402707       0.00000000      -0.00140093      -0.00338207       0.00146289
C       -4.84061688       9.94610207       3.68689643       0.00000000      -0.00280810       0.00170735       0.00084847
C        2.54799781       1.40861784       3.67468864       0.00000000      -0.00511290      -0.00227093      -0.00187337
C        1.26672354       3.53400071       3.66784219       0.00000000       0.00101432      -0.00144504      -0.00546155
C        0.06264707       5.61401910       3.65030931       0.00000000      -0.00158461      -0.00901371      -0.01230982
C       -1.13398708       7.78620494       3.64281020       0.00000000       0.00298933       0.00779318       0.00309354
C       -2.37663099       9.93985246       3.65953692       0.00000000       0.00120141      -0.00405561       0.00299184
C        5.00215422       1.40340724       3.67012159       0.00000000       0.00611771       0.00027422      -0.00289892
C        3.75794641       3.59325362       3.69673333       0.00000000      -0.00954371       0.00006213       0.00303238
C        1.36275724       7.74389187       3.60883943       0.00000000      -0.00364617       0.00388275      -0.00034250
C        0.08809196       9.91554572       3.63017967       0.00000000       0.00155554      -0.00261844       0.00097433
C        7.46928993       1.38059813       3.66543694       0.00000000      -0.00355087      -0.01375335       0.00105710
C        6.23781333       3.52675493       3.71543271       0.00000000       0.00115407       0.00528165       0.00776886
C        5.00612717       5.68180381       3.79593039       0.00000000       0.00558872       0.00618455       0.01212405
C        3.79521877       7.78036974       3.73301267       0.00000000      -0.00702512       0.00219093      -0.00360555
C        2.54543879       9.92497728       3.63893373       0.00000000       0.00242245       0.01390400      -0.00063790
C        9.93127122       1.36976282       3.66975357       0.00000000      -0.00246833       0.00427913       0.00182726
C        8.69077030       3.51709872       3.69408695       0.00000000       0.00403009      -0.00617856      -0.00077389
C        7.48097612       5.66741237       3.73112281       0.00000000      -0.00725716      -0.00387066      -0.00400302
C        6.26790025       7.80875662       3.73527228       0.00000000       0.00812492       0.00109541      -0.00319807
C        5.02075571       9.93045231       3.68256190       0.00000000      -0.00645211      -0.00319632       0.00411676
Sc       2.56326589       6.04440261       6.30096456       0.00000000      -0.02753894       0.02949113      -0.18624719
O        1.25880995       6.10411303       7.50027368       1.00000000       0.02404567       0.00785415      -0.07944531
O        1.29596636       7.23290286       6.59929497       1.00000000       0.02590417      -0.02285195       0.29013977
