53
Lattice="12.336457 0.0 0.0 -6.168228499999997 10.683685154694365 0.0 0.0 0.0 15.0" Properties=species:S:1:pos:R:3:forces:R:3 energy=-461.6443757851067 free_energy=-461.6443757851067 stress="0.0009646263363871323 0.00449546303916758 1.845760493121983e-05 0.00449546303916758 -0.0006282330489922994 -3.280230296160135e-05 1.845760493121983e-05 -3.280230296160135e-05 -6.354029003589819e-06" pbc="T T T"
C       -0.01810214       0.00031126       3.72631291      -0.00365543       0.00120583       0.00327379
C       -1.22187361       2.14850402       3.74241736       0.00172590       0.00829894      -0.00325734
C       -2.45116198       4.27533009       3.75592004       0.00460560      -0.00581692       0.00064270
C       -3.73245877       6.39876575       3.67531315      -0.00277314      -0.01121628      -0.00241288
C       -4.98514077       8.52129918       3.67029737      -0.00553237      -0.00207213      -0.01700409
C        2.43964694      -0.01266800       3.66908944      -0.00206253      -0.00830854      -0.00301728
C        1.23476168       2.16313198       3.50908897      -0.00263749      -0.00590370      -0.00439202
C        0.03494417       4.31020238       3.67708263      -0.00162674       0.00377141      -0.00380882
C       -1.25844793       6.42108829       3.87679206      -0.00170312      -0.00219619       0.00846375
C       -2.50491280       8.53690917       3.80403208       0.00058342       0.00894616       0.00003991
C        4.92541438      -0.02800038       3.82251753       0.00334351       0.01413898       0.00396561
C        3.71722958       2.07815205       3.53469901      -0.00189181      -0.01358176       0.00220407
B        2.57746182       4.25959887       2.95600203       0.00353533       0.01324621       0.00215331
N        1.10323953       6.44784991       4.32368022       0.01027432      -0.00538473      -0.00249518
C       -0.04143776       8.53827480       4.06022719       0.00790482      -0.00293819       0.00210691
C        7.40180370      -0.01961183       3.98789603      -0.00520506      -0.00053357       0.00610900
C        6.19316151       2.08777330       3.73981416       0.00164350      -0.00684587       0.00902308
C        5.00750254       4.17345428       3.36629430       0.00173868      -0.00453261       0.01124923
S        3.33283430       5.85826737       2.29545224       0.00473334       0.00796323      -0.01340688
C        2.45802384       8.53099770       4.24297899       0.00840247      -0.00553024       0.01321778
C        9.86601807       0.00062937       3.94867976       0.00038621      -0.00614097       0.00050209
C        8.65020415       2.12858796       3.83624225      -0.00516280       0.00611831      -0.00118156
C        7.42578921       4.25457445       3.64107663      -0.00684777       0.00125317      -0.01639545
C        6.11130461       6.37631338       3.40896536      -0.00743646       0.01540440       0.00313141
C        4.88268079       8.52150291       3.90728173       0.00095786      -0.00129221      -0.01262967
C        0.00203096       1.43506444       3.66310473      -0.00240802       0.00336682      -0.00259563
C       -1.20927431       3.57930313       3.73360760       0.00151952       0.00020339      -0.00515230
C       -2.48281041       5.69936950       3.75945094       0.00296634      -0.00753339      -0.00487355
C       -3.74192320       7.82075882       3.69945794      -0.00678574      -0.00308310       0.00232648
C       -4.96535069       9.95404022       3.68774265      -0.00598421       0.00096344      -0.00541558
C        2.45321033       1.41034868       3.55569821      -0.00177560      -0.01094281      -0.00109258
C        1.24025336       3.60930149       3.38144520      -0.00210475       0.00184155      -0.00273336
C       -0.01023440       5.73780079       3.94139645       0.00219351       0.00133141       0.00265330
C       -1.26993199       7.83349515       3.92975617       0.00202288       0.00033632      -0.00364594
C       -2.49391834       9.95762162       3.76857111       0.00652210       0.00984561      -0.00331449
C        4.95163538       1.37801471       3.70949814       0.00461898       0.00437818       0.01284253
C        3.78950316       3.46592268       3.33432070      -0.00050612      -0.00966890       0.01022157
C        1.16651918       7.82023082       4.25369670       0.01051833      -0.00499809       0.00639889
C       -0.01243167       9.95366954       3.97004233      -0.00326564       0.00375340       0.00891547
C        7.41874179       1.39825482       3.86637404      -0.00489702       0.00133215       0.00344305
C        6.22738535       3.50285859       3.60726106       0.00175202      -0.00921252       0.00379734
C        4.94138177       5.57388079       3.12335092       0.00624196       0.00781254      -0.00172933
C        3.68511035       7.87743855       4.25223435       0.00585155      -0.00303910      -0.00202371
C        2.46210116       9.97445488       4.07761666      -0.00296507      -0.00808313      -0.00458462
C        9.88093107       1.42894229       3.85251932      -0.00092374       0.00258120       0.00324347
C        8.65792623       3.55295194       3.75044046       0.00054181       0.00339992       0.00287455
C        7.37652974       5.67914207       3.55834463      -0.00986215      -0.00011783      -0.00144903
C        6.10979097       7.79942603       3.63970360      -0.00157994       0.00541076      -0.00500128
C        4.91918050       9.97195658       3.86765631       0.00329412      -0.00919429       0.00277452
Sc       3.07242377       5.92192163       4.99969245       0.00190116      -0.00641009       0.00346500
O        3.16265205       6.12375331       6.76805218       0.00348879       0.01280800      -0.00711071
O        3.12541903       6.35029461       8.14630197      -0.00600586       0.01303655       0.01026601
H        3.93349615       5.90449248       8.47201544      -0.00766945       0.00182928      -0.00858159
