51
Lattice="12.336457 0.0 0.0 -6.168228499999997 10.683685154694365 0.0 0.0 0.0 15.0" Properties=species:S:1:pos:R:3:initial_magmoms:R:1:forces:R:3 energy=-445.12427012522335 free_energy=-445.12427012522335 stress="0.005613444698477512 0.000598732553070761 -4.130606820630562e-05 0.000598732553070761 -0.009765341227852204 4.774206316892589e-05 -4.130606820630562e-05 4.774206316892589e-05 6.423119389391144e-05" pbc="T T T"
C        0.02132790      -0.13713283       3.63250778       0.00000000       0.00214990       0.00501501       0.00497399
C       -1.19894520       2.01266533       3.84591605       0.00000000       0.00263784      -0.00171463       0.00182433
C       -2.45423046       4.14303047       3.86139140       0.00000000       0.00138367      -0.00077542      -0.00289890
C       -3.71040508       6.25504516       3.73477473       0.00000000      -0.00331260      -0.00393973      -0.00085811
C       -4.93732462       8.37154068       3.58925060       0.00000000      -0.00526716       0.00242554       0.00139555
C        2.48204838      -0.21024187       3.57997242       0.00000000      -0.00131748       0.00271964       0.00883988
C        1.30458763       1.89439992       4.01284489       0.00000000      -0.00233970      -0.00011127      -0.00016587
C        0.03637152       4.14206135       4.09128008       0.00000000      -0.00135165      -0.00011040      -0.00103109
C       -1.19805809       6.26880221       3.78043843       0.00000000       0.00325345       0.00292996       0.00421419
C       -2.44496407       8.37328247       3.57541144       0.00000000       0.00149602      -0.00020495       0.00078259
C        4.94679029      -0.14488932       3.50789031       0.00000000      -0.00119722       0.00087886       0.00237470
C        3.70415196       1.94185549       3.76325702       0.00000000      -0.00453193       0.00606464       0.00102459
P        1.66298042       6.23161810       4.12317107       0.00000000       0.00168125       0.00705817      -0.03206128
C        0.02197294       8.43531347       3.53132287       0.00000000       0.00192046      -0.00113923      -0.00450147
C        7.40544854      -0.07081238       3.44596971       0.00000000      -0.00367453       0.00014981       0.00317212
C        6.15603908       2.02147634       3.66193757       0.00000000       0.00285048       0.00526674       0.00186574
C        4.81828738       4.10318854       3.91711176       0.00000000      -0.00089576       0.00361550       0.01281116
B        3.52416403       6.31933426       3.62599573       0.00000000      -0.00966923      -0.00324285       0.00476858
C        2.49221185       8.54533682       3.36081324       0.00000000      -0.00431231       0.00168569      -0.00451912
C        9.90101911      -0.06456712       3.48856047       0.00000000       0.00380559      -0.00050505      -0.00061045
C        8.64532385       2.03684398       3.68348328       0.00000000       0.00166117       0.00372172       0.00158142
C        7.36189025       4.13903257       3.80946833       0.00000000       0.00260833       0.00028854       0.00098922
C        6.10535269       6.25533027       3.74524390       0.00000000      -0.00173539      -0.00458415      -0.00308404
C        4.94905640       8.44358676       3.47543818       0.00000000      -0.00088767       0.00313727      -0.00315986
C        0.03475531       1.27917474       3.83837646       0.00000000       0.00129083      -0.00265634       0.00570209
C       -1.19833350       3.42834710       3.95404142       0.00000000      -0.00035255      -0.00213326       0.00227125
C       -2.45437190       5.56000832       3.79822389       0.00000000       0.00010123      -0.00143176       0.00466760
C       -3.69560404       7.66705363       3.62993226       0.00000000      -0.00237372      -0.00155307       0.00118421
C       -4.93102344       9.79075591       3.58322405       0.00000000      -0.00221388       0.00623527       0.00410334
C        2.49236895       1.18478131       3.75339580       0.00000000       0.00067729      -0.00366660       0.00717887
P        1.67234889       3.48155704       4.64275124       0.00000000      -0.00054581      -0.01484720      -0.01523795
C        0.02622844       5.53545957       3.94235471       0.00000000       0.00293720       0.00218887      -0.00342278
C       -1.20344023       7.68417646       3.62901586       0.00000000       0.00459070       0.00337417      -0.00271942
C       -2.44460230       9.78963618       3.52406157       0.00000000      -0.00173066       0.00148732       0.00260516
C        4.94509112       1.27515257       3.60432966       0.00000000      -0.00096220      -0.00105885      -0.00222490
C        3.59906194       3.31879062       3.99684825       0.00000000      -0.00566620       0.01337069       0.03727692
C        1.28776652       7.83308308       3.54439363       0.00000000      -0.00139259       0.00024022       0.00206999
C        0.01409684       9.86393830       3.46349790       0.00000000      -0.00201700      -0.00341579      -0.00351830
C        7.40496192       1.33653519       3.58214471       0.00000000      -0.00170253       0.00482922       0.00237859
C        6.11005780       3.43032191       3.80834435       0.00000000      -0.00017563       0.00697476       0.00243711
C        4.83540140       5.54724646       3.85457435       0.00000000       0.00303382      -0.01253613      -0.00206880
C        3.70029151       7.80556111       3.43279696       0.00000000      -0.00221576       0.00153907      -0.00826005
C        2.48722604       9.94831176       3.36630138       0.00000000      -0.00020540      -0.00102614      -0.00374357
C        9.89868413       1.33669610       3.66608103       0.00000000       0.00381262       0.00209758       0.00093290
C        8.62817267       3.44704003       3.79703984       0.00000000      -0.00167398       0.00365363       0.00385419
C        7.36558514       5.55628975       3.78144811       0.00000000       0.00081306      -0.00258239      -0.00381177
C        6.15180891       7.67775430       3.60420244       0.00000000      -0.00088443      -0.00274207      -0.00498481
C        4.95743286       9.87794502       3.50609771       0.00000000       0.00313974       0.00192213       0.00503124
Sc       3.53887050       6.30174190       6.29152000       0.00000000      -0.04004604       0.02024076       0.12159929
O        1.83667057       6.82827606       6.41514817       1.00000000      -0.02414602      -0.01969532      -0.07321668
O        2.79192740       7.86938639       6.68945615       1.00000000       0.08295241      -0.02743818      -0.07781158
