52
Lattice="12.336457 0.0 0.0 -6.168228499999997 10.683685154694365 0.0 0.0 0.0 15.0" Properties=species:S:1:pos:R:3:forces:R:3 energy=-448.2012180689616 free_energy=-448.2012180689616 stress="0.0013542300114851385 -0.0016201342791393105 3.055248274856536e-06 -0.0016201342791393105 -0.007510648311021788 3.9061093487709786e-05 3.055248274856536e-06 3.9061093487709786e-05 8.469645863121866e-06" pbc="T T T"
C        0.12157591       0.00251408       3.71468107       0.01116630      -0.00196583       0.00867648
C       -1.10761877       2.14755864       3.58486392       0.00467645       0.00807569      -0.00976098
C       -2.33188626       4.28335580       3.64256458       0.00213299      -0.00045291       0.00284685
C       -3.57746421       6.40179246       3.82632124      -0.00295361       0.00692417      -0.00374319
C       -4.81487618       8.53293159       3.85928959      -0.00359084      -0.01256834       0.00298742
C        2.59022053      -0.04940373       3.65012362      -0.00613796       0.00246605      -0.00697155
C        1.35861991       2.11199441       3.51672573      -0.00626795       0.00168748      -0.00014392
C        0.17265815       4.24120697       3.60829975       0.00863152      -0.00684566       0.00855791
C       -1.07872788       6.39926177       3.87955871       0.00981266      -0.00573100       0.00895748
C       -2.32884107       8.52679964       3.85482048      -0.00363148       0.00851157      -0.00212801
C        5.05712858      -0.00269151       3.66621777      -0.00050907       0.00079864       0.00115144
C        3.79718414       2.06245015       3.28013600       0.00113372       0.00552457      -0.01186456
P        1.69192353       6.26905145       4.50861042      -0.00347890      -0.00885207       0.00224008
C        0.12752608       8.57788160       4.02631924      -0.00149752       0.01215466       0.00582145
C        7.51132378       0.05206508       3.76851378      -0.00230987       0.00571734      -0.01391215
C        6.27303529       2.15726007       3.49307010      -0.00444953      -0.00633516      -0.00718328
C        5.02647441       4.31257374       3.54526319       0.00337651      -0.01300405      -0.00041989
B        3.68143643       6.45677060       4.21928171      -0.00187326      -0.00879286       0.00072044
C        2.59843299       8.67269875       4.08981010       0.00090094       0.00208910       0.00550984
C        9.99703640       0.05061800       3.76268689      -0.00304112      -0.00179352       0.00936053
C        8.75120063       2.16662831       3.60187097      -0.00265508      -0.00126487       0.00148788
C        7.50905304       4.28890997       3.65388910      -0.00660989       0.00120751      -0.00082856
C        6.26250399       6.41107402       3.92125174       0.00096860       0.00145853      -0.00367563
C        5.06333640       8.58481319       3.95912629       0.00341828       0.00106224      -0.01570018
C        0.11329599       1.41696897       3.59842180       0.00000530       0.00593525       0.00261572
C       -1.09699732       3.56341672       3.56356953       0.00720127       0.00608277       0.00590451
C       -2.33045346       5.69906542       3.77382193      -0.00062184       0.00079588      -0.00766064
C       -3.57287024       7.82124109       3.86012134      -0.00414181       0.00866739      -0.00477481
C       -4.81634505       9.94843554       3.75373227      -0.00030042      -0.01019014       0.01082340
C        2.57834223       1.35264208       3.46544395      -0.00082326       0.01087580      -0.00144390
C        1.41197117       3.51721676       3.53708578      -0.00608692      -0.00068719       0.00838016
C        0.14104833       5.64671234       3.88823930       0.01413505      -0.00846127      -0.00453259
C       -1.08965585       7.82659951       3.94530697      -0.00236655       0.00007823       0.00967252
C       -2.33587022       9.94477909       3.73115700      -0.00504524       0.00669041      -0.00547602
C        5.05435076       1.41210595       3.45200000       0.00034550      -0.00761764       0.00292439
P        3.59939059       3.68172149       2.61008538       0.00077809       0.00092497       0.00439198
C        1.38130508       7.96369683       4.24164438      -0.00084546       0.00327334      -0.00627988
C        0.11907390       9.99980448       3.83001699       0.00302298       0.00986623      -0.00818907
C        7.51014779       1.46098121       3.60784130      -0.00564475       0.00606269       0.00172508
C        6.27140634       3.57899212       3.52820439      -0.00893010      -0.00562716       0.00406856
C        5.00177004       5.69902390       3.92862244       0.00963323      -0.00520757      -0.00286424
C        3.81502092       7.94308082       4.09824501       0.00251538      -0.00052168      -0.01096750
C        2.58646987      10.06082468       3.87271638      -0.00774558       0.00465439       0.00628937
C        9.98869486       1.45708888       3.63628519       0.00333398      -0.00488749      -0.00404611
C        8.75476565       3.58595803       3.61271391      -0.00568190      -0.00143696       0.01342388
C        7.50603411       5.70414508       3.80293355       0.00484852       0.00414930       0.00740803
C        6.28416972       7.83551636       3.93658444      -0.00134440      -0.00519088      -0.00368089
C        5.05935239      10.00288647       3.81465126       0.01116880       0.00025820       0.00157255
Sc       2.92945556       4.17602520       5.20722901      -0.00404230       0.01261075       0.00222156
O        1.73907647       4.09305697       6.53887060      -0.00076631       0.00158363       0.00004560
O        0.75408455       3.96735562       7.51075024       0.00378321      -0.01260379      -0.00516118
H        0.96496128       4.67706069       8.15151651      -0.00359635      -0.01014878       0.00162361
