52
Lattice="12.336457 0.0 0.0 -6.168228499999997 10.683685154694365 0.0 0.0 0.0 15.0" Properties=species:S:1:pos:R:3:forces:R:3 energy=-445.0168533736818 free_energy=-445.0168533736818 stress="-0.002547437877592519 -0.00042903194129462663 -2.5338018343827423e-06 -0.00042903194129462663 -0.008930717009017703 1.046082307945859e-06 -2.5338018343827423e-06 1.046082307945859e-06 3.470044801265136e-05" pbc="T T T"
C       -0.11709051       0.00139288       3.52464578       0.00483630       0.00160441       0.00637740
C       -1.35129208       2.15032042       3.35249964       0.00954220       0.00778591       0.00683613
C       -2.60359331       4.28707794       3.51332210      -0.00062761      -0.00207640       0.00038684
C       -3.82783787       6.41516679       3.69084545       0.00067831      -0.00368387       0.01099379
C       -5.04895479       8.54540325       3.67599691      -0.00170153      -0.00466662      -0.00817194
C        2.35013827      -0.03740733       3.66879104      -0.00584461      -0.00039314      -0.00436113
C        1.14398154       2.06161378       3.32807601       0.00134426      -0.00437602      -0.00065804
C       -0.17901365       4.32169218       3.26041543       0.00041777      -0.00186881      -0.00407156
C       -1.36053942       6.41649386       3.73402717       0.00190746      -0.00551747       0.00696426
C       -2.57527941       8.53639702       3.77148156      -0.00013188       0.00363528       0.00134040
C        4.82009814      -0.00657241       3.83445212      -0.00166659       0.00108561       0.00147568
C        3.54781939       2.06091719       4.00703838      -0.00150578       0.00292868       0.00175176
P        1.30823442       6.23983419       4.47121696       0.00270969       0.00367886      -0.00828730
C       -0.11496757       8.56139898       3.92788751       0.00383563       0.00181574      -0.00356207
C        7.28167346       0.03201633       3.79302606      -0.00250170       0.00444776      -0.01220927
C        6.04062982       2.15326930       3.89819059       0.00076511      -0.00071391      -0.00422218
C        4.86150958       4.32226625       4.20134810      -0.00044608      -0.00007359      -0.00080349
C        3.60038925       6.50227224       4.22491056      -0.00231226      -0.00101955      -0.00354631
C        2.36543987       8.61996740       3.95994998      -0.00156022      -0.00634377      -0.00748064
C        9.75597142       0.03500011       3.62746071      -0.00475786      -0.00434894      -0.00522394
C        8.50807988       2.15938765       3.61194006       0.00573960       0.00432871      -0.00309606
C        7.27406921       4.29099517       3.76050131      -0.00386194      -0.00152465       0.00584824
C        6.04880341       6.43954853       3.83573257       0.00049128       0.00362184      -0.00361550
C        4.82930274       8.57756573       3.77886504      -0.00081600       0.00438153       0.00003233
C       -0.11364793       1.42780004       3.37359658       0.00393486       0.00193660      -0.00485817
C       -1.36808015       3.57042982       3.33229356       0.00285750       0.00410527       0.00594045
C       -2.59664558       5.70601671       3.63360021       0.00016024      -0.00506697      -0.00118047
C       -3.81717817       7.83462647       3.70995548      -0.00008097      -0.00141819       0.00369994
C       -5.05548922       9.95933083       3.60367168      -0.00262997      -0.00404252       0.00329223
C        2.34197613       1.37417316       3.67481519      -0.00030253      -0.00109862       0.00160407
S        1.32586644       3.66647049       2.72207765      -0.00765900      -0.00314278       0.01024565
C       -0.14522656       5.67276896       3.66903649      -0.00179145      -0.01057823       0.01419700
C       -1.34217282       7.83334371       3.84582808       0.00185094       0.00003403       0.00551445
C       -2.57737759       9.95312653       3.77191324      -0.00508467       0.00584441      -0.00628156
C        4.81301956       1.41867942       3.92701471      -0.00043747      -0.00142402      -0.00259807
P        3.45473500       3.54404386       4.88611383       0.00070034       0.00757740       0.01129939
C        1.14291655       7.91680903       4.08336195       0.00061120      -0.00356887      -0.00768390
C       -0.11356739       9.98487543       3.85478441       0.00148646       0.00256932      -0.01279363
C        7.27369221       1.45307326       3.75567099       0.00447932       0.00722378       0.00515369
C        6.04661338       3.57961206       3.93334088      -0.00237438      -0.00312589       0.00326195
C        4.80781522       5.75733078       4.09422191       0.00052497      -0.00058034      -0.00889215
C        3.59863446       7.88389578       3.99332857       0.00031846       0.00163392       0.00163201
C        2.35548781      10.02380793       3.77788820      -0.00780334      -0.00469782       0.00522366
C        9.75327649       1.45241020       3.50767064       0.00905128       0.00114385       0.01327670
C        8.50005754       3.58030941       3.61126461      -0.00214460       0.00170515       0.00298457
C        7.27052870       5.71301609       3.75136799      -0.00036503      -0.00051442      -0.00046876
C        6.05047356       7.85000604       3.74831040      -0.00149909       0.00262639      -0.00066916
C        4.81885511       9.99150434       3.62843358       0.00272846       0.00257909      -0.00017260
Sc       3.05203407       5.62338896       6.25715306      -0.00652878       0.00262192      -0.00340577
O        4.52379946       5.43241050       7.23639439       0.00393286      -0.00439662      -0.01306102
O        5.74585356       5.34624410       7.90402829      -0.00042748       0.00249170       0.00394455
H        5.51092318       5.01392734       8.79546629       0.00195835      -0.00314511      -0.00190243
