53
Lattice="12.336457 0.0 0.0 -6.168228499999997 10.683685154694365 0.0 0.0 0.0 15.0" Properties=species:S:1:pos:R:3:forces:R:3 energy=-458.3497045192995 free_energy=-458.3497045192995 stress="-0.0036948792655825766 0.0006243777737214132 6.936745355279011e-05 0.0006243777737214132 -0.004142550078174933 2.8342543956225363e-05 6.936745355279011e-05 2.8342543956225363e-05 -4.539555532126429e-05" pbc="T T T"
C        0.00814886      -0.01931412       3.87090804      -0.01129048      -0.00032893      -0.00011255
C       -1.22342868       2.11716526       3.94967591      -0.00704484      -0.00326573      -0.00497035
C       -2.45455995       4.25721714       3.95912125      -0.00969613       0.00322444      -0.00577181
C       -3.69047563       6.39490279       3.90961084       0.00244799       0.00198344       0.01520688
C       -4.93578075       8.52424439       3.81841076       0.00123040       0.01297626      -0.00079221
C        2.47369673      -0.02826665       3.93948395      -0.00325293       0.00579691       0.00160517
C        1.24446843       2.10217816       3.97241584       0.00762679       0.00441994      -0.00224550
C        0.00614854       4.25044639       3.80265866       0.00499283      -0.00110378       0.00169521
C       -1.24084258       6.40475025       3.72492067       0.00721736      -0.00034185       0.00190969
C       -2.45971194       8.52940346       3.83146798      -0.00102006       0.00588685      -0.00457650
C        4.94063894      -0.01513638       3.89467141       0.00640790      -0.01455407      -0.00054855
C        3.70934852       2.10591638       3.98881363      -0.00228139       0.00117388      -0.00049916
C        2.48280590       4.22116398       4.03883245       0.00037644       0.01092330      -0.00066419
S        0.94561785       6.38468956       2.17992680       0.00080688       0.00193564      -0.00188924
C       -0.01248513       8.55533090       3.52986359      -0.00468529      -0.00005096      -0.00708157
C        7.40946787      -0.00438762       3.76958875       0.00704492      -0.00548530      -0.00392489
C        6.18235000       2.11557183       3.97680696      -0.00871874       0.01025277       0.00062765
C        4.95867117       4.24517070       3.82605274       0.00350586      -0.00145359      -0.00143757
S        3.87671200       6.33179053       2.35600955       0.00011477      -0.00777778      -0.01476928
C        2.46740228       8.59994194       3.20738629       0.00513617       0.00123510      -0.00181551
C        9.87839960      -0.00707679       3.75678780       0.00062186      -0.01024694      -0.00012106
C        8.64829393       2.12141874       3.95430253       0.00476682      -0.00788783       0.00678061
C        7.41803246       4.25522822       3.96411764       0.00190820       0.00229807       0.00008581
C        6.19602730       6.39430471       3.70242968       0.00019400      -0.00424227       0.00519606
C        4.95430349       8.54447149       3.52959596       0.00976943       0.00175777      -0.00351481
C        0.01067325       1.40366830       3.93974550      -0.00118892       0.00171640      -0.00506724
C       -1.22612505       3.54193103       3.93306199      -0.00033085       0.00985769      -0.00071405
C       -2.45762593       5.68223210       3.90797554       0.00308453      -0.00544964       0.00703897
C       -3.69590917       7.81580819       3.86266208       0.00823246       0.00252787       0.00925305
C       -4.92991321       9.95020186       3.87907249      -0.00641987       0.00340651       0.00479144
C        2.47587084       1.39611826       3.98490407      -0.00083762      -0.00431488      -0.00132913
C        1.26574431       3.54684346       3.94144697       0.00557339      -0.00248607      -0.00283077
C       -0.05121480       5.65173952       3.48263644       0.00383784       0.00233386       0.00074039
C       -1.22973270       7.82288876       3.67516755      -0.00069590       0.00433546      -0.00005649
C       -2.45988620       9.95323710       3.89275844      -0.00110712       0.00604057       0.00584964
C        4.94359186       1.40567777       3.96625339      -0.00826626      -0.00302753      -0.00334689
C        3.69612532       3.54648745       3.95262069      -0.00062044       0.00387942      -0.00388458
C        1.18823822       7.93116295       3.07222214       0.00340749      -0.00181658      -0.00463977
C        0.00457397       9.96922068       3.75334989       0.00510048      -0.01084355      -0.01030244
C        7.41328607       1.41096898       3.92444767       0.00257369      -0.00432630       0.00631199
C        6.18947295       3.53882994       3.95757993       0.00103367       0.00654021      -0.00050166
C        5.02224023       5.62894636       3.48696068       0.00353027      -0.01275635       0.00568882
C        3.73215299       7.90950788       3.15125311       0.00967387       0.01178247       0.00164681
C        2.47302296       9.99009745       3.59464499       0.00396629       0.00563675       0.00069042
C        9.88126669       1.41025916       3.90869610       0.00034957      -0.01111139       0.00477580
C        8.65051860       3.54368628       3.99064488      -0.01377886       0.00230880       0.00096735
C        7.41743950       5.67865605       3.89749992      -0.00272791       0.00558202       0.00722472
C        6.17243256       7.81578497       3.65986141       0.00007178       0.00753684      -0.00718396
C        4.94379397       9.96167845       3.73388921      -0.00486173       0.00021913      -0.00592642
Sc       2.26757906       6.30009388       4.48811920       0.00509545      -0.00952622      -0.00895510
O        2.16680071       6.25325067       6.26231030      -0.00466974      -0.00112948       0.01532750
O        2.06595658       6.24195225       7.65699047      -0.01257561      -0.01097972      -0.00289360
H        2.99647465       6.29159561       7.95560776      -0.01362867      -0.00306162       0.00895288
