53
Lattice="12.336457 0.0 0.0 -6.168228499999997 10.683685154694365 0.0 0.0 0.0 15.0" Properties=species:S:1:pos:R:3:forces:R:3 energy=-468.17564846355765 free_energy=-468.17564846355765 stress="-0.003852001784754402 -1.2630382108974013e-06 -2.507385315954412e-05 -1.2630382108974013e-06 -0.003866807768517797 -1.7907998536696254e-05 -2.507385315954412e-05 -1.7907998536696254e-05 -2.1549628126843883e-05" pbc="T T T"
C       -0.00281550      -0.00588115       3.64953893       0.00158968       0.00212287      -0.00635736
C       -1.23638226       2.13031996       3.66492520       0.00334045       0.00506713       0.00399546
C       -2.46989469       4.26888327       3.66487824      -0.00790890      -0.00843163      -0.00426238
C       -3.70331385       6.40457600       3.64849882       0.00044067       0.01041412       0.00245798
C       -4.93089015       8.54495052       3.64446076      -0.00227814       0.00001679       0.00385091
C        2.46459127      -0.01219852       3.63851649       0.00186065      -0.00475412       0.00156358
C        1.23624920       2.11758927       3.69334092      -0.00382945       0.00131553      -0.00976943
C       -0.00467891       4.26675555       3.76397704      -0.00294196       0.00096202      -0.00134327
C       -1.24486573       6.41677445       3.69091007      -0.00056932      -0.00598028       0.00049124
C       -2.47574859       8.54541730       3.64182525      -0.00499741       0.00365459      -0.00817850
C        4.93183778      -0.00429169       3.64675828       0.00292250      -0.00644040      -0.00664497
C        3.69306050       2.11858661       3.69180633      -0.00066597      -0.00139782       0.00149314
C        2.46434216       4.23941838       3.94015610      -0.00053438       0.00720001      -0.00374861
C        1.20603147       6.41915863       3.94091373       0.00930053      -0.00199607       0.00646994
C       -0.01670148       8.54447579       3.69782813      -0.00479776       0.00281444       0.00040537
C        7.39834900      -0.00436192       3.66952172       0.00410692       0.00744246      -0.00292803
C        6.16579623       2.13190517       3.66532329      -0.00258816      -0.00997767       0.00410874
C        4.93412293       4.26736242       3.77435783       0.00554009       0.00333594      -0.00298049
C        3.72236510       6.41924906       3.95686600      -0.00913762      -0.00591730       0.00507580
C        2.46436335       8.54537101       3.77806356       0.00514072      -0.01151407       0.00456558
C        9.86729817      -0.00508122       3.67087351      -0.00738152       0.00633471       0.00089112
C        8.63297519       2.13185699       3.65174998       0.00178819      -0.00115178       0.00149332
C        7.40006477       4.26893106       3.66945326       0.00145461      -0.00070960       0.00060309
C        6.17468428       6.41630173       3.70594996      -0.00539864      -0.00065387      -0.00673222
C        4.94569081       8.54336579       3.70533613       0.00650625       0.00397694      -0.00285959
C       -0.00012652       1.41777848       3.66202385      -0.00084187       0.00070655       0.00672065
C       -1.23461306       3.55646684       3.68593007      -0.00571813       0.00024885       0.00220941
C       -2.46876459       5.69570820       3.66018963      -0.00494308      -0.00388103       0.00852572
C       -3.70319013       7.83063287       3.64078081      -0.00474335       0.01064035      -0.00891969
C       -4.93583753       9.96511811       3.63939097       0.00050990      -0.00135532      -0.00399121
C        2.46476904       1.41274699       3.67067847      -0.00227881      -0.00159116       0.00169197
C        1.24875191       3.55848705       3.78918820      -0.00217944       0.00312137      -0.00598799
C        0.00899080       5.70679127       3.78621251       0.00702333      -0.00179676       0.00521781
C       -1.24150718       7.83325848       3.67376933      -0.00803264      -0.00142107      -0.00229369
C       -2.47128711       9.96581791       3.63676237       0.00246993      -0.00258424       0.00230440
C        4.92953651       1.41948589       3.66088995      -0.00234466      -0.01258623       0.00367565
C        3.68044902       3.55892419       3.79198544       0.00303340       0.00553994      -0.00000211
C        1.22443912       7.81355297       3.79825583      -0.00187495      -0.00365413      -0.01256215
C       -0.00505091       9.96496909       3.66542070       0.00663809       0.00585898       0.00155678
C        7.39777228       1.41896244       3.65360734       0.00139985       0.00454589       0.00648082
C        6.16422935       3.55767425       3.69143985       0.00366473      -0.00604181       0.00423848
C        4.92036273       5.70707869       3.80400201      -0.00631370       0.00303128       0.00125550
C        3.70398241       7.81281844       3.80499468       0.00944557      -0.00761035      -0.00039700
C        2.46454926       9.96536803       3.69528393      -0.00273976      -0.00591395       0.00277251
C        9.86784735       1.41819272       3.65491897       0.00317108       0.00616745      -0.00109072
C        8.63331007       3.55816047       3.65417787      -0.00196512      -0.00865447       0.00042448
C        7.39878421       5.69544216       3.66878041       0.00181773       0.00467902      -0.00009370
C        6.17124358       7.83272707       3.68287192       0.00332217      -0.00237425      -0.00016864
C        4.93391054       9.96368490       3.66872301      -0.00235795       0.00752789       0.00466117
Sc       2.45116284       5.68336470       5.63133115       0.00229857       0.00614269      -0.00703503
O        2.50615471       5.71829985       7.45912577       0.00780673       0.00265792      -0.00336454
O        2.41037790       5.73530333       8.85725957       0.00418311       0.00246301      -0.00023535
H        3.34453106       5.71540312       9.14272460      -0.00141275       0.00040067       0.01274606
