52
Lattice="12.336457 0.0 0.0 -6.168228499999997 10.683685154694365 0.0 0.0 0.0 15.0" Properties=species:S:1:pos:R:3:initial_magmoms:R:1:forces:R:3 energy=-460.5875192406062 free_energy=-460.5875192406062 stress="-1.470422442399897e-06 0.00050046755163744 -5.005163881392785e-05 0.00050046755163744 6.567000451851565e-05 -3.463526401036689e-05 -5.005163881392785e-05 -3.463526401036689e-05 -3.0773191234835115e-05" pbc="T T T"
C        0.06582236      -0.00235058       3.57667089       0.00000000       0.00553618       0.02215632      -0.01290682
C       -1.16235291       2.14226653       3.51488074       0.00000000       0.00953507      -0.02444653      -0.02064288
C       -2.39493930       4.27513668       3.50143741       0.00000000      -0.00349302       0.00320018       0.00629774
C       -3.63631442       6.40601520       3.59024111       0.00000000       0.00367059       0.01061997       0.00391673
C       -4.87228006       8.54158592       3.64357860       0.00000000      -0.00751335      -0.00282482      -0.01451724
C        2.53738559      -0.00950660       3.54718081       0.00000000      -0.00440291      -0.00422519      -0.00359965
C        1.30952089       2.12543246       3.53179784       0.00000000      -0.02068299      -0.01295032       0.01594808
C        0.08060163       4.30933628       3.55230878       0.00000000      -0.01000848      -0.02036661       0.00826051
C       -1.17311156       6.42080175       3.50309025       0.00000000       0.01034214       0.01575420      -0.00132068
C       -2.39676937       8.54409073       3.56799571       0.00000000       0.01745138       0.00539830      -0.02264925
C        5.00777942       0.00108126       3.60391406       0.00000000       0.01750098      -0.00104823      -0.01819977
C        3.77194179       2.12640427       3.67504802       0.00000000      -0.01116288      -0.01292522      -0.01850920
C        2.50368817       4.10159986       4.13912861       0.00000000       0.00668914       0.02259737       0.01226669
O        1.18055591       6.45094724       3.92206196       0.00000000      -0.00030250       0.01121142      -0.00445783
C        0.06782342       8.54805029       3.69858005       0.00000000      -0.00120425       0.00270417       0.02200909
C        7.48144119      -0.00928747       3.67695008       0.00000000      -0.01034093      -0.02066210      -0.02456009
C        6.23904088       2.14519538       3.67080236       0.00000000       0.00699152      -0.00341149       0.00880612
C        4.99562257       4.30317218       3.94125904       0.00000000       0.00531818       0.02855551       0.01417373
O        3.93974884       6.50266143       4.36602280       0.00000000      -0.01330808      -0.00860055       0.00685636
C        2.53865366       8.49662685       3.93774549       0.00000000      -0.00974803      -0.00182787      -0.01972164
C        9.93284756      -0.01042203       3.65793198       0.00000000      -0.00283614      -0.00946179       0.00479643
C        8.70624445       2.13661398       3.57766499       0.00000000       0.00712932      -0.00196887       0.01153933
C        7.46724132       4.27324867       3.67378288       0.00000000      -0.02694390       0.02187080      -0.01278015
C        6.24996254       6.41684004       3.84903806       0.00000000       0.01049965       0.00057822      -0.03741028
C        5.00983767       8.54942453       3.82552634       0.00000000       0.00745827      -0.00010310      -0.02174593
C        0.07204107       1.42475273       3.51690362       0.00000000      -0.00187379       0.00178660       0.00126059
C       -1.15171368       3.57557413       3.48381454       0.00000000      -0.00832869      -0.02824977       0.00210248
C       -2.40473897       5.69480102       3.50708604       0.00000000       0.00741084       0.01293149       0.01820807
C       -3.63488664       7.83043335       3.59311163       0.00000000       0.00543018       0.00784566       0.00135834
C       -4.86736986       9.96971366       3.57692538       0.00000000      -0.00804026       0.00503265       0.00730736
C        2.54177625       1.41694162       3.56111401       0.00000000      -0.02508402      -0.00914556       0.02220821
C        1.33733635       3.56897101       3.69322029       0.00000000      -0.01086985      -0.02623772       0.00999575
C        0.02667050       5.71349224       3.57746826       0.00000000      -0.00491335      -0.00599932       0.00072509
C       -1.17296526       7.84135535       3.57993366       0.00000000       0.02011043       0.00784370      -0.00725896
C       -2.39650268       9.97190258       3.57173633       0.00000000       0.01542478       0.00491106      -0.01618614
C        5.00647613       1.42625465       3.64165411       0.00000000       0.00693567      -0.00490748       0.02014784
C        3.73573855       3.55808981       3.90273256       0.00000000       0.00713885       0.00733006       0.00562480
C        1.25752827       7.85760384       3.91605475       0.00000000      -0.00498451      -0.00762687      -0.02774356
C        0.07515108       9.97819148       3.65292206       0.00000000      -0.00112910      -0.00808283       0.03872683
C        7.47229543       1.42636931       3.63081199       0.00000000       0.00815887      -0.01763848       0.02204130
C        6.22822080       3.57650055       3.74961305       0.00000000      -0.00998818       0.00889294       0.04474517
C        5.05559037       5.71686663       4.06868567       0.00000000       0.00645929       0.01978755      -0.03143829
C        3.82113221       7.86022649       4.05181135       0.00000000      -0.00308017       0.00847190      -0.01314170
C        2.53962829       9.94678920       3.74709732       0.00000000      -0.01417402      -0.00349863       0.00734161
C        9.94052979       1.42366442       3.56097552       0.00000000       0.01166845      -0.01357493       0.04498343
C        8.70458274       3.56069698       3.56544455       0.00000000      -0.02019091       0.01507401       0.02344091
C        7.47107984       5.69208149       3.69998661       0.00000000       0.00197068       0.01100790      -0.01123732
C        6.24673330       7.83797970       3.78225238       0.00000000      -0.00068135      -0.01627293      -0.04890536
C        5.00019904       9.97433450       3.67609103       0.00000000       0.01286501       0.01408430      -0.01335618
Sc       2.11939821       5.72845377       5.70581159       0.00000000      -0.01628708      -0.09745997      -0.42420054
O        1.06171859       5.32885578       7.26238100       1.00000000       0.03543291       0.00961925      -0.08554701
O        0.69283801       4.63024449       6.07799664       1.00000000       0.00444435       0.08425164       0.52694788
