52
Lattice="12.336457 0.0 0.0 -6.168228499999997 10.683685154694365 0.0 0.0 0.0 15.0" Properties=species:S:1:pos:R:3:initial_magmoms:R:1:forces:R:3 energy=-433423.55301191 free_energy=-433423.55301191 stress="-164.79208815776937 49.82321245592651 40.873952419653186 49.82321245592651 37.0189677776316 -23.318285223950618 40.873952419653186 -23.318285223950618 95.60301372028677" pbc="T T T"
C        2.60196602      -1.05553939       5.70550908       0.00000000   -2343.66273866    3652.81804557    3645.24512838
C       -9.62848929       1.39999246       7.18394722       0.00000000  -76320.65603784    -156.69474574   36852.21272488
C       -1.54992779       7.05968821       5.37336983       0.00000000      14.31103834      -9.53162010       8.83853474
C       -5.43651212       0.46865603       6.25096473       0.00000000      98.10866645      -6.08092457     -41.66933861
C       -8.74349379       3.19321353       5.45164350       0.00000000   -2624.40218141   -1958.79695862    2969.27253049
C        9.95086628       1.66464940      12.25471431       0.00000000   -2111.53559402     124.05084317    3825.27971112
C        8.24840711      -1.35411412       4.59305794       0.00000000    -305.69761651    -158.98922080      63.33164624
C        0.05207387      -5.52598277      -9.48946146       0.00000000      11.48438636      13.58993714      -9.41673724
C        3.89931880       7.56201302       5.02230492       0.00000000       2.40671436      -7.83058301       1.66244369
C       -3.99275725       8.38233601      -1.05518302       0.00000000      -0.04362507       2.92270900      -4.45390561
C        1.84158465       1.39575067      -1.08574700       0.00000000     129.86096711     -11.47921999     271.66818036
C        1.56283546       4.63515566       6.09371967       0.00000000    -206.65535424   -4157.27065560    2072.39006166
C        3.66749193      -1.21747796      10.22161154       0.00000000   -1460.65125083    1688.24251175   -1487.33008077
C       -0.08588407       5.76437766       8.91459984       0.00000000    2176.04354918     555.03448435     886.62831758
C       10.65700986       3.91133764       7.45097662       0.00000000   -4427.66657475   13402.41585047  -10528.81488780
C        7.19612113       2.88127047       1.46963210       0.00000000       4.57117346       3.14317990       6.27445053
C        5.26765601       3.65039409      11.65329973       0.00000000       6.05209423       0.32255506      11.13489553
C        3.11578054       1.95738826       8.51924691       0.00000000  -45683.21829554  -11268.92236531   -9826.49595882
C        4.87343247      16.33951259      -7.25919572       0.00000000    -662.10339539     567.40698106   -1557.59882562
C       -7.62096893      10.67799112       4.96341957       0.00000000    1903.21522602    -117.81436655     198.87843442
C        5.22329726      -2.17651398      -3.45330492       0.00000000     -16.46543092      13.24370416      -6.54589480
C        8.91867527       1.66486682       3.84276868       0.00000000      -2.10973743     -61.50843326      82.10705053
C       12.54526859       5.52925303       0.40514473       0.00000000      -1.03749978      -5.16053676       3.40747655
C        7.44455968       4.76435350      -0.19638434       0.00000000       1.01785968      -2.58819320       0.71910558
C        3.74149032       7.44145245      -0.38420853       0.00000000      -3.45152526       6.26779293      -3.32886712
C       -2.03218843      -2.16538754      -6.19779035       0.00000000    -187.17934367   -2232.84334876    -468.62965864
C        8.66113827      11.73676850      -3.97381206       0.00000000   -3167.09586260    1261.49197888  -16503.06679800
C       -9.67523800       9.44181090       4.20281726       0.00000000      78.89050346    -157.74693355    -246.91550229
C       -9.78664964       2.46733438       7.88210177       0.00000000  -29739.89835690  -32947.22252431   -6037.94631066
C       -7.27128280       7.85014829       9.29695909       0.00000000     412.60276806    -669.65246191    -351.75856874
C        5.17705675      20.50810836       1.51031760       0.00000000      -1.50096143      -0.46955663       1.58260588
C        1.38243681       1.36908687       8.32266873       0.00000000  621301.67444914  -88552.86995577 -213170.31890692
C       -1.92200388       3.46904706      11.11610490       0.00000000   -8056.63188333    9392.35676249   10854.74898596
C       -5.59167787       9.02309348       2.22065509       0.00000000       1.98540989      -5.96048542      -0.88183039
C       -2.42477462      13.80468048       4.04530682       0.00000000     -84.11871724     -15.90320183      11.83803830
C        8.08758855       3.92492804       3.00690769       0.00000000       2.61966007      -5.51448100       3.66074446
C       -0.64710503       6.06778800       8.34554520       0.00000000     -75.50675709    1673.27563872    -972.84334965
C        9.52235898       1.33117474       1.75714403       0.00000000      -3.28762005       4.22813260      -9.90981855
C       -5.84076541       7.26282956       4.48215977       0.00000000      -4.26333510      -4.18112356       0.95488841
C        7.14578192      -7.63078884       5.64699239       0.00000000    1011.42309312  -14210.22080058   21645.19742040
C        3.01808744       8.78809139      -1.08046266       0.00000000       3.66310490      -7.69951123       2.75498011
C        8.48848774      10.19616657      -5.52856305       0.00000000   -9441.22076173   20728.68451638  -18334.51994920
C       12.24402562       3.77244459       1.60965132       0.00000000       3.39722031       4.16866398       1.51191179
C        2.38448953      13.06711000       5.45922102       0.00000000    -824.18088261     109.49229371    -757.04628211
C        9.47374358       0.59567327       5.23857320       0.00000000      32.67960505     494.43039105    -483.23829092
C        6.63059318       7.45615846       1.30896688       0.00000000       1.00956157       5.95881010       3.67496521
C        9.51027604       8.84826606       3.25940795       0.00000000       1.40923632      -1.41447225       7.39888320
C       16.02049446      13.11925851       4.42300685       0.00000000     450.41608463     -28.95183197     -78.47343750
C        2.66474180      11.22399818       4.28733423       0.00000000     -67.81271002      53.29981524     -99.00038779
Sc       0.29728760       1.48877662       8.59411332       0.00000000 -5693820.01674860 -6396209.67661151 -7990964.50784970
O       -1.38816794       2.96236894      10.56516732       1.00000000   17348.57647366  -11819.89591186  -20150.95960700
O        0.31128860       1.48725988       8.58516369       1.00000000 5236644.65195266 6511036.04543797 8208663.29692842
