53
Lattice="12.336457 0.0 0.0 -6.168228499999997 10.683685154694365 0.0 0.0 0.0 15.0" Properties=species:S:1:pos:R:3:forces:R:3 energy=-464.82798827962404 free_energy=-464.82798827962404 stress="-0.0026075039958482035 -3.396207594584037e-05 -3.9513217162742474e-06 -3.396207594584037e-05 -0.0016482783500008297 6.03151559929812e-07 -3.9513217162742474e-06 6.03151559929812e-07 -4.295965124683701e-06" pbc="T T T"
C       -0.05957216      -0.03071987       3.73582644       0.00156989      -0.00510822       0.00392579
C       -1.29306894       2.10703396       3.81619733       0.00335860       0.00189880      -0.00213974
C       -2.52130594       4.23585531       3.76398225       0.00348222       0.00283622       0.00429699
C       -3.75909472       6.37060782       3.64869929       0.00196721      -0.00352343      -0.01205110
C       -4.99488661       8.51120836       3.64332113       0.00292962       0.00585557      -0.00518478
C        2.40670259      -0.04061448       3.66410715       0.00509976       0.00628630      -0.01249076
C        1.17631158       2.09448272       3.86355513      -0.00099551      -0.00606176      -0.01276768
C       -0.05341348       4.26777938       4.01975650       0.00663887       0.00831866      -0.00389653
C       -1.30715774       6.38044337       3.77051814       0.00151558       0.00046277      -0.00730583
C       -2.52377198       8.50832194       3.61320984      -0.00126794      -0.00497083       0.00034153
C        4.87520881      -0.03330225       3.61283379      -0.00017494      -0.00432842      -0.00492106
C        3.64068370       2.08754597       3.73619427       0.00099134      -0.00302113      -0.00735381
C        2.43477943       4.10926675       4.28878779       0.00046388       0.01523309       0.00073356
O        0.99860603       6.47770633       4.24070766      -0.00428169       0.00562355       0.00875300
C       -0.07094313       8.51471069       3.67526805      -0.00788353       0.00010816       0.01272817
C        7.34774495      -0.04604617       3.67434656       0.00271728      -0.00017066      -0.00416951
C        6.11109073       2.10254847       3.65329552      -0.00646673       0.00954068       0.00236472
C        4.86880987       4.25937755       3.72639632      -0.00524059       0.00270258       0.00259677
O        3.72468500       6.40936838       3.58994679       0.00270815      -0.00366504      -0.00874169
C        2.39819786       8.45877249       3.84085084      -0.00642996      -0.00452049      -0.00510579
C        9.80354552      -0.04540717       3.75246267       0.00302991      -0.00031348      -0.00195739
C        8.57746515       2.09823544       3.70675955       0.00335207      -0.00198064       0.00351195
C        7.34150477       4.23475691       3.65607006      -0.00219298      -0.00463606      -0.00748578
C        6.12303733       6.37972985       3.62430842       0.00133898       0.00286601      -0.00478611
C        4.88608415       8.51500028       3.76337316      -0.00712687       0.00060113       0.00295002
C       -0.05810850       1.39329137       3.80575932       0.00006131      -0.00447992      -0.00545918
C       -1.28593154       3.53685717       3.86296074       0.00970339       0.00818998       0.00214043
C       -2.53048534       5.65474273       3.72064429       0.00202824      -0.00056582      -0.00465201
C       -3.76046011       7.79630740       3.62232460       0.00215038      -0.00437005       0.01457724
C       -4.99515262       9.93896728       3.67531832       0.00804501       0.00347848       0.01443047
C        2.40672084       1.38317223       3.74886261       0.00115734      -0.00151610       0.00231509
C        1.20787490       3.52641862       4.06579655       0.00509642      -0.00550131       0.00764520
C       -0.12258312       5.67958912       4.01205563       0.00266386       0.01093671      -0.00352927
C       -1.30460210       7.80072704       3.66518473      -0.00334190      -0.00157615       0.00595647
C       -2.52757651       9.93810998       3.61423723       0.00013993      -0.00404235      -0.00512378
C        4.87396982       1.39041997       3.64797131      -0.00330079       0.00280789       0.00614857
C        3.61713461       3.52416183       3.90108382       0.00468904      -0.00968485       0.00689628
C        1.11843699       7.83020121       3.88145533      -0.00541968      -0.00222884       0.00138433
C       -0.05852770       9.94317368       3.62909103      -0.00000376      -0.00305485       0.00416747
C        7.34357878       1.38651683       3.66579948      -0.00068360       0.00406291      -0.00179679
C        6.10598406       3.53035677       3.65992386      -0.00781794       0.00705239       0.01176739
C        4.92130760       5.66342994       3.64123921      -0.00628460      -0.00107198       0.00313440
C        3.67942523       7.81549546       3.84986752      -0.01003424      -0.01247851      -0.00621336
C        2.40574237       9.91614322       3.74241703       0.00326542      -0.00254028      -0.00212992
C        9.81121279       1.38826223       3.75330364       0.00375170      -0.00024364       0.00033719
C        8.57865752       3.52171907       3.70154048      -0.00164524      -0.00180935       0.00207131
C        7.34854712       5.65494008       3.63684545       0.00281201      -0.00488803       0.00135173
C        6.11982530       7.80365569       3.67177846      -0.00268027       0.00788084      -0.00933720
C        4.87509075       9.94376257       3.75460299      -0.00195903       0.00043350       0.00763230
Sc       2.79013846       5.94995147       5.36656484      -0.00242763      -0.00866332       0.00626208
O        4.31157363       5.59701969       6.54606365      -0.00769691       0.00624281      -0.00277751
O        3.09808109       5.39498224       7.39278733       0.00964173       0.00616131       0.00274603
H        3.43817421       5.61644700       8.27955050      -0.00101278      -0.00856482      -0.00178990
