52
Lattice="12.336457 0.0 0.0 -6.168228499999997 10.683685154694365 0.0 0.0 0.0 15.0" Properties=species:S:1:pos:R:3:initial_magmoms:R:1:forces:R:3 energy=-457.3825758883246 free_energy=-457.3825758883246 stress="-0.0028314843909723 -0.0014694219752795414 -2.471168447010267e-05 -0.0014694219752795414 -0.004533982399152393 1.4183828242614872e-05 -2.471168447010267e-05 1.4183828242614872e-05 7.996107711246508e-05" pbc="T T T"
C       -0.04021622      -0.03691136       3.80218633       0.00000000      -0.00214734       0.00091693      -0.00368792
C       -1.28638089       2.08910440       3.96480257       0.00000000      -0.00273013       0.00258873       0.00487498
C       -2.52390455       4.23419655       3.99143816       0.00000000      -0.00325870      -0.00230857       0.00040690
C       -3.74551754       6.37284777       3.88612169       0.00000000       0.00146518      -0.00035476      -0.00395680
C       -4.97133285       8.50767291       3.73652120       0.00000000       0.00096978       0.00074520      -0.00331224
C        2.42851883      -0.04817291       3.85369245       0.00000000      -0.00063792      -0.00220600      -0.00072327
C        1.18661089       2.08515682       3.97597774       0.00000000       0.00240674       0.00221922      -0.00184943
C       -0.05808408       4.21342329       3.93345875       0.00000000      -0.00777927      -0.00336502      -0.00635466
C       -1.28380903       6.36338749       3.73090729       0.00000000      -0.00089856      -0.00549435      -0.00258722
C       -2.49274010       8.49732665       3.75080673       0.00000000      -0.00235130       0.00170241      -0.00448478
C        4.89223139      -0.04064418       3.77132462       0.00000000      -0.00000536       0.00636337      -0.00073901
C        3.65041124       2.08876156       3.93133527       0.00000000      -0.00505627       0.00332038      -0.00256264
C        2.40595625       4.13296754       4.42355208       0.00000000       0.00054717      -0.01375812       0.00063416
S        1.18417191       6.21231484       2.65530514       0.00000000       0.00531696      -0.00259638      -0.01286981
C       -0.04613748       8.51632607       3.47201934       0.00000000       0.01358679      -0.00172033       0.00153959
C        7.35283636      -0.01870033       3.65280656       0.00000000       0.00471129       0.00463312       0.00232890
C        6.11473817       2.09923166       3.88758263       0.00000000       0.00253900       0.00143580       0.00271875
C        4.87081385       4.23156088       3.82988935       0.00000000       0.00633137      -0.00182207      -0.00001994
S        3.89998375       6.30256135       2.21500493       0.00000000       0.00020220       0.00150102      -0.00630886
C        2.43406666       8.59653267       3.11484569       0.00000000      -0.00139929       0.00480906       0.00327056
C        9.82715923      -0.01419701       3.66786064       0.00000000      -0.00169653       0.00019994       0.00339225
C        8.58178080       2.10283690       3.90882594       0.00000000       0.00224594      -0.00022310       0.00009643
C        7.34574618       4.23859316       3.94119720       0.00000000       0.00422267       0.00147369       0.00262531
C        6.13821223       6.38051245       3.68224790       0.00000000      -0.00048352      -0.00038553      -0.00263510
C        4.91765767       8.54167922       3.40877347       0.00000000      -0.00639215      -0.00645888       0.00042116
C       -0.05263541       1.37652745       3.92103688       0.00000000       0.00085044       0.00187028      -0.00555682
C       -1.29188496       3.51329174       4.00784798       0.00000000      -0.00093287       0.00383732      -0.00645256
C       -2.51844357       5.65590276       3.91584445       0.00000000       0.00092581      -0.00165674      -0.00415604
C       -3.73576649       7.79219491       3.79984137       0.00000000      -0.00004120       0.00090153       0.00395196
C       -4.97348949       9.93142727       3.79714270       0.00000000      -0.00091135      -0.00067460      -0.00240299
C        2.42353776       1.37173961       3.93776412       0.00000000      -0.00194681      -0.00543606       0.00159548
C        1.17487717       3.49186739       4.02936007       0.00000000       0.00029995      -0.01156880       0.00821256
C       -0.11576819       5.58975186       3.59114163       0.00000000      -0.00215721       0.00154984       0.00104619
C       -1.26152135       7.78565634       3.62980247       0.00000000      -0.00118842       0.00709453      -0.00372923
C       -2.50348448       9.92538274       3.78824795       0.00000000      -0.00034634       0.00269802       0.00124308
C        4.88889336       1.38142593       3.85624591       0.00000000      -0.00552444       0.00416898       0.00475597
C        3.64315924       3.50947020       3.98801338       0.00000000      -0.00177615      -0.00546248       0.00713909
C        1.18585077       7.87994981       3.15403350       0.00000000       0.00557396      -0.00379183      -0.00329859
C       -0.04401846       9.94254014       3.63414161       0.00000000       0.00052436       0.00019369       0.00643128
C        7.35024501       1.39411148       3.83187135       0.00000000       0.00378332      -0.00082939       0.00077043
C        6.10783902       3.52667164       3.91151407       0.00000000       0.00321386       0.00145717       0.00764312
C        4.93611420       5.63312191       3.49537897       0.00000000      -0.00367725       0.00522913       0.00658685
C        3.71388671       7.92515998       2.94880650       0.00000000      -0.00492969       0.00010739       0.00420422
C        2.42584149       9.98700161       3.48159585       0.00000000      -0.00025636      -0.00669971       0.00358916
C        9.81668436       1.39365402       3.86937511       0.00000000       0.00156760       0.00008705       0.00086703
C        8.57829010       3.52383771       3.97912199       0.00000000      -0.00008432       0.00050062       0.00113362
C        7.35769983       5.66042901       3.88527852       0.00000000       0.00051130       0.00559671      -0.00769924
C        6.13663074       7.80134381       3.58168559       0.00000000       0.00047781       0.00187674      -0.00136112
C        4.89626306       9.95798238       3.63909624       0.00000000       0.00058040      -0.00501216      -0.00468184
Sc       3.06850576       7.00540982       5.01916612       0.00000000      -0.12187322       0.13703422       0.16418434
O        3.30755262       7.98996940       6.42935482       1.00000000       0.02420925       0.00060107      -0.12958464
O        2.37805257       5.07402746       5.30070720       1.00000000       0.09341883      -0.12488830      -0.02464858
