51
Lattice="12.336457 0.0 0.0 -6.168228499999997 10.683685154694365 0.0 0.0 0.0 15.0" Properties=species:S:1:pos:R:3:initial_magmoms:R:1:forces:R:3 energy=-440.5629834936005 free_energy=-440.5629834936005 stress="-0.0052079282459914075 0.0006823966883942561 -1.9905875731522766e-05 0.0006823966883942561 -0.004670161022947791 1.244848910482935e-05 -1.9905875731522766e-05 1.244848910482935e-05 -3.6774742900839724e-06" pbc="T T T"
C       -0.00596385      -0.04903275       3.72725865       0.00000000      -0.00481174      -0.00631322       0.00946280
C       -1.24006150       2.09446204       3.96931252       0.00000000      -0.00960036       0.00261238       0.00753180
C       -2.46294504       4.23988818       3.73852699       0.00000000       0.00206485       0.00200378       0.00254310
C       -3.68520065       6.37358007       3.44798850       0.00000000      -0.00145470       0.00038019      -0.00329048
C       -4.93948794       8.51110257       3.40751366       0.00000000       0.00149593      -0.00019522       0.00012886
C        2.45539401      -0.06905137       3.75852818       0.00000000       0.01720113      -0.00882204       0.00489145
C        1.22068873       1.98666888       4.31778726       0.00000000      -0.00399947      -0.00580758       0.01583751
C       -0.07803603       4.28484567       4.27354329       0.00000000      -0.00980718      -0.00807243      -0.00666620
C       -1.25011259       6.38920415       3.74150828       0.00000000      -0.00927844       0.00273317      -0.00283114
C       -2.47771261       8.51253644       3.55994216       0.00000000      -0.00411307      -0.00214997       0.00388984
C        4.92867384      -0.03981610       3.72566138       0.00000000       0.00625694      -0.00001501      -0.00922575
C        3.69582719       2.02453663       4.09005196       0.00000000      -0.00493018      -0.00175388      -0.00302372
C        1.17067377       6.43406684       4.10193173       0.00000000       0.01022407      -0.00362510       0.00663827
C       -0.02469429       8.52225753       3.68549925       0.00000000      -0.00551824       0.00199792      -0.00427447
C        7.39688253      -0.02827177       3.71558643       0.00000000      -0.00514177       0.00548994      -0.00606059
C        6.16927647       2.10435132       3.72709753       0.00000000       0.00339700      -0.00348571      -0.00055929
C        4.98438133       4.26267591       3.41157444       0.00000000      -0.01282059       0.00157587      -0.00388161
S        3.59727231       6.36028167       2.29217041       0.00000000       0.00271981       0.00041640      -0.00080433
C        2.45267390       8.52710105       3.58586906       0.00000000       0.00962511       0.01417731       0.00155502
C        9.86894254      -0.03326923       3.68609002       0.00000000      -0.00291371       0.00636637      -0.00118813
C        8.64002767       2.10238821       3.72267478       0.00000000       0.00795002       0.00056370      -0.00468593
C        7.42785327       4.23299579       3.47391393       0.00000000       0.00421487       0.00165054       0.00417508
C        6.21178721       6.38390378       3.12772778       0.00000000      -0.00378077       0.00620356       0.00180988
C        4.94150179       8.52797100       3.32555322       0.00000000      -0.00135306      -0.01178070       0.00928500
C       -0.01378405       1.35723984       4.02318014       0.00000000      -0.00864300      -0.00007191       0.00461079
C       -1.24539589       3.53045031       4.00326354       0.00000000      -0.00989573      -0.00209215       0.00148849
C       -2.46202435       5.66422930       3.63605804       0.00000000      -0.00240994       0.00174166      -0.00329474
C       -3.70113424       7.79858330       3.44856399       0.00000000      -0.00158299      -0.00280637      -0.00154653
C       -4.94539585       9.92150517       3.61871550       0.00000000       0.00891217      -0.00412955       0.01284182
C        2.45422728       1.31536934       4.06946673       0.00000000      -0.00033687      -0.00564472      -0.00428805
P        1.27123308       3.54454902       5.16017228       0.00000000      -0.00082057      -0.00419266       0.01293764
C       -0.02322835       5.70474346       4.03726972       0.00000000      -0.00577250      -0.00075379       0.00324938
C       -1.24712469       7.80475198       3.64341954       0.00000000      -0.01174561       0.00368596      -0.00052274
C       -2.47342023       9.92733904       3.66011800       0.00000000       0.01600431      -0.00568322      -0.00058860
C        4.93793351       1.38124272       3.84038588       0.00000000      -0.00158916      -0.00176451       0.00558473
P        3.62608968       3.72857678       4.38784854       0.00000000       0.00749801       0.00800896       0.00121330
C        1.21162172       7.78619313       3.77052835       0.00000000       0.00717445       0.00536194      -0.00639716
C       -0.00806070       9.93860160       3.68935542       0.00000000      -0.00199685      -0.00032551      -0.00398096
C        7.40033177       1.39318930       3.72055256       0.00000000       0.00718769      -0.00058686      -0.01210632
C        6.20031526       3.51555566       3.53975925       0.00000000      -0.00183488      -0.00184905      -0.00302492
C        5.03296273       5.62802128       2.98054467       0.00000000       0.00299586       0.00035864      -0.00185738
C        3.67634285       7.87341224       3.21396266       0.00000000       0.00335135      -0.00565975      -0.01084686
C        2.46405574       9.95077507       3.66561226       0.00000000      -0.00257149       0.01474512      -0.00349609
C        9.87298816       1.39187307       3.79434782       0.00000000      -0.00003919       0.00383646       0.00152812
C        8.65136623       3.52600639       3.64035200       0.00000000       0.00990174       0.00020761       0.00061581
C        7.43449439       5.65576732       3.33564698       0.00000000      -0.00361515       0.00554317      -0.00305798
C        6.16995880       7.80959685       3.23398265       0.00000000      -0.00185249       0.00402544      -0.00377737
C        4.93310093       9.93677429       3.58316843       0.00000000      -0.00857441      -0.00771214       0.00684408
Sc       3.12948749       6.15049334       4.99976511       0.00000000       0.00100163       0.00518356      -0.00845067
O        2.34898640       5.95217912       7.96531544       1.00000000       0.00627065      -0.00438689      -0.00293594
O        2.68024501       6.04364089       6.71481065       1.00000000       0.00735650       0.00081026      -0.00199880
