51
Lattice="12.336457 0.0 0.0 -6.168228499999997 10.683685154694365 0.0 0.0 0.0 15.0" Properties=species:S:1:pos:R:3:initial_magmoms:R:1:forces:R:3 energy=-446.2773705868665 free_energy=-446.2773705868665 stress="-0.0021387317584288497 0.00018289189111334196 1.1716062531276182e-05 0.00018289189111334196 -0.004156100966045549 1.3490156805057447e-05 1.1716062531276182e-05 1.3490156805057447e-05 -6.683777326435469e-05" pbc="T T T"
C       -0.08354387       0.06432512       3.54521576       0.00000000      -0.00403647       0.00947138      -0.00051456
C       -1.32038657       2.19161511       3.50101179       0.00000000       0.00943480      -0.02243103       0.00486975
C       -2.54438939       4.32544153       3.51062164       0.00000000       0.00481194      -0.01061653      -0.02142448
C       -3.78084922       6.46018235       3.54936351       0.00000000       0.00545950       0.00898186       0.00032174
C       -5.01995229       8.60136148       3.60065627       0.00000000       0.00932452       0.00295016      -0.01820512
C        2.38369354       0.05945402       3.60601999       0.00000000      -0.02688667      -0.00635576      -0.00116358
C        1.13983779       2.20779957       3.80933711       0.00000000       0.00809153       0.00376458       0.00310039
C       -0.08168818       4.27277447       3.94280781       0.00000000       0.02044713       0.02432390       0.00627966
C       -1.32180229       6.45628664       3.84216012       0.00000000       0.01066414       0.00973042       0.00306664
C       -2.54820637       8.59926911       3.65385322       0.00000000       0.01228422       0.00436485       0.00754212
C        4.84857095       0.06237162       3.54172249       0.00000000       0.00881256      -0.01349012      -0.00157181
C        3.61886050       2.20826994       3.68195951       0.00000000      -0.01996950       0.01318050      -0.02321218
P        1.18738178       6.45890993       4.97545320       0.00000000       0.00939442      -0.02272633      -0.02273081
C       -0.09569533       8.63178416       3.84977617       0.00000000       0.00961535      -0.02734210      -0.00704583
C        7.31216752       0.06747840       3.47465402       0.00000000       0.00634420       0.00402436      -0.00155633
C        6.08258114       2.18705754       3.38030226       0.00000000      -0.00220321       0.01704436      -0.00421870
C        4.83656991       4.28419221       3.65676560       0.00000000      -0.00494039       0.01581007      -0.01346714
P        3.57466020       6.41172120       4.73752506       0.00000000      -0.01515952      -0.03411824       0.01543486
C        2.37726787       8.68218048       3.89894697       0.00000000      -0.01186684       0.00311619      -0.00511289
C        9.78671908       0.06719562       3.46795711       0.00000000      -0.01171491       0.01098727       0.01438127
C        8.55201560       2.19555076       3.34251850       0.00000000      -0.00132161      -0.00574078      -0.00460032
C        7.31604142       4.32740516       3.39841561       0.00000000       0.00237827      -0.00487954      -0.01286970
C        6.08734342       6.46093510       3.65678740       0.00000000      -0.00835274      -0.00780500       0.00215402
C        4.85851795       8.62355377       3.73323813       0.00000000      -0.00226791       0.01312475       0.01979854
C       -0.09676352       1.48169210       3.59062498       0.00000000       0.01291272      -0.00289650      -0.00675692
C       -1.32099060       3.60228276       3.60664261       0.00000000       0.00573372      -0.02053602       0.00949778
C       -2.54856256       5.74953457       3.60768868       0.00000000       0.00787643      -0.00111787       0.01092064
C       -3.78391623       7.88705554       3.60014500       0.00000000       0.01634766       0.01490499      -0.00862860
C       -5.01791213      10.02613137       3.58309836       0.00000000      -0.01892687       0.00001886       0.01499916
C        2.38235588       1.47343707       3.70645115       0.00000000      -0.01308948       0.00426337       0.01931103
C        1.10489180       3.55366939       4.17654805       0.00000000      -0.01787752      -0.00122074       0.00590677
C       -0.14632006       5.70551646       4.11359006       0.00000000       0.00588084       0.02149450       0.05006876
C       -1.32001218       7.89257894       3.80605269       0.00000000       0.00982515      -0.00865517      -0.00333033
C       -2.55091243      10.02424033       3.60373159       0.00000000      -0.01335855       0.00019852      -0.02508846
C        4.85685693       1.47819471       3.48908188       0.00000000       0.00481203      -0.00027108      -0.00253086
C        3.65803917       3.57249496       3.93349842       0.00000000       0.02370831      -0.00001330      -0.01760051
C        1.14436179       8.00495753       4.14314456       0.00000000       0.00311973      -0.01028805      -0.01827067
C       -0.08865884      10.03927638       3.59343874       0.00000000       0.01979902      -0.02342952      -0.00121446
C        7.31871066       1.48061165       3.35236029       0.00000000       0.00067712       0.00861894       0.00994331
C        6.08409327       3.60607852       3.40362884       0.00000000       0.00001025       0.01325680       0.01763346
C        4.89597261       5.71064616       3.83609554       0.00000000      -0.02145361      -0.00179353       0.02277312
C        3.61826113       7.98922812       4.02198387       0.00000000      -0.01284471      -0.00633790      -0.00013512
C        2.37989733      10.05685566       3.56183681       0.00000000      -0.00602083       0.00664752       0.00582277
C        9.78225213       1.48286254       3.39648020       0.00000000      -0.00344110      -0.00396775      -0.01924928
C        8.55524469       3.62088131       3.37708145       0.00000000      -0.00512875      -0.01478282       0.01192937
C        7.32247089       5.75100231       3.50265285       0.00000000      -0.00021442      -0.00726370       0.00196325
C        6.08379966       7.89200027       3.67928525       0.00000000       0.00429907      -0.00479821      -0.00572585
C        4.85277313      10.03822658       3.55045642       0.00000000      -0.00845451       0.01954651       0.00794706
Sc       2.80284616       3.77464802       6.29253203       0.00000000       0.04532652       0.20496822      -0.47124172
O        4.07402262       2.63032861       6.79937793       1.00000000       0.03446780       0.09632608       0.05334316
O        4.52566801       4.01556714       6.67309874       1.00000000      -0.08232883      -0.26824136       0.39845759
