52
Lattice="12.336457 0.0 0.0 -6.168228499999997 10.683685154694365 0.0 0.0 0.0 15.0" Properties=species:S:1:pos:R:3:forces:R:3 energy=-449.92711664270456 free_energy=-449.92711664270456 stress="-0.0034043223525806847 0.0010405222687660455 -3.5408338276188334e-06 0.0010405222687660455 -0.008013114778111353 -1.4430688208833389e-05 -3.5408338276188334e-06 -1.4430688208833389e-05 -2.45262041549172e-05" pbc="T T T"
C        0.00193960      -0.01146929       3.76494012      -0.00937917       0.00428563      -0.00071634
C       -1.22238850       2.13972581       3.68226972      -0.00013429      -0.00109802      -0.01047356
C       -2.45621111       4.27425253       3.79342387      -0.01005387      -0.00019873      -0.00665332
C       -3.70623243       6.40105232       3.85482013       0.00695267      -0.00454036       0.00236125
C       -4.94464436       8.52914769       3.81775229       0.00277488       0.00587867      -0.00250988
C        2.46629988      -0.03002085       3.86225112       0.00192891       0.01012147       0.00048067
C        1.25134104       2.05398874       3.44521365       0.00839687      -0.00232420      -0.00595245
C       -0.01077139       4.29902794       3.45548654      -0.00837436      -0.00475934      -0.00702142
C       -1.24278593       6.42594487       3.79970422       0.00969464      -0.00739481       0.00666835
C       -2.47573673       8.54067599       3.94482712       0.00036401      -0.01028841       0.00208147
C        4.93689392      -0.00487402       3.98169813       0.00395519      -0.00646478       0.00103224
C        3.70928327       2.11997900       3.77096241       0.00831127       0.00128499      -0.00286535
C        1.22179176       6.46611345       3.58995338      -0.00728932       0.00440619       0.00047847
C       -0.00802655       8.55680260       3.91265599      -0.00153757       0.00052375      -0.00421330
C        7.40701030       0.00993445       3.96921916       0.00475222       0.01106085       0.00110492
C        6.17889642       2.12790089       3.94549259      -0.00941093       0.00839287       0.00278958
C        4.93351207       4.22662513       3.68944348      -0.00110190       0.00110930      -0.00382282
P        3.55244125       6.36209037       2.66371602       0.00974051      -0.00419558       0.01195948
C        2.46289268       8.59265756       3.71487471      -0.00698978      -0.00742473       0.00536901
C        9.87850790       0.01443381       3.83618763      -0.00088612      -0.00287552       0.00618859
C        8.64881116       2.14083930       3.90224807      -0.00040395      -0.00065554      -0.00307126
C        7.40787218       4.26520869       3.85335916      -0.00080058       0.01050397       0.00725124
C        6.16515353       6.39955859       3.66266259       0.00376839       0.00114412      -0.00480968
C        4.93713638       8.55437278       3.64435798      -0.00118187      -0.00110181      -0.00944432
C       -0.00093124       1.40667647       3.63472893       0.00472669      -0.00286303      -0.00511692
C       -1.22514076       3.56263303       3.64234150      -0.01092884      -0.00027753      -0.00528109
C       -2.46415813       5.69947620       3.82763464       0.00693918      -0.00227228       0.00287799
C       -3.70785835       7.82448846       3.88293471       0.00272106      -0.01127261       0.00009514
C       -4.93796474       9.95040637       3.82285975      -0.00003148       0.00774859       0.00455154
C        2.47672682       1.37641571       3.70753769       0.00769355       0.00814204       0.00241814
P        1.32933361       3.55453617       2.54309646      -0.00751098      -0.00782545       0.00578878
C        0.00759888       5.74317301       3.61664275       0.00712981      -0.00684936      -0.00176306
C       -1.23839347       7.83791811       3.91275856       0.00508860      -0.00440959       0.00075128
C       -2.46818905       9.95673144       3.95504406      -0.00035323      -0.00506640       0.00164276
C        4.94761470       1.41106824       3.93031811      -0.00152306      -0.00235484      -0.00691470
C        3.71999814       3.51002278       3.64686231       0.00036246       0.00105708       0.00396510
C        1.22924638       7.85339251       3.74929259      -0.00970080       0.00059737      -0.00212701
C        0.00132607       9.97293243       3.98240739       0.00809319       0.00087246      -0.00317589
C        7.41606463       1.42537569       3.96851157      -0.00534180       0.00967878       0.00339225
C        6.18496676       3.54082018       3.85184011       0.00062634       0.00884850       0.00350735
C        4.95628702       5.66081489       3.50614989       0.00749288      -0.00535275      -0.00338989
C        3.68401438       7.91161836       3.46437788      -0.00207689      -0.00074608      -0.01014061
C        2.47324534       9.99710461       3.87663816      -0.00011126      -0.00440071       0.00331586
C        9.88406126       1.43518205       3.82941461       0.00201438       0.00224566      -0.00208101
C        8.64946612       3.56343529       3.86709270      -0.00610746       0.00154168       0.01013347
C        7.40065965       5.68922206       3.80342060      -0.00182538       0.00660255      -0.00061369
C        6.16145728       7.82416879       3.68583965       0.00067489       0.00423111      -0.00487825
C        4.93758510       9.97445919       3.76989136      -0.00990768       0.00034170       0.00132906
Sc       2.34778364       4.89785349       4.65156146      -0.00611430      -0.00488816      -0.00450260
O        2.36175432       4.90404444       6.44448784       0.00482666      -0.00509366       0.01798503
O        2.26656288       4.89804522       7.84118019       0.00217415       0.00444280      -0.00357899
H        3.19820489       4.90403978       8.13903178      -0.00212649       0.00193211       0.00559837
