51
Lattice="12.336457 0.0 0.0 -6.168228499999997 10.683685154694365 0.0 0.0 0.0 15.0" Properties=species:S:1:pos:R:3:initial_magmoms:R:1:forces:R:3 energy=-440.65183192520743 free_energy=-440.65183192520743 stress="-0.0049289743828770305 -0.0027832699668414334 1.8408119739056026e-05 -0.0027832699668414334 -0.009348742450098113 -4.186993652526607e-05 1.8408119739056026e-05 -4.186993652526607e-05 -1.4759055306028788e-05" pbc="T T T"
C       -0.03164215      -0.04044881       3.58489714       0.00000000      -0.00251435       0.00855277       0.00579978
C       -1.28620629       2.09355000       3.79428378       0.00000000       0.00266600       0.00654224       0.00533556
C       -2.51359512       4.24203909       3.72423850       0.00000000       0.00109581       0.00631787       0.00102650
C       -3.70756018       6.38188158       3.55738364       0.00000000       0.00033103      -0.00073803       0.00374090
C       -4.94046999       8.51777944       3.49887468       0.00000000       0.00334442       0.00059137      -0.00636952
C        2.44470129      -0.07054557       3.60387065       0.00000000       0.00510672       0.00483718      -0.00668200
C        1.19906424       2.00260114       4.03220257       0.00000000       0.00268142       0.00366752       0.00367935
C       -0.16308454       4.22012382       4.38095677       0.00000000      -0.00079905       0.00769779       0.01153620
C       -1.27747026       6.38373344       3.96942863       0.00000000      -0.00984229       0.00061371       0.00262805
C       -2.47363695       8.50299403       3.65264790       0.00000000      -0.00286496      -0.00981866       0.00410800
C        4.90807739      -0.03513370       3.54368025       0.00000000      -0.00015440       0.00232933       0.00511251
C        3.63265269       2.03198970       3.40052763       0.00000000      -0.00618867       0.00849414      -0.00685030
P        1.38753765       6.36736869       4.86936547       0.00000000       0.00330292      -0.01031296      -0.00185094
C       -0.02563477       8.53977022       3.86839158       0.00000000       0.00133098      -0.00254816      -0.00100460
C        7.36426762      -0.01038548       3.54465739       0.00000000       0.00412404      -0.00610000      -0.00701949
C        6.11865889       2.12199983       3.34824850       0.00000000      -0.00077418      -0.01097451      -0.00385760
C        4.94262976       4.30133713       3.24402226       0.00000000      -0.00241085      -0.00005820      -0.00738463
C        3.73941303       6.43352362       3.77095842       0.00000000      -0.00736713      -0.00440453       0.01215382
C        2.44782791       8.56546439       3.76382284       0.00000000       0.00087787       0.00641547      -0.00095854
C        9.83713539      -0.01438948       3.53067556       0.00000000      -0.00156001      -0.00093265      -0.00992686
C        8.59518443       2.11802396       3.50025971       0.00000000       0.00708475      -0.00407943       0.00316510
C        7.37748975       4.25642382       3.41251034       0.00000000      -0.00237405      -0.00419584      -0.00532628
C        6.18462709       6.41845869       3.39908664       0.00000000       0.00877422      -0.00158952      -0.00412051
C        4.92096253       8.53403987       3.49790764       0.00000000       0.00215835       0.00108510       0.00051304
C       -0.04838886       1.36737718       3.80008975       0.00000000      -0.00034406       0.00918023       0.00943907
C       -1.31457805       3.50687463       3.95917389       0.00000000       0.00205866       0.00825956       0.00569308
C       -2.49474636       5.66767517       3.73776086       0.00000000      -0.00407240       0.00278740      -0.00052693
C       -3.70794604       7.80171416       3.56071486       0.00000000      -0.00232271      -0.00447055       0.00262796
C       -4.96183184       9.92584149       3.56181944       0.00000000       0.00079690       0.00578661      -0.00550434
C        2.42717991       1.33695217       3.70346269       0.00000000       0.00138611       0.00728648       0.00766865
P        1.19760758       3.37676731       5.11684807       0.00000000       0.00079150      -0.01174224      -0.00104033
C       -0.12267048       5.64093572       4.34579071       0.00000000      -0.00668821       0.00536235       0.00424431
C       -1.24988179       7.80381752       3.84521688       0.00000000      -0.00358062      -0.00352810       0.00343590
C       -2.48239032       9.92213779       3.58572716       0.00000000       0.00312077      -0.00763073      -0.00471742
C        4.89237298       1.39534094       3.40453109       0.00000000      -0.00604628       0.00231434      -0.00382661
S        3.42100542       3.61623418       2.73208168       0.00000000       0.00194396      -0.01759304      -0.00034372
C        1.23113081       7.90654645       4.07806417       0.00000000       0.00323406       0.00007715       0.00528647
C       -0.02757046       9.95170281       3.63509043       0.00000000       0.00213624      -0.00254903      -0.00741325
C        7.35496177       1.41315081       3.43764617       0.00000000       0.00758188      -0.00929570      -0.00063999
C        6.13610752       3.54407371       3.30687364       0.00000000      -0.00626725      -0.00732876       0.00356551
C        4.92081833       5.73558396       3.42425459       0.00000000      -0.00170831       0.00476186      -0.01519805
C        3.68465221       7.81974745       3.66330553       0.00000000      -0.00254584       0.00322062      -0.00171340
C        2.43531977       9.96897239       3.57799979       0.00000000       0.00059395       0.00008160      -0.01177779
C        9.83028623       1.40281395       3.58225010       0.00000000       0.00559451      -0.00321819       0.00163598
C        8.60112705       3.53953419       3.52335226       0.00000000       0.00108505       0.00034208       0.00332223
C        7.39293074       5.68194293       3.43074367       0.00000000       0.00785996      -0.00422495       0.00751223
C        6.15969681       7.82781521       3.44663429       0.00000000       0.00663383      -0.00098907      -0.00404151
C        4.90539001       9.94868608       3.51676865       0.00000000      -0.00189743       0.00252266       0.00074112
Sc       3.47068731       4.80466595       5.22677411       0.00000000      -0.01095188       0.00281005       0.01520030
O        3.77209373       5.71314272       8.14099285       1.00000000       0.00034738       0.01276668       0.00773365
O        3.65161403       5.36718268       6.89387689       1.00000000      -0.00476833       0.00361868      -0.01881065
