52
Lattice="12.336457 0.0 0.0 -6.168228499999997 10.683685154694365 0.0 0.0 0.0 15.0" Properties=species:S:1:pos:R:3:forces:R:3 energy=-450.13529641203723 free_energy=-450.13529641203723 stress="-0.004551247792794302 -5.384459020262289e-06 6.649537313352628e-05 -5.384459020262289e-06 -0.006617319716639668 3.72942100551619e-06 6.649537313352628e-05 3.72942100551619e-06 3.288602902956797e-05" pbc="T T T"
C        0.01617849       0.00042594       3.48724870       0.00716582      -0.00462414       0.00522463
C       -1.21593153       2.13480250       3.50754570      -0.00609992      -0.01133526      -0.01038050
C       -2.43955777       4.26645066       3.51304014      -0.00500029       0.00123816       0.01536302
C       -3.67709673       6.40152690       3.50765145      -0.00316159       0.01174769      -0.00147138
C       -4.92184689       8.53763113       3.51224989      -0.00238231       0.00226660       0.00523299
C        2.48078650      -0.02307648       3.52183676       0.00468666       0.00625769       0.00246475
C        1.24341074       2.12461602       3.78434201      -0.00548326      -0.00164956       0.00745901
C        0.02915794       4.24525083       3.83707946       0.00398794      -0.00024098       0.00396387
C       -1.21684769       6.41100225       3.58069846       0.00112540       0.00079616       0.00015037
C       -2.45424880       8.53572729       3.44209622       0.00566929       0.00657514      -0.00754430
C        4.95373384      -0.01794190       3.52601795      -0.00131716       0.00575053       0.00061600
C        3.71794720       2.01365447       4.01966342       0.00264969       0.00742332      -0.01166611
C        1.18115050       6.47796893       4.08600428      -0.00143425       0.00610037      -0.00475714
C        0.01256054       8.54144583       3.55384572      -0.00304750      -0.00294126      -0.00749566
C        7.41492923       0.00313933       3.48103048      -0.00040500      -0.00091095       0.00065209
C        6.19141192       2.12300141       3.70159451       0.01121515      -0.00661042      -0.00068991
C        5.06473753       4.26905604       4.22735094      -0.00776391       0.01208477      -0.00569964
P        3.65133079       6.46726484       4.90896485      -0.00914418      -0.00695790      -0.00670332
C        2.47920390       8.58753954       3.76211852       0.00168797      -0.00302805       0.00202986
C        9.88579407       0.00609000       3.47474206       0.00475322       0.00276882      -0.00045268
C        8.65089127       2.13579817       3.46676234       0.00758865      -0.00254871       0.00546894
C        7.43520261       4.26786167       3.63472804      -0.00175520      -0.00874734      -0.00343507
C        6.22042896       6.42069969       3.83997120       0.00048294      -0.00460738      -0.00844827
C        4.96450342       8.57040415       3.73359297       0.00595020       0.00071545       0.01156130
C        0.01228042       1.41993751       3.55308603      -0.00330825      -0.01057631      -0.00569213
C       -1.21736498       3.54997424       3.58337455      -0.00376070      -0.00668445      -0.01025104
C       -2.43919737       5.69405097       3.51393736      -0.00281276       0.00651970       0.00870380
C       -3.68477364       7.82499372       3.46897707       0.00306029       0.01005562      -0.00305116
C       -4.92179465       9.95836769       3.47813582       0.01074278      -0.00336019       0.00429316
C        2.47952021       1.37317722       3.76099145      -0.00350766       0.00340830       0.00537867
C        1.18141291       3.48289766       4.08270655       0.00734148       0.00162893       0.00796890
C        0.02945664       5.71580917       3.83648411       0.00124263       0.00358324       0.00770756
C       -1.21555768       7.82631304       3.50454490       0.00229816       0.00267875       0.00199807
C       -2.45043405       9.95441197       3.47436660       0.00382793       0.00574814       0.00031546
C        4.96425338       1.39006340       3.73680483       0.00485709       0.00434274       0.00504349
P        3.64898620       3.49683390       4.90484959      -0.01321239      -0.00741683      -0.00404186
C        1.24309333       7.83639293       3.78681027      -0.00291121       0.00188552       0.00559397
C        0.01685169       9.96093893       3.48970135      -0.00685355      -0.00325856       0.00475903
C        7.41348433       1.42388479       3.51237635       0.01533763      -0.00565064       0.00148317
C        6.21953985       3.54136696       3.83580676      -0.00259401      -0.00450012       0.00101613
C        5.06512523       5.69217449       4.22885598      -0.00719553       0.00896768      -0.00278506
C        3.71831319       7.94635748       4.01646324       0.00462343      -0.00464177      -0.00097559
C        2.48064501       9.98392319       3.52386418       0.00342725      -0.00145946      -0.00071119
C        9.88191747       1.42486983       3.44371389      -0.00303131       0.00239807      -0.01365286
C        8.65848832       3.55941497       3.50332344       0.00175069      -0.00529760       0.01230009
C        7.43577436       5.69404994       3.63772863      -0.00609589      -0.00484375      -0.00705360
C        6.19263815       7.83880861       3.70266552      -0.00165917      -0.00427977      -0.00213551
C        4.95349776       9.97836870       3.52336372       0.00245945       0.00425271       0.00420162
Sc       1.63649277       4.98168715       5.67907760       0.00714220      -0.00312652      -0.01040100
O        1.60527362       4.99467541       7.48390185      -0.00321299      -0.00282688       0.01187720
O        1.49353806       4.99715294       8.87571026      -0.00808142       0.00269772      -0.01068075
H        2.42183240       4.99013772       9.17930146      -0.00984251       0.00023300      -0.00265139
