51
Lattice="12.336457 0.0 0.0 -6.168228499999997 10.683685154694365 0.0 0.0 0.0 15.0" Properties=species:S:1:pos:R:3:initial_magmoms:R:1:forces:R:3 energy=-451.40798301665546 free_energy=-451.40798301665546 stress="0.004795719863184647 0.0018447077635717537 0.00013758581336751862 0.0018447077635717537 -0.0031778701813660443 7.35939658914364e-05 0.00013758581336751862 7.35939658914364e-05 0.00019564985831117387" pbc="T T T"
C        0.00971807      -0.03132708       3.67945205       0.00000000       0.01443603      -0.01938648       0.00851883
C       -1.19550100       2.13259465       3.69617113       0.00000000      -0.00553497       0.00955047       0.00174282
C       -2.44970269       4.25898362       3.59700542       0.00000000      -0.03906737      -0.01889229       0.02799173
C       -3.72205436       6.37580413       3.56898364       0.00000000       0.02005814       0.00160439      -0.01542084
C       -4.95745698       8.49607783       3.60140488       0.00000000       0.03035133      -0.00523053       0.00550255
C        2.47253883      -0.08241001       3.49369636       0.00000000      -0.01724768       0.04411706       0.01482848
C        1.30802202       2.01533384       3.79480934       0.00000000      -0.00357354       0.02656361      -0.01854137
C        0.04958173       4.32123683       3.75543573       0.00000000       0.01499605       0.03351348       0.00671812
C       -1.25727999       6.41560983       3.64457884       0.00000000       0.00810390      -0.02353631       0.01624862
C       -2.47796014       8.51419565       3.52324794       0.00000000       0.00657404       0.00261268      -0.05284446
C        4.94590623      -0.02664914       3.47396825       0.00000000      -0.02959371      -0.01534446       0.01958182
C        3.70665628       2.09913299       3.50445222       0.00000000      -0.00205858       0.00519723      -0.01134143
C        1.09889312       6.48157965       4.27664291       0.00000000      -0.03498760       0.00759736      -0.03156628
C       -0.01120774       8.54104114       3.70313998       0.00000000       0.01610440      -0.00837395       0.00141159
C        7.41732325      -0.01387258       3.63646437       0.00000000       0.03189213       0.02671526       0.00804036
C        6.16833149       2.12997825       3.52001629       0.00000000      -0.01919712       0.00158339       0.01614080
C        4.81911794       4.26383219       3.70232820       0.00000000      -0.00186841      -0.03342018       0.02811241
O        3.80280455       6.44546904       4.21053743       0.00000000       0.02009465       0.06119938      -0.01686115
C        2.49457050       8.52951932       3.97750823       0.00000000       0.00452308      -0.02714058       0.01561281
C        9.88291765      -0.01141569       3.73191690       0.00000000      -0.01312973       0.02760852       0.02481457
C        8.65269509       2.12722204       3.59785579       0.00000000      -0.00386019      -0.01744742       0.03277057
C        7.36693547       4.24699192       3.59527545       0.00000000       0.02724544      -0.01606479       0.00255728
C        6.13669797       6.37327433       3.71876987       0.00000000      -0.00354162      -0.02825244       0.01067192
C        4.93832423       8.52600871       3.84682166       0.00000000      -0.00518293       0.00327331      -0.02003793
C        0.03910328       1.40370781       3.73523539       0.00000000       0.00540181      -0.00634618      -0.02395416
C       -1.16787631       3.57142156       3.66666675       0.00000000      -0.01532234       0.02510386       0.00040408
C       -2.47260599       5.68134587       3.57865753       0.00000000      -0.00940277      -0.02347458       0.00202580
C       -3.71523369       7.79551833       3.54607227       0.00000000       0.02437897       0.00321881       0.02075729
C       -4.94190666       9.91892678       3.58637339       0.00000000       0.02381092      -0.00308833      -0.01030123
C        2.48917714       1.32569203       3.55737847       0.00000000       0.00645831       0.05430823       0.00733140
P        1.73239415       3.70107328       4.14265673       0.00000000       0.05042462       0.01051435       0.02113387
C        0.00097294       5.74156588       3.85931458       0.00000000       0.01216164       0.02716591      -0.00444602
C       -1.24127202       7.82449671       3.60481059       0.00000000       0.01096524      -0.02577879       0.00824960
C       -2.45494998       9.92428702       3.47648956       0.00000000      -0.04717786       0.01164116      -0.04831179
C        4.95127862       1.39860131       3.45454890       0.00000000      -0.02904424      -0.00871105       0.03062879
C        3.57151580       3.49857477       3.63703503       0.00000000      -0.04283344       0.00230127      -0.01577034
C        1.21334735       7.80883178       3.98574058       0.00000000       0.00533932       0.00018459       0.00733757
C        0.00847478       9.95221970       3.58756033       0.00000000       0.01840201       0.01280856       0.01240900
C        7.41554718       1.41220965       3.56975265       0.00000000      -0.00144477       0.02385211      -0.00275534
C        6.11061368       3.55456096       3.59517968       0.00000000       0.00757088      -0.00535717      -0.01527962
C        4.93149926       5.67960122       3.87542221       0.00000000      -0.00364988      -0.02705151      -0.02104817
C        3.73246413       7.85840518       4.06924133       0.00000000       0.00387397      -0.01849212      -0.01702341
C        2.48504432       9.95278646       3.77050789       0.00000000       0.01118275      -0.01235694       0.02554357
C        9.89939670       1.42350122       3.66416921       0.00000000      -0.00405412       0.00910318       0.00303925
C        8.63975675       3.55077636       3.58133461       0.00000000      -0.00405279      -0.04451941       0.01021769
C        7.37796062       5.66174956       3.61747991       0.00000000       0.01517726      -0.01097350      -0.02347351
C        6.15530769       7.79877408       3.72724934       0.00000000      -0.00337933      -0.00158303      -0.00387639
C        4.93961317       9.95451132       3.75219933       0.00000000      -0.01185715       0.03329692       0.01813171
Sc       2.68504079       5.82008369       5.99962463       0.00000000       0.23322182       0.43402846      -0.66288822
O        3.38044930       6.57865451       7.40716998       1.00000000      -0.17690037      -0.11020080      -0.01698318
O        1.89254698       3.93967014       5.66691032       1.00000000      -0.09478617      -0.38764072       0.62424994
