51
Lattice="12.336457 0.0 0.0 -6.168228499999997 10.683685154694365 0.0 0.0 0.0 15.0" Properties=species:S:1:pos:R:3:initial_magmoms:R:1:forces:R:3 energy=-450.30276422578436 free_energy=-450.30276422578436 stress="-0.0007404181036372735 -0.0002310143020819638 -7.068156169926219e-06 -0.0002310143020819638 0.002439909304662991 1.1412826389451248e-06 -7.068156169926219e-06 1.1412826389451248e-06 -7.200512283031092e-05" pbc="T T T"
C       -0.02640452       0.01668886       3.51436953       0.00000000       0.00015741       0.00019984      -0.00013298
C       -1.27102112       2.13035359       3.41482206       0.00000000      -0.00062418      -0.00000220       0.00000746
C       -2.50947416       4.26684433       3.35475837       0.00000000       0.00018509      -0.00012885      -0.00006244
C       -3.74148802       6.41080015       3.44233752       0.00000000       0.00002427      -0.00005464      -0.00017118
C       -4.96959545       8.55199831       3.55205916       0.00000000       0.00055730      -0.00008221       0.00003993
C        2.42964146       0.02708522       3.61887572       0.00000000       0.00007518      -0.00026241       0.00002298
C        1.17106471       2.18420714       3.78024661       0.00000000       0.00036420      -0.00002715       0.00052538
C       -0.04952069       4.24498682       3.56436120       0.00000000       0.00226009       0.00167436       0.00199738
C       -1.28178052       6.41167905       3.36910543       0.00000000      -0.00054874       0.00003609       0.00002076
C       -2.50759104       8.55391529       3.42513227       0.00000000       0.00028072       0.00001350      -0.00027639
C        4.90599828      -0.01297285       3.58480317       0.00000000      -0.00033683      -0.00016167      -0.00011614
C        3.68377854       2.03459676       4.22990543       0.00000000      -0.00007911       0.00060396       0.00006789
N        1.10534221       6.39603542       3.81831179       0.00000000       0.00208413      -0.00520847       0.00596597
C       -0.03178373       8.51734412       3.51218974       0.00000000       0.00021940       0.00019695       0.00004943
C        7.36988557      -0.02213500       3.53020002       0.00000000       0.00005949       0.00015671      -0.00030910
C        6.15052215       2.12456419       3.81539588       0.00000000       0.00020985      -0.00021323      -0.00001880
C        5.08441671       4.27607350       4.57604921       0.00000000      -0.00064913       0.00020165       0.00029567
P        3.96413577       6.78054824       5.45405933       0.00000000       0.00085061       0.00074909      -0.00134501
C        2.43275679       8.50867781       3.79662870       0.00000000      -0.00030273      -0.00036735      -0.00017543
C        9.82912546      -0.01646564       3.47975746       0.00000000      -0.00029652      -0.00007239       0.00033060
C        8.59580674       2.12458887       3.45553742       0.00000000       0.00012162       0.00042427      -0.00011944
C        7.38033785       4.26453521       3.65863451       0.00000000       0.00019411       0.00009938       0.00012635
C        6.18220231       6.41090159       3.96081952       0.00000000      -0.00017218       0.00006446      -0.00016082
C        4.91366496       8.56973520       3.76834992       0.00000000      -0.00018158      -0.00016617       0.00020922
C       -0.02940569       1.44596980       3.53169166       0.00000000      -0.00001330       0.00009722       0.00003903
C       -1.27691236       3.55023820       3.38039678       0.00000000      -0.00045004      -0.00019003      -0.00000880
C       -2.51047405       5.69414623       3.35201531       0.00000000      -0.00002333      -0.00017950       0.00016315
C       -3.73874125       7.83819181       3.45446876       0.00000000       0.00056035      -0.00006334       0.00037765
C       -4.96345750       9.98771660       3.54139807       0.00000000       0.00021019      -0.00008976       0.00003403
C        2.42952484       1.44950339       3.88961836       0.00000000       0.00000697      -0.00013598      -0.00022049
N        1.10185761       3.55740915       3.90825699       0.00000000       0.00202083       0.00496904       0.00483510
C       -0.04955130       5.71364878       3.54102669       0.00000000       0.00241566      -0.00139748       0.00213272
C       -1.27364334       7.83184211       3.41041322       0.00000000       0.00006850      -0.00012907      -0.00025837
C       -2.50731599       9.98077718       3.53194168       0.00000000      -0.00016700      -0.00026050      -0.00004938
C        4.91199195       1.39474232       3.84860434       0.00000000      -0.00019017      -0.00007821      -0.00026763
P        3.97924753       3.21030989       5.52902946       0.00000000       0.00055138      -0.00069261      -0.00155905
C        1.17369661       7.76756937       3.70530287       0.00000000       0.00027438      -0.00019482      -0.00036719
C       -0.02946620       9.94844294       3.52690384       0.00000000      -0.00013640       0.00020593      -0.00022968
C        7.36369475       1.41258048       3.56642105       0.00000000       0.00041802       0.00018023      -0.00044432
C        6.18524580       3.55212381       3.99292701       0.00000000      -0.00034022       0.00022290      -0.00012496
C        5.08477752       5.69548966       4.54616515       0.00000000      -0.00060545       0.00067619       0.00061170
C        3.68746542       7.93388712       4.12867135       0.00000000      -0.00018687      -0.00060903       0.00052611
C        2.42851314       9.93638903       3.55858451       0.00000000      -0.00020196      -0.00028004      -0.00022959
C        9.82901906       1.41096843       3.40771972       0.00000000      -0.00048531      -0.00011440      -0.00007180
C        8.59557571       3.55095791       3.44970380       0.00000000       0.00009314       0.00028294      -0.00021018
C        7.38093275       5.69587203       3.64775770       0.00000000       0.00000759       0.00007027      -0.00046883
C        6.15199788       7.83896768       3.76761156       0.00000000       0.00028222       0.00000886       0.00001981
C        4.90804550       9.98008568       3.52457232       0.00000000       0.00004219       0.00015983       0.00006964
Sc       1.33802548       4.92694663       5.65896832       0.00000000      -0.12111083       0.01243288      -0.56972636
O        2.65321581       3.64525477       6.20855492       1.00000000      -0.00753163       0.00093292       0.03876526
O        2.56853054       6.32936062       5.93908014       1.00000000       0.12003864      -0.01349797       0.51989117
