52
Lattice="12.336457 0.0 0.0 -6.168228499999997 10.683685154694365 0.0 0.0 0.0 15.0" Properties=species:S:1:pos:R:3:forces:R:3 energy=-448.23275291102357 free_energy=-448.23275291102357 stress="-0.004351022602768888 -0.003516807649559184 2.0666835469345322e-05 -0.003516807649559184 -0.0041215974473085065 -1.203867336101445e-06 2.0666835469345322e-05 -1.203867336101445e-06 1.2227639899501093e-05" pbc="T T T"
C        0.00443718      -0.00902936       3.90405508       0.00432716      -0.00132862      -0.00698579
C       -1.26000878       2.11057996       3.92898847      -0.00127665      -0.00802738       0.00228171
C       -2.48592577       4.26574551       3.92217451       0.00608648      -0.00363039       0.00486128
C       -3.67838523       6.40972150       3.91325262      -0.00061461       0.00372417      -0.00731468
C       -4.90875473       8.55434046       3.91581447       0.00115341       0.00011984       0.00410800
C        2.46943955       0.00590587       3.80853099       0.00466046      -0.01035313       0.01088529
C        1.19283251       2.08762332       3.81727329       0.00310487       0.00291243       0.00435339
C       -0.07113059       4.20969353       3.82146258      -0.00487630      -0.00132813       0.00404371
C       -1.21833738       6.39069416       3.76477267       0.00071790      -0.00224931       0.00297015
C       -2.44570464       8.54004674       3.80749027       0.00550277       0.00222015       0.00734633
C        4.93726591      -0.00213777       3.71324435      -0.00299007       0.00528377      -0.00676641
C        3.68126913       2.11020968       3.43296053       0.00014522      -0.00561615      -0.00438877
P        1.21524630       6.31789461       2.55662977       0.00027780      -0.00615855       0.00560696
C        0.01296640       8.53975431       3.61675604      -0.00318378       0.00176941      -0.01002354
C        7.40172446      -0.00259445       3.75410228      -0.01012737      -0.00130337       0.00219737
C        6.15714838       2.14716413       3.67271681       0.00265583       0.00203676       0.00409536
C        4.95457634       4.33754993       3.55028332       0.00602390       0.00891821      -0.01186289
N        3.79455121       6.46755124       3.82317241      -0.00335195      -0.00584839      -0.00201371
C        2.48998136       8.53938031       3.65298243       0.00601323       0.00587584      -0.00613367
C        9.86324327      -0.01238817       3.87422635      -0.00516313      -0.00094502      -0.00064830
C        8.61748971       2.13190320       3.87604743       0.00034177       0.00150414       0.00486751
C        7.39535338       4.27867357       3.85713735      -0.00436873      -0.00231385       0.00351589
C        6.20733141       6.44248966       3.86588967       0.00279732       0.00569166      -0.00138459
C        4.96049209       8.55057509       3.85765108      -0.00222316      -0.00244962      -0.00277644
C       -0.01601543       1.41276638       3.89237178      -0.00363372       0.00168525      -0.00945500
C       -1.26952740       3.52428280       3.91674099      -0.00041762      -0.01242877       0.00033514
C       -2.44868599       5.68889209       3.89042528       0.00060893      -0.00259003       0.00137001
C       -3.67651441       7.83430023       3.89190365       0.00137391       0.01067039       0.00419936
C       -4.92162579       9.97897956       3.89224691      -0.00095088      -0.00199481      -0.00168256
C        2.44134111       1.43488543       3.69374098       0.00180292      -0.00842326      -0.00218152
O        1.13449320       3.48311343       3.91400580      -0.00278980       0.00960401       0.00329147
C        0.01227985       5.61778353       3.65315322      -0.00365584      -0.00393580      -0.00567099
C       -1.21388300       7.81551548       3.70977322       0.00038523      -0.00400485       0.01041957
C       -2.46108168       9.96958363       3.77592328       0.00487689      -0.00345362       0.00466834
C        4.92424317       1.42762997       3.60760243       0.00636344      -0.00139446      -0.01000463
P        3.70494253       3.62892078       2.52950921       0.00443711       0.00563502       0.01329018
C        1.25783760       7.85850049       3.42227321       0.00400320       0.00310491      -0.00119482
C        0.00432449       9.96764805       3.70737302      -0.00934395       0.00154385      -0.00249781
C        7.38762111       1.42571993       3.78066834       0.00023783       0.00256678       0.00311707
C        6.16678955       3.57464640       3.70036734      -0.00867580       0.00371856       0.00290455
C        4.97845244       5.77280996       3.74763443       0.00535766       0.00558954       0.00456952
C        3.74573577       7.83426681       3.76336323      -0.00129819      -0.00296511      -0.00233644
C        2.47033118       9.96210109       3.77933579      -0.00835945       0.00411783       0.00872376
C        9.85440369       1.41209742       3.91128215      -0.00309648      -0.00844201       0.00232353
C        8.61839668       3.55812616       3.90547405       0.00109407       0.00045721      -0.00930152
C        7.42277682       5.70499132       3.89743156       0.00467700      -0.00003389      -0.00535003
C        6.19715171       7.85234970       3.90475301       0.00208576       0.00295460      -0.00330090
C        4.93824711       9.96789929       3.89137531       0.00370521      -0.00292821      -0.00546458
Sc       2.45966750       4.98981591       4.51872011      -0.00038389       0.01255341       0.00814300
O        2.46297455       5.03607531       6.32697001       0.00909345       0.00188070      -0.01428600
O        2.26488282       5.03062439       7.71672789      -0.00087883      -0.00026017      -0.00896283
H        3.17496120       5.03290249       8.07981242      -0.01225051      -0.00173153       0.01349994
