52
Lattice="12.336457 0.0 0.0 -6.168228499999997 10.683685154694365 0.0 0.0 0.0 15.0" Properties=species:S:1:pos:R:3:forces:R:3 energy=-450.704950526167 free_energy=-450.704950526167 stress="-0.001993863234009788 -0.0005451456157278381 0.00029833548932248525 -0.0005451456157278381 -0.0034485440701547275 -5.896836120017775e-05 0.00029833548932248525 -5.896836120017775e-05 0.00028124528807409177" pbc="T T T"
C        0.03710476       0.01790315       3.71758409      -0.10365085       0.03263278       0.02293321
C       -1.19434900       2.17228436       3.96439065      -0.01208745       0.00539907       0.01052586
C       -2.42738338       4.31478401       3.78616421       0.06733692      -0.03167429      -0.12179318
C       -3.65657078       6.43951142       3.47886631       0.06300227       0.03509515      -0.10243137
C       -4.89904189       8.57921730       3.42172570       0.06338011      -0.04493446       0.01107394
C        2.50290646      -0.01492185       3.73191967       0.06177756      -0.04787629      -0.05449166
C        1.26370719       2.00019109       4.36375109       0.04016980      -0.03909042       0.10226133
C       -0.03593625       4.39191127       4.32843807      -0.09693309      -0.00036582      -0.01716870
C       -1.21342665       6.46839233       3.76129953       0.00745429      -0.00794054      -0.00379875
C       -2.41905618       8.57685189       3.51109270      -0.00106640       0.00795011       0.09297809
C        4.98089515       0.02508435       3.72286458       0.03722601      -0.11783920       0.00673265
C        3.73320622       2.06512549       4.14471580       0.06758001      -0.06174355       0.09956868
N        1.13245310       6.52947230       4.33490850       0.17841094      -0.02065256       0.12387539
C        0.05011469       8.57262717       3.72655272      -0.18494823       0.04270529       0.05495915
C        7.44664218       0.02344189       3.74557719       0.13473591       0.00966958       0.02582693
C        6.21579116       2.18047769       3.79736344      -0.18414876      -0.02307606      -0.04637668
C        4.99897163       4.39080341       3.72782377      -0.04918188       0.01101959       0.18464784
O        3.86813492       6.50813365       3.90837128       0.10653077      -0.06579581      -0.13961473
C        2.52724573       8.53921237       3.86146361      -0.07156329      -0.04100902      -0.00407391
C        9.90523308       0.02427404       3.76416418       0.02982104       0.01232642      -0.09547617
C        8.68049171       2.17022089       3.75076952       0.03136694      -0.01175000      -0.04527768
C        7.45153622       4.30402445       3.57322478      -0.08239875       0.10269150      -0.03519267
C        6.22794849       6.46370026       3.37670872      -0.10025641      -0.03490176      -0.03356766
C        4.97893781       8.58258049       3.57040886       0.03768822       0.04147192      -0.11546927
C        0.02915092       1.42111109       4.01047897      -0.00555678       0.06250605       0.09388769
C       -1.19640717       3.61584816       4.02684743       0.01265213      -0.01794879       0.06844670
C       -2.42848448       5.73419527       3.65163586       0.02326371      -0.00417030       0.07306489
C       -3.65671840       7.86482773       3.43430328       0.09518829      -0.00073503       0.00385323
C       -4.90085265       9.99188074       3.58180566      -0.03722716      -0.01844874       0.13684018
C        2.49449875       1.34749825       4.09539652       0.10468500       0.04506132      -0.07917877
P        1.38765408       3.62573098       4.98616868       0.10557972       0.10045012      -0.04898150
C       -0.01577108       5.81378747       4.13552530       0.05160391      -0.00593663      -0.01175882
C       -1.18700364       7.87402551       3.64683525      -0.11535610      -0.01926404      -0.11695917
C       -2.41986871       9.99239443       3.62381848       0.05984488      -0.06335439      -0.01137631
C        4.99055820       1.44252572       3.89793954      -0.11295482      -0.13517885      -0.14032409
P        3.62535063       3.72617379       4.59149212       0.24052609       0.11716190      -0.16239550
C        1.25052054       7.84480938       3.97890113      -0.13612096      -0.00825002      -0.06618956
C        0.04605159       9.99537571       3.70252990       0.07405954       0.05271314       0.01153286
C        7.44643744       1.45688253       3.74330181      -0.03760729       0.03362812       0.04303869
C        6.21727626       3.60750833       3.68596677      -0.16605149       0.01556369      -0.01354207
C        5.03376434       5.78898778       3.57663116       0.02372244      -0.04495521       0.09502802
C        3.78018646       7.89843007       3.76674646       0.06707359       0.01520819       0.07229272
C        2.50948643       9.98151735       3.77141419       0.09171124      -0.02154963       0.03050217
C        9.91557888       1.46209979       3.80652089       0.05754966      -0.03926163       0.09732029
C        8.68584197       3.59508532       3.68929656       0.00461787       0.01340699       0.02416407
C        7.45635916       5.72035449       3.43367652      -0.04002683       0.14603377       0.04697464
C        6.21502012       7.88149545       3.40699382       0.00506649      -0.01222654       0.04782496
C        4.96996871      10.00552043       3.66606014      -0.04572034       0.01846256       0.00959843
Sc       2.76230264       5.99375621       5.80632218      -0.05216012       0.09750876       0.14907224
O        3.24762057       7.31976872       6.78499977      -0.09498045      -0.11687538      -0.04306779
O        1.36230194       3.84981600       6.70348176      -0.15467170      -0.08117789      -0.38204560
H        1.63966808       3.00299339       7.08769092      -0.05895619       0.11931683       0.15172679
