51
Lattice="12.336457 0.0 0.0 -6.168228499999997 10.683685154694365 0.0 0.0 0.0 15.0" Properties=species:S:1:pos:R:3:initial_magmoms:R:1:forces:R:3 energy=-613319.1969178073 free_energy=-613319.1969178073 stress="598.4990869397116 253.6850953120254 -139.36623193737094 253.6850953120254 265.7307636463617 24.623975731451953 -139.36623193737094 24.623975731451953 265.2593705955774" pbc="T T T"
C        0.35261958       2.37577720       3.88643857       0.00000000   48849.54556653   23722.41139187  -16477.98446180
C       -1.26455293       2.26436771       3.79646156       0.00000000   -1824.17701028  -24305.04031491    3860.85857333
C       -2.46237998       2.13206043       3.75359041       0.00000000   44173.07255507  176862.25985922   13103.37470825
C       -6.96690048       7.56880399       0.77144611       0.00000000    1069.28129636    2237.85385061   -1655.45136256
C       -6.30685383      10.41594775       0.07386437       0.00000000    -121.24398622    -165.40245930    -404.89959059
C        7.31770932      -2.57817149       0.34675429       0.00000000      -0.68478544       0.33824816      -0.44831733
C        1.37606587       2.15106846       4.61567505       0.00000000  327955.87497771  107683.53163433   -4382.41508745
C      -17.07233338      -7.59427887       9.12151806       0.00000000      75.81967629     106.59596825     308.79340486
C       -6.14806708       5.69887533       4.30915992       0.00000000   13195.68284908   12378.02074800    7726.06740393
C       -0.92594469       7.96231807       2.43389809       0.00000000      20.74267531      -8.90731545      -6.27246826
C        6.36625915      -2.19526802       5.16892459       0.00000000      -8.63647687     -19.28734945       5.34686789
C        1.05806817       1.74092268       4.60186236       0.00000000   -7705.44204729   56082.17616777  -46778.14893611
N        8.92950589      23.52989619      -5.65883697       0.00000000     -16.94616323      -1.97251511       8.91913459
C        4.97963071       9.53253338       5.28760253       0.00000000     287.06000374     -13.19092084    -265.44962229
C       10.21043682      -0.15691601      -2.37653124       0.00000000      -0.80162745      -0.37834087      -1.24599832
C        7.87648591      -1.20551284       7.07977678       0.00000000      -6.32082415      -6.96350928       8.66862613
C        3.10261002       1.68788759       2.73583499       0.00000000  -36936.37073370   66063.31841297   99874.85213684
S        4.22737152       7.28365287       2.25834256       0.00000000      60.78998466   19136.02531676   -4009.47204932
C        5.95901831      12.34501918       5.26259487       0.00000000    1950.24524832    1909.81030162    6945.73584979
C       12.01293493      -0.44132304       3.48115132       0.00000000    1100.09676521      20.31091126    2100.00676426
C       10.43732401      -1.03895689       2.51392039       0.00000000     -35.55800121    -395.91195732    -159.14342050
C        9.86936606       2.61735572       3.82335476       0.00000000   96244.07446733 -144705.54423124  -37318.50867465
C        7.97930798      11.21746386       5.00058088       0.00000000   20000.80543062   16835.52639947   -8220.69013913
C        1.91678756       9.87480702       4.04736279       0.00000000    -402.98753676    -397.74901167      48.16839375
C       -0.95235500       1.90045020       4.01318713       0.00000000   35856.38172548   15196.82664808   11791.82905360
C        0.39639898       2.88630096       3.12978521       0.00000000   52064.78388693    7156.86438649   26491.27481915
C       -6.47123032       5.04075301       1.67409702       0.00000000   26039.61428638   18364.22332800  -20127.72304411
C       -4.86918838      11.50081786       3.16004081       0.00000000   33427.14762090   34648.93504966   16030.45244624
C       -5.82584795      12.14695200       2.94671446       0.00000000   36622.97053012   37395.35028407   40676.20088035
C        1.02536595       5.38372977       4.51960755       0.00000000   18747.81538679  -26553.15439672   -2652.71395339
S        1.81230174       2.52060175       4.80390720       0.00000000   46331.31113712  -26461.34765682 -111346.49276536
C       -4.05724660       8.48946671       1.79994577       0.00000000     115.44057811    -473.10574808    -238.31267524
C       -1.38635463      10.53077536       7.63002864       0.00000000    -419.35174613    1338.95452987   -1461.06464348
C       -9.70713422       4.86864259       0.20852379       0.00000000   -5206.28872153    3754.89016420   -9571.69673798
C        9.24171369      -3.35187536       5.14082535       0.00000000    -973.94342311     213.62029650    1338.40504226
N       10.14828985       4.85257300       3.67654356       0.00000000     234.94770416   -3776.14545633     424.67940448
C        2.67189731      14.28461874       4.48688062       0.00000000    2566.79820930   -1263.48607958   -1140.35155592
C        1.90546817      11.83670659       7.69437514       0.00000000     -60.07032274      -9.95839455      61.66536479
C        8.83731708       0.64970845       4.05839822       0.00000000   -1423.20641649   -5589.43485343    -347.23011921
C        7.42981869       0.75143844       3.33273349       0.00000000     328.47841715   -1545.88799897     408.93386240
C        3.95920478       9.64920702       4.21020907       0.00000000      46.04487786    -817.55921188     131.52874597
C        5.71022400       5.25893505       0.79312504       0.00000000    6150.61467147    6053.26034927   -9762.82869004
C        2.85824929       4.83604394       8.35920718       0.00000000     192.19410380   -1078.49959654   -2758.45601622
C       10.51474938       2.42275973       3.74081229       0.00000000 -181215.60080707  -13459.08794863   11030.32701435
C        8.52758058       2.72104413       3.78293038       0.00000000    7572.72196002   -1517.65601871     531.31279560
C        5.51517734       7.82111189       8.16548262       0.00000000      -5.82208587     -14.07165561      11.70886037
C        9.72470608      10.16490302       6.70877157       0.00000000      43.75674479    2968.82065644   -1989.69465830
C        6.62094498      12.14173751       3.76549825       0.00000000   23388.57522127   10139.27691053   21332.76492229
Sc       3.41967431       3.30200299       3.65648262       0.00000000  791185.64207015 -606422.49660924 5155922.81812770
O       -7.55599392      -7.10174029       9.41893415       1.00000000     -16.32797077      21.63888464      48.42191267
O        3.36278133       3.26795552       3.71458217       1.00000000 -1399518.54994170  238711.39885249 -5139146.42012826
