51
Lattice="12.336457 0.0 0.0 -6.168228499999997 10.683685154694365 0.0 0.0 0.0 15.0" Properties=species:S:1:pos:R:3:initial_magmoms:R:1:forces:R:3 energy=-80607.93289432787 free_energy=-80607.93289432787 stress="150.85473527239736 -96.91352431548779 -62.96061908975237 -96.91352431548779 260.9967972033748 151.96177023047983 -62.96061908975237 151.96177023047983 158.03648478027722" pbc="T T T"
C        4.01426897      -3.73569664       9.18759301       0.00000000      -5.74293969      -2.09391198      -4.34391050
C       -5.77513881      -2.28514744       0.64677980       0.00000000       1.32556002      -6.45961583      -3.02796020
C        0.50174040       2.75794691      -2.21248104       0.00000000      -0.22884134      -0.21263428      -0.14783314
C       -4.80578736       6.58755512       8.03405191       0.00000000     -48.29087888      -3.11033933     -56.97842833
C      -11.02487075      13.41309687      -0.37414785       0.00000000      10.83603891       6.81718344     -33.69924364
C       -1.73995457       3.60502092     -11.60113553       0.00000000      57.29974678      12.93273948      -9.27096944
C        4.66071859       3.51697293       4.86454810       0.00000000  181132.52555757  269525.12607028  365166.23504838
C      -11.31289449      14.74032958      12.91819084       0.00000000      -3.30373213      -2.05235818       2.06543450
C        4.11989244       5.34001794       2.50132845       0.00000000    2108.24208469   -1095.30210951    1869.77760979
C       -5.51448501      11.51221695       3.55741294       0.00000000    -143.75242642     -90.72831422     -53.23089225
C        6.19745401       1.80920649       4.31877691       0.00000000   -9735.97132307   14271.35961175    2889.05256473
C        5.43156879       2.99351857       4.63609556       0.00000000  -31190.63400863   35097.71586985   26533.19908542
P        2.04208814       5.26267602       7.69468397       0.00000000     973.08155760   -1337.54800418   -1988.89707381
C       -4.16575085      10.02595656      -2.57187804       0.00000000       0.08519812       0.14230775       0.08471922
C        6.37893595       2.24902283       3.66692151       0.00000000   -4731.01115901    1714.17730200   10644.29101285
C        6.89063921       2.25347253       4.52252116       0.00000000  -16307.89670195    3853.52297766   -5029.93270032
C        4.73926389       4.73507748       3.56965515       0.00000000   -2458.87267692    3759.36053431  -14981.74476552
N        1.81061944       6.43831182       5.99326829       0.00000000     894.07911778    -494.69222818      36.46129346
C        3.11767924       2.80779076       7.98533737       0.00000000    -369.07761240       9.36258780     685.45761397
C        9.70594792      -0.09972273       2.57584193       0.00000000       4.71032098     -12.28692245      -3.96399927
C        8.26919753       4.54620897       6.68270776       0.00000000     261.66826525     197.19364036     161.63244166
C        9.92087355      -1.79705478       7.78796201       0.00000000     -20.18336444     -34.53955516     -62.49935587
C        3.72621112       6.12101010       4.18874561       0.00000000     431.02378093   -5056.80219269    4894.50607670
C        3.03386569       7.49046130       5.84857185       0.00000000     -32.95138965    -795.55432960     227.93181698
C        6.14825843       0.99068993       2.35376611       0.00000000     179.22660292     254.69247557     447.43073355
C       -5.11276067       6.20381894      -0.83065340       0.00000000      -4.79527136      -5.45779235       9.94264788
C       -0.45869112       4.88592032       3.67877454       0.00000000    -139.01193182      17.68221870     -49.50582476
C       -6.78602800       3.69023228      -3.14551340       0.00000000       4.35590556       0.76859253       3.31361890
C       -3.68317117      10.16771862       3.09355398       0.00000000    -122.39813736    -170.14234697     -82.81680862
C        5.07496728       3.10570726       4.88320071       0.00000000 -215390.10791847  271594.06616001   77156.82209202
P        4.73260492       3.98954760       5.29755855       0.00000000   11659.93211045 -581260.28649578 -456973.44013501
C        3.27116691       2.34105387       1.25450903       0.00000000     -79.03657497     -31.46440838    -160.23508882
C       -4.37024579       5.24543438       1.70714171       0.00000000      71.06778737      80.61111047     -98.16397872
C       -0.49346383      12.68386493       4.48012749       0.00000000   19678.41581499    5202.27308578   -3119.65526141
C        5.96838658       1.47080702       3.24221438       0.00000000   -1456.56890456    8373.30822252    7118.33091355
O        3.35944212       5.79649957       5.37942585       0.00000000    2520.26723233  -11734.23580883   -1048.57209956
C        1.18699746       4.70322013       7.08889809       0.00000000    1551.14409772    -234.30318565   -1485.49571013
C       -1.10071244      11.49405456       6.16122003       0.00000000     284.08021855    -915.82781622     164.95868707
C        9.76791195       4.62009267      11.66781518       0.00000000      -0.35154387      -0.25161024       0.06820968
C       14.04127589      -4.29614258      -7.85806170       0.00000000     -35.47636118      -6.57686102      35.61241147
C        3.66746575       7.11777747       4.76275284       0.00000000    -129.91499841   -1551.41484123     419.07562593
C       10.41020059       1.37250033      11.83427070       0.00000000       0.56931693      -2.88484260       5.39232891
C        4.31072522      10.95294823      -1.38659784       0.00000000      -0.19716327       3.29158876      -5.35301833
C        9.11741289       6.82012245       7.99291006       0.00000000      81.65409959      20.90410456      36.02052393
C        7.81357877       4.80920974       8.06943577       0.00000000     123.22283549     113.89501806     169.22696894
C        4.65237148       6.27227641       1.80479499       0.00000000      34.50763161     343.20639994    -198.24247780
C        2.77367444       6.95769463       0.50963607       0.00000000      14.65631950       3.77870808       9.60659150
C        2.57812858       9.03494515       2.74277566       0.00000000      31.56853194     -28.84558563      16.89258835
Sc       3.64332676       4.42841482       5.48838748       0.00000000 -138487.58788635   -2372.78293300  186164.30449748
O        3.41878836       4.39703255       6.60474989       1.00000000     672.83506411    1699.07248531  -29637.18447272
O        3.27939559       4.40911784       5.79307625       1.00000000  198110.98294848   -8909.40395146 -169781.29114864
