51
Lattice="12.336457 0.0 0.0 -6.168228499999997 10.683685154694365 0.0 0.0 0.0 15.0" Properties=species:S:1:pos:R:3:initial_magmoms:R:1:forces:R:3 energy=-449.1267983392258 free_energy=-449.1267983392258 stress="0.00044925042118094564 -2.2884291967265025e-05 3.772590240898051e-05 -2.2884291967265025e-05 -0.00198800901282812 -2.962417689123274e-05 3.772590240898051e-05 -2.962417689123274e-05 0.00010398902050245683" pbc="T T T"
C        0.00575954       0.00679559       3.76521541       0.00000000      -0.00199014      -0.00075617      -0.00313386
C       -1.21733902       2.16817899       3.78490000       0.00000000      -0.00830349       0.00012224      -0.00190182
C       -2.45780615       4.30661604       3.46252019       0.00000000      -0.00446405      -0.00662144       0.00077829
C       -3.68979534       6.44231763       3.31280068       0.00000000       0.00054486       0.00066727      -0.00151855
C       -4.92725032       8.57520485       3.46550505       0.00000000      -0.00198311       0.00480737      -0.00109982
C        2.48228483      -0.03319302       3.92359080       0.00000000       0.00156965       0.00076299      -0.00325003
C        1.22923909       1.99513287       4.36652076       0.00000000       0.00011156       0.00742580      -0.00481699
C       -0.03220444       4.37596018       3.79044380       0.00000000       0.00144377       0.00095224       0.00279139
C       -1.23466545       6.46781765       3.43898517       0.00000000       0.00075620      -0.00968365       0.00316423
C       -2.45373946       8.57810863       3.51709621       0.00000000       0.00129276       0.00074054      -0.00260370
C        4.95043197       0.02034964       3.83766454       0.00000000       0.00080554      -0.00657329      -0.00136742
C        3.73192297       2.04739601       4.45327905       0.00000000       0.00142293       0.00853868      -0.00050736
N        1.10217711       6.49504068       4.10792141       0.00000000       0.06363715      -0.00723242       0.03344345
C        0.01215654       8.57779786       3.64375525       0.00000000       0.00611684       0.00583513       0.00307769
C        7.41758623       0.03064795       3.72964082       0.00000000       0.00143278       0.00259162       0.00411188
C        6.16499475       2.18702356       3.81288522       0.00000000       0.00516945      -0.00006321       0.00007974
C        4.94984468       4.40284597       3.67578099       0.00000000       0.00082496       0.00728776       0.00562528
O        3.82508010       6.51095015       3.78132713       0.00000000      -0.05906476      -0.02541113       0.07831448
C        2.48995484       8.53631032       3.76253383       0.00000000      -0.00240492       0.00369075      -0.00120110
C        9.87365562       0.02416840       3.68564745       0.00000000       0.00016628      -0.00113733       0.00265597
C        8.64171545       2.17432379       3.62062612       0.00000000       0.00082370       0.00186837       0.00352807
C        7.39974854       4.30860125       3.43361805       0.00000000       0.00286451      -0.00396706      -0.00193695
C        6.18255984       6.46737418       3.28284497       0.00000000       0.00295634      -0.01527661       0.00049145
C        4.94722584       8.58210062       3.51537791       0.00000000       0.00021874       0.00272111       0.00226257
C        0.00121805       1.42043588       3.97763246       0.00000000       0.00973784      -0.00173676       0.00003103
C       -1.21682757       3.60500331       3.66270372       0.00000000       0.00523872       0.00711280       0.00284431
C       -2.45496868       5.72937604       3.36592185       0.00000000       0.00333749       0.00866468      -0.00305395
C       -3.68683578       7.86597222       3.40272505       0.00000000      -0.00059825      -0.00540180      -0.00500953
C       -4.92604784       9.97818472       3.71724133       0.00000000       0.00189090      -0.00057045      -0.00443185
C        2.48658534       1.33451573       4.29534892       0.00000000      -0.00086072       0.00184478      -0.00533393
P        1.31852080       3.68599483       4.69703144       0.00000000      -0.06402066      -0.01085081      -0.04452846
C       -0.02265199       5.79802179       3.72964869       0.00000000      -0.02682550      -0.02206951      -0.00470571
C       -1.22182677       7.87795778       3.49869760       0.00000000      -0.00725373       0.00527123      -0.00456042
C       -2.44648813       9.97968200       3.75865730       0.00000000       0.00004385       0.00361699      -0.00201287
C        4.94933535       1.44404966       4.04668716       0.00000000      -0.00786822       0.00678578       0.00078747
P        3.63634194       3.81224347       4.70992543       0.00000000       0.05584587      -0.05493251      -0.09970689
C        1.21440252       7.84216263       3.83469277       0.00000000      -0.00079802       0.00162124       0.00586494
C        0.01561963      10.00321475       3.71918073       0.00000000      -0.00213426      -0.00218476      -0.00081687
C        7.40247906       1.46718977       3.71058109       0.00000000      -0.00140767      -0.00088596       0.00261960
C        6.15753754       3.61584639       3.63101909       0.00000000      -0.00452802       0.00043002      -0.00061994
C        4.98448121       5.79009190       3.47540157       0.00000000       0.00535842      -0.00083819       0.00647316
C        3.74710637       7.88984386       3.67407473       0.00000000       0.00235352      -0.01429024       0.01234282
C        2.47959264       9.98130689       3.70917499       0.00000000       0.00168771      -0.00076508       0.00457815
C        9.88354541       1.46206565       3.68585487       0.00000000       0.00245655       0.00275709       0.00307119
C        8.64228293       3.59597219       3.49058287       0.00000000       0.00281112      -0.00050657       0.00211730
C        7.41236341       5.72768368       3.30413012       0.00000000      -0.00219303       0.00549726      -0.00293179
C        6.18295200       7.88173189       3.37704063       0.00000000       0.00114913       0.00876432      -0.00249021
C        4.93771820      10.00189787       3.63699972       0.00000000      -0.00245353       0.00159432      -0.00034331
Sc       2.20744577       5.67136911       5.78709981       0.00000000       0.35600907       0.36294964       0.42022084
O        1.06955885       4.17297730       6.20305440       1.00000000      -0.13615323       0.07025182      -0.04785639
O        3.87260974       4.59132828       6.08452572       1.00000000      -0.20477292      -0.34341888      -0.34953557
