52
Lattice="12.336457 0.0 0.0 -6.168228499999997 10.683685154694365 0.0 0.0 0.0 15.0" Properties=species:S:1:pos:R:3:forces:R:3 energy=-450.3538813968291 free_energy=-450.3538813968291 stress="-0.00437381730702124 -0.0015637032172766093 -1.0139325346452808e-05 -0.0015637032172766093 -0.0013664840313643905 2.4135581165136524e-06 -1.0139325346452808e-05 2.4135581165136524e-06 1.8942579797249138e-05" pbc="T T T"
C        0.03580670      -0.06263185       3.64269089       0.01599661      -0.00701022      -0.02385311
C       -1.23278747       2.04859624       3.86669233       0.01269930       0.00704577       0.01428379
C       -2.48029155       4.20165695       3.78542921       0.00813912       0.00376847      -0.03012970
C       -3.67077316       6.35174590       3.57786397      -0.01342310      -0.01014597       0.00575560
C       -4.88481863       8.49789149       3.50583964       0.03073542      -0.01124145       0.04263663
C        2.51474355      -0.03841535       3.67997678      -0.00817082      -0.00440420       0.03220795
C        1.25014942       1.99179441       4.21943985       0.01057608       0.00263985      -0.02489225
C       -0.17668492       4.16702299       4.54599303       0.01002932      -0.02248215       0.01023741
C       -1.25921169       6.34524599       4.03366387      -0.02242305       0.00434865       0.00107482
C       -2.42266503       8.48350791       3.68377731       0.00242034       0.02596864      -0.00853616
C        4.96428567      -0.05667861       3.67574192       0.01172546      -0.00499341       0.01973399
C        3.76378936       2.06970206       3.88150227      -0.01666187      -0.01963488      -0.00909929
P        1.37886940       6.27956507       4.76110188       0.01904348       0.02784424       0.04048880
C        0.03482676       8.49386367       3.91533585      -0.01420464      -0.00200783      -0.01319895
C        7.43473927      -0.07137787       3.62677323      -0.00198036       0.01200753       0.00302242
C        6.19684178       2.07451258       3.56815802       0.01010526      -0.01433980       0.04321414
C        5.00763104       4.21682693       3.73075168      -0.00748683      -0.04325983       0.01440808
N        3.85852240       6.39137973       4.02945902      -0.00794865      -0.02258909      -0.01585736
C        2.53457028       8.49193877       3.84804180      -0.02562378       0.04246698      -0.01395227
C        9.90456327      -0.07142054       3.58617846       0.01054154       0.00909413       0.01177046
C        8.65668451       2.06658231       3.58219749       0.01018268      -0.01254513      -0.02606016
C        7.42312678       4.21613750       3.51560706       0.00730502       0.00049577       0.00742577
C        6.21335078       6.35658704       3.49846556      -0.01158835       0.02474262      -0.01960242
C        4.98831019       8.47785396       3.57858929      -0.03110676       0.01068912      -0.01533269
C        0.02033801       1.34338832       3.89770412       0.01545018      -0.00107780      -0.01172637
C       -1.29078669       3.45902575       4.04757663       0.00194367       0.00110984       0.04640029
C       -2.47094369       5.63044672       3.78122198      -0.00901927       0.00190137      -0.02028566
C       -3.65707921       7.77881250       3.56841793       0.02552878      -0.01755852       0.01033677
C       -4.88768424       9.92610932       3.59269218       0.01021587      -0.01459523      -0.00144038
C        2.51932626       1.38476193       3.91165057      -0.00483938      -0.01278364       0.00854479
P        1.16177457       3.33650921       5.33413874       0.02709707      -0.00195455      -0.00906694
C       -0.16938442       5.58239985       4.49669988      -0.02067555      -0.01430362       0.01302956
C       -1.20454633       7.77129595       3.88129035      -0.01076916       0.02077752       0.01131985
C       -2.43009176       9.91859137       3.66517806      -0.00244286       0.02868819      -0.02012656
C        4.95980113       1.37999800       3.67707824      -0.00350434      -0.01056739       0.00692116
O        3.82174643       3.47480838       3.97557017      -0.02831637       0.00171318       0.00255972
C        1.29567863       7.86660005       4.12853770      -0.01869153      -0.00961402      -0.01933203
C        0.03066086       9.91275585       3.71668201       0.01509539      -0.01742678      -0.01855417
C        7.42104973       1.35836153       3.55345744       0.00040367      -0.00391958       0.01298898
C        6.19108135       3.50128218       3.55395586       0.01459091      -0.02548029      -0.03875660
C        4.97680593       5.65524278       3.69994270       0.01308530      -0.03396621       0.01823580
C        3.78757608       7.74315999       3.80571071      -0.04597726       0.01374817       0.02140360
C        2.51122938       9.89967179       3.64231564      -0.00596262       0.03041998       0.00315288
C        9.89130915       1.35073661       3.64186400       0.01961042       0.00104727       0.00024711
C        8.64528088       3.49347134       3.59912752       0.01404827      -0.00684179      -0.04535191
C        7.43009522       5.63748573       3.49517886      -0.01758819       0.01159424      -0.00198114
C        6.22021975       7.77658658       3.50102374      -0.00538463       0.02837979      -0.03585665
C        4.97372231       9.90442518       3.57280981       0.00281863       0.01001059       0.01938125
Sc       3.45227887       4.84599544       5.74071367       0.04893475       0.02990196       0.01648540
O        4.82641349       4.73645808       6.77866768      -0.04508294      -0.00579728      -0.02433910
O        1.72538002       6.22474619       6.45582294      -0.02084320       0.08060115       0.14512492
H        1.75147109       7.08291778       6.91173915       0.03139301      -0.08046434      -0.13506005
