51
Lattice="12.336457 0.0 0.0 -6.168228499999997 10.683685154694365 0.0 0.0 0.0 15.0" Properties=species:S:1:pos:R:3:initial_magmoms:R:1:forces:R:3 energy=-1306450.1818062165 free_energy=-1306450.1818062165 stress="899.4240509714846 214.8926017106675 -382.96454040206294 214.8926017106675 767.471596938253 -216.19053861525126 -382.96454040206294 -216.19053861525126 1338.8529323425248" pbc="T T T"
C        3.91015777       0.47931732      -1.77916228       0.00000000    1042.45037550   -2322.95049879    7728.51008950
C        3.28572934      -1.76261442       1.65282829       0.00000000       3.66964782     -20.47731755     -65.12562708
C        1.42522921      11.74466277      -0.52034979       0.00000000      -0.78408889      -0.47010942      -0.58272754
C       -7.67232949       5.29323787       2.83608757       0.00000000     208.16170536     294.66204512    -525.64562608
C       -2.97493616       4.66386752       4.35766994       0.00000000      15.91293132      20.79973097     -25.89170839
C        3.70263494      -1.68716569       4.30434754       0.00000000     126.68432346    3872.37997848    4333.47826726
C        3.27167824      -0.10730966       5.92319202       0.00000000   27222.58488871  132377.39848607   57852.46131255
C        1.90477791       1.54534962       5.92697636       0.00000000  101083.52300076   24964.85466204   -4961.89498752
C        4.38700941       2.22470936       6.28502106       0.00000000 -639840.83018084 -364199.71419639  615916.29438932
C       -1.51070620      11.13776004       0.34338932       0.00000000      12.54474940     -15.64601960      -0.44850081
C       -0.15786025       4.50050277       5.94121419       0.00000000    3018.76624496   -1024.53259761    -161.41001790
C        4.01377785       2.01275074       6.50368772       0.00000000  275370.83937798  290634.92880086 -117547.07664861
S        1.00298536      14.42906942       3.49366182       0.00000000     192.96402864    -274.46193537    -158.96345246
C       -9.05306275      11.86968608       5.39134298       0.00000000     120.62228728     -16.29327306     -21.34124429
C        7.17324541      -1.63889437       5.45107060       0.00000000     141.74986081    -171.34492860     102.64197735
C        4.00894051       7.23301830       4.85122148       0.00000000    -215.35974718    1035.54618819    -420.01278992
C        6.32231262       1.91355313       8.61762653       0.00000000  -25818.88088693    5133.85038254  -47846.29121318
S        0.86615788       9.46651790       9.09094492       0.00000000    -658.29007435    1816.42186861   -3798.78231335
C        3.83666451      11.32000029       2.53497050       0.00000000      11.70781680       9.34771284     -20.90711043
C        9.33904433      -2.08880809       4.49299004       0.00000000      27.56664521      60.72271642     -34.67413366
C        5.83454735       0.04495931       6.57554084       0.00000000  -57993.66241146   50595.26302746   18676.55706452
C        5.74889435       2.61018893       7.09883574       0.00000000 -150609.52623029  -39545.17530906  -11108.97808063
C       13.66430907      16.80788838      -2.42938707       0.00000000      -2.48026938      -4.09898037       4.08967410
C        5.55264398       7.38173258      -0.66163590       0.00000000       0.47792451      -1.68574864      -1.85502405
C        2.99498509       1.80787465       1.28618353       0.00000000     -79.66616769     -34.47971329    -273.29824401
C        2.97763423       0.36013445       5.49892628       0.00000000   52856.55353596  103664.67620206  102610.77918918
C       -8.40201660       3.65190375       5.32665212       0.00000000  -74933.07673323 -155658.42746124  159243.46205700
C       -1.94739520       9.77918261      -1.63112221       0.00000000      42.43573845      44.47920930     115.53555534
C       -4.81942989      12.32162448       2.40816333       0.00000000    -207.53495730     -46.40390567    -435.41879516
C        2.89677209       2.31187360       5.78375665       0.00000000  149446.08320450  -36463.88152408  152058.82667782
N        3.09946510       1.73200527       0.16061683       0.00000000       1.43799110      16.03873558      -3.76401780
C        2.05176473       0.82982651       0.45480501       0.00000000      -6.37880210      -1.99861234      -4.95439447
C        2.25653696       8.78572099       2.21526168       0.00000000      -4.41896850     -11.95209613       1.17541543
C       -2.66802285      13.89030334       5.59614035       0.00000000   33919.03326351  -60329.78826945  167355.99675189
C        4.26087542       6.46809252       5.30053419       0.00000000    -455.89258204   -6059.82593235    3700.47161367
N       -0.93367784       2.60745073       3.19008940       0.00000000     -82.74327408      47.31187736     -49.17702739
C        1.01187325       2.29375260       6.56773121       0.00000000   35442.03194250    3356.70059131  -39137.52766174
C        1.11864518       8.53362613       4.65734466       0.00000000     136.61348447    -247.27580247    -192.99187453
C        5.54921870       1.47203413       5.70707200       0.00000000  -85606.30934272   30705.72371829   80306.23629082
C        8.51763522       1.10004826      -7.89642998       0.00000000   -5035.33122021    1008.76979162     680.22100680
C        9.86455514       9.73527654      12.39713722       0.00000000     787.38658605   -5309.36458006    6791.55237662
C        3.72600178       9.93851391     -11.78342059       0.00000000    -327.98901787     -81.63462625     -77.67990644
C        3.33853556       9.36723581       4.26508777       0.00000000      59.66746375      23.57663355     -42.59391572
C       12.04943321      -0.74435521       3.88097363       0.00000000   29813.67783455  -23411.15242238   14333.02497828
C        4.85099432       4.23752509       6.13490537       0.00000000  -52694.91846930 -105909.24477338   57067.43203452
C        7.24811177       4.87392858       3.44323561       0.00000000     212.88655068     311.36196832    -176.63276554
C        1.45398015       5.88384815       6.35860921       0.00000000    2253.80002433   -3657.69152709    -236.46938314
C        5.52597756      10.21073837       3.71032954       0.00000000  -29935.63419748   23154.91443414  -14533.56290756
Sc       3.38056022       2.01000319       8.03957563       0.00000000 3289644463.21350479 -29286042.09598798 1235872937.82054281
O        3.01694110      -0.77424564       9.45911581       1.00000000    5998.78663231   83983.97839590  -27782.47910403
O        3.38058343       2.01000779       8.03951402       1.00000000 -3289239524.12594414 29333728.36099166 -1237052170.13606119
