52
Lattice="12.336457 0.0 0.0 -6.168228499999997 10.683685154694365 0.0 0.0 0.0 15.0" Properties=species:S:1:pos:R:3:forces:R:3 energy=-450.65156474242974 free_energy=-450.65156474242974 stress="-0.005216342047445434 0.0029554287901715406 1.8765475944700817e-06 0.0029554287901715406 -0.004394096735098267 -3.074582312890563e-07 1.8765475944700817e-06 -3.074582312890563e-07 -1.1466552677003185e-05" pbc="T T T"
C        0.00045118      -0.00388182       3.71902023       0.00421359      -0.00765837      -0.00469914
C       -1.22273907       2.14105908       3.68572897      -0.00342483       0.00100734       0.00947712
C       -2.46117951       4.27371746       3.85878468       0.00068219       0.00018762       0.00669002
C       -3.71660121       6.40634271       3.89810960       0.00026586       0.00982307      -0.00387769
C       -4.94923987       8.54002801       3.79507874      -0.00238469      -0.00224174       0.00320298
C        2.46837217       0.00350456       3.80256364      -0.00162070      -0.01104098       0.00785011
C        1.25390714       2.09998022       3.45123934      -0.00878773      -0.00769321      -0.00412264
C       -0.02078678       4.32803483       3.57749882       0.00423959       0.00471468      -0.00309400
C       -1.26589340       6.43752305       3.86775493       0.00153055       0.00637907       0.00101457
C       -2.48691579       8.55269342       3.90996315      -0.00101702       0.00989627      -0.00035887
C        4.93548411      -0.00569602       3.89496182      -0.00120093       0.00380187      -0.01128086
C        3.74091358       2.13496111       3.78571080      -0.00334055       0.00083560       0.00095308
N        1.15056837       6.45580486       3.84585810       0.00533996      -0.00478696      -0.00238149
C       -0.01966077       8.54662596       3.86237457      -0.00291649      -0.00020828      -0.00277044
C        7.41018558      -0.01412363       3.88193723      -0.00504513       0.00039696       0.00134316
C        6.19197939       2.11236570       3.90507079       0.00573681      -0.00886843      -0.00250021
C        4.97257057       4.19440483       3.76135752       0.00282942      -0.00121612       0.00074795
P        3.70197784       6.34189628       2.56669192      -0.00712817      -0.01170177       0.00278162
C        2.44741406       8.53691935       3.67623537       0.00295481       0.00593544       0.00086408
C        9.87246232      -0.00755057       3.76978069       0.00214723       0.00591255       0.00241843
C        8.65355375       2.12796295       3.87906219      -0.00000876      -0.00601510       0.00088555
C        7.41704787       4.26001655       3.89412746       0.00021259      -0.00936175      -0.00687197
C        6.16638511       6.39150375       3.71255337      -0.00035266       0.00054210       0.00512153
C        4.92977268       8.53917872       3.61758928       0.00529030       0.00705238      -0.00256218
C        0.00593797       1.42150885       3.61968444      -0.00782696      -0.00818316      -0.00306486
C       -1.23136961       3.56866463       3.71507219       0.00247539       0.00280357       0.00003094
C       -2.48205696       5.70051008       3.89315365       0.00033393       0.00610468      -0.00277366
C       -3.71838099       7.83233379       3.88071530       0.00009825       0.01134611      -0.00577438
C       -4.93723130       9.96835603       3.77377449       0.00079701      -0.00981908       0.00023191
C        2.48838413       1.42383257       3.68195472      -0.00625885      -0.00989202       0.00130645
P        1.23436818       3.61910065       2.57160282       0.00271214       0.01056821      -0.00030959
C       -0.03716205       5.76621656       3.76304997       0.00059783       0.00278336       0.00265761
C       -1.25667264       7.84813942       3.90210478      -0.00440688       0.00624931       0.00690171
C       -2.47462686       9.97437615       3.88516013       0.00188671       0.00341260       0.00037436
C        4.95511728       1.41371969       3.86610559       0.00148758       0.00146266       0.00289697
N        3.78482731       3.50506065       3.85007532      -0.00211381       0.00325638      -0.00436659
C        1.19475093       7.82565698       3.78016932       0.00138537      -0.00353130       0.00506731
C        0.00024306       9.96576866       3.89255667      -0.00538626       0.00114214      -0.00560598
C        7.42217350       1.40751053       3.90962760       0.00318682      -0.00490536      -0.00194844
C        6.20084921       3.52306055       3.86796675      -0.00015242      -0.01023431       0.00515337
C        4.95648740       5.63183290       3.57240313      -0.00013000       0.00026216      -0.00117215
C        3.68208070       7.86057012       3.44725303       0.00577215       0.00699348      -0.00806289
C        2.46712105       9.95716410       3.79715343      -0.00037600       0.00855263       0.01034161
C        9.88456555       1.42062638       3.79268536      -0.00098243       0.00089107       0.00328697
C        8.65160801       3.55402162       3.89878109       0.00054827      -0.00865549      -0.01026538
C        7.39608158       5.68672055       3.85892784       0.00227400      -0.00188423       0.00138197
C        6.15820326       7.81943279       3.68559950       0.00025644       0.00041855       0.00489858
C        4.93468201       9.96464043       3.71726015       0.00470537       0.00488775      -0.00397785
Sc       2.46842243       4.98132186       4.60691230      -0.00274481      -0.00031367       0.00188364
O        2.46954547       4.97123519       6.39717447       0.01363009       0.00258991      -0.00696531
O        2.32271250       4.98295000       7.79296971      -0.00168970      -0.00257485      -0.00739053
H        3.24669557       4.97202178       8.11606117      -0.00829448       0.00057669       0.01643349
