51
Lattice="12.336457 0.0 0.0 -6.168228499999997 10.683685154694365 0.0 0.0 0.0 15.0" Properties=species:S:1:pos:R:3:initial_magmoms:R:1:forces:R:3 energy=-450.8932414005757 free_energy=-450.8932414005757 stress="-0.0011344156327678563 -0.0015859777632165517 -0.0003423558864915568 -0.0015859777632165517 -0.0021333428702759835 -0.00024145798140108558 -0.0003423558864915568 -0.00024145798140108558 0.00028780713043683836" pbc="T T T"
C        0.00737726      -0.03912524       3.79819254       0.00000000       0.00010129      -0.08057234       0.02330811
C       -1.23341427       2.07860081       3.46564247       0.00000000      -0.04817676      -0.04406275       0.00684782
C       -2.46318208       4.23413094       3.31307967       0.00000000      -0.10529500       0.05961078      -0.04944839
C       -3.68954672       6.37679034       3.53411510       0.00000000       0.03682344       0.00236235       0.01763602
C       -4.92818218       8.50925729       3.85094465       0.00000000       0.03369875      -0.11216953      -0.05383248
C        2.47654915      -0.02235427       3.65804995       0.00000000      -0.02042690       0.09146786      -0.00765475
C        1.20979403       2.10900284       3.65117771       0.00000000       0.00881255       0.02494623       0.07567766
C       -0.01960526       4.16506163       3.35722445       0.00000000       0.04729173       0.00245299       0.02639840
C       -1.20356140       6.36619425       3.36644815       0.00000000      -0.01021165      -0.02663051       0.07741743
C       -2.44987395       8.51342514       3.57051932       0.00000000       0.02542352      -0.10173760      -0.05394405
C        4.94220796      -0.02308758       3.52197792       0.00000000      -0.02152618      -0.03965910       0.10822443
C        3.73441798       2.12561831       3.73245092       0.00000000      -0.00521915      -0.06264150       0.09253218
P        1.34995877       6.23289156       4.30037235       0.00000000      -0.01568798      -0.07496101       0.15558971
C        0.02198153       8.53387604       3.71582681       0.00000000       0.01308383       0.03610261       0.02040942
C        7.40885757      -0.01376167       3.72256494       0.00000000       0.10639610       0.03724254       0.01511014
C        6.18190089       2.09609716       3.51434239       0.00000000       0.03380986      -0.02658307      -0.01262126
C        4.97920933       4.15963506       3.86646195       0.00000000      -0.05597027      -0.06119593       0.03434486
P        3.59974491       6.16489077       4.92367585       0.00000000       0.08532488       0.14432182      -0.04864566
C        2.47596016       8.62248230       4.29191459       0.00000000       0.04033190      -0.00191216      -0.06114512
C        9.89104064      -0.00579698       3.90665692       0.00000000      -0.03787117      -0.00518354      -0.03008348
C        8.64688984       2.10591660       3.53539615       0.00000000       0.02780642      -0.03876650      -0.04663514
C        7.41649518       4.23941401       3.53436562       0.00000000       0.01714483       0.06146334      -0.04500301
C        6.19256688       6.35531640       3.95384024       0.00000000      -0.06442281       0.01659296      -0.04102907
C        4.95606900       8.52992036       4.28865284       0.00000000      -0.02588368       0.08473478      -0.01985914
C       -0.00646708       1.37147597       3.59959788       0.00000000      -0.02279672      -0.03888911      -0.03680263
C       -1.24908421       3.48405941       3.26620507       0.00000000      -0.06399230       0.03797961      -0.01427582
C       -2.45935796       5.66402545       3.34084211       0.00000000      -0.02722481       0.00351440       0.06349661
C       -3.69347082       7.80255226       3.64909069       0.00000000       0.07322532      -0.06522292      -0.02798148
C       -4.92367889       9.93822795       3.77796173       0.00000000       0.04396133      -0.06382119       0.04263321
C        2.47463337       1.40970365       3.69620897       0.00000000       0.01047278       0.08944277       0.02984270
N        1.11756019       3.48232314       3.71552457       0.00000000       0.03937105       0.09810465       0.03718642
C       -0.00309282       5.59300318       3.37189924       0.00000000      -0.02763901       0.00782759      -0.01019492
C       -1.20708418       7.79952472       3.53168900       0.00000000       0.03703714      -0.05935051       0.01597002
C       -2.45681175       9.94472538       3.57289586       0.00000000      -0.07716273      -0.05352733       0.06274278
C        4.94766874       1.39750578       3.52759780       0.00000000       0.00692560      -0.04346752       0.05101184
N        3.82730219       3.44372081       4.09345761       0.00000000      -0.00433250       0.06620572       0.05094994
C        1.25789345       7.94100636       4.05523447       0.00000000      -0.02414067       0.01950857      -0.02901194
C        0.00948604       9.95864807       3.63588335       0.00000000       0.06676877       0.05081419      -0.02054314
C        7.41313104       1.39538740       3.57018150       0.00000000       0.07936173       0.00251509      -0.03323158
C        6.19629804       3.50428435       3.57659901       0.00000000       0.01796503       0.03596324      -0.03857853
C        5.01182991       5.56961031       4.07187352       0.00000000      -0.09104020       0.01909067       0.03878339
C        3.70870883       7.92601708       4.63866575       0.00000000      -0.00605069      -0.03871588      -0.07773453
C        2.47734785      10.00511382       3.99539325       0.00000000       0.04946031      -0.02572481      -0.02836734
C        9.88028540       1.39110269       3.62321796       0.00000000      -0.06060507      -0.07610762      -0.02256330
C        8.64567278       3.52674978       3.43499084       0.00000000      -0.04811067      -0.02348934      -0.05692681
C        7.41934775       5.66200978       3.65092783       0.00000000      -0.00378643       0.03518755       0.01168318
C        6.18593805       7.79421332       4.08527779       0.00000000      -0.06634804      -0.03576505      -0.12991670
C        4.95176282       9.94756847       4.01555744       0.00000000      -0.06124542       0.03446714      -0.02892856
Sc       2.17818718       4.02574595       5.52619177       0.00000000      -0.01135019       0.84688458       0.26391583
O        3.46690693       5.33728522       6.28620384       1.00000000       0.80326843       0.47841340      -0.54228617
O        1.06402722       5.85299234       5.77952410       1.00000000      -0.69734958      -1.18706061       0.24553291
