52
Lattice="12.336457 0.0 0.0 -6.168228499999997 10.683685154694365 0.0 0.0 0.0 15.0" Properties=species:S:1:pos:R:3:forces:R:3 energy=-450.73715355483745 free_energy=-450.73715355483745 stress="-0.0028732657037343484 -6.362160914829454e-05 1.1532466629073628e-05 -6.362160914829454e-05 -0.0002672273803261315 1.636918932572757e-05 1.1532466629073628e-05 1.636918932572757e-05 4.433192475601234e-05" pbc="T T T"
C        0.14062313       0.00462637       3.57633400      -0.00511785       0.00576177      -0.00563446
C       -1.09696697       2.12684498       3.48227971       0.00278903       0.00865102       0.00827866
C       -2.32170257       4.26781161       3.42315974       0.00080421      -0.00083146      -0.00184040
C       -3.55356075       6.41021589       3.48934835       0.00216149      -0.00149523      -0.01023096
C       -4.79360247       8.55079223       3.58942306       0.00898552       0.00640792       0.00904303
C        2.59933191       0.01748929       3.61945753       0.00295951      -0.00446938       0.01125679
C        1.33787033       2.16344585       3.83305921       0.00891879      -0.00271201      -0.01627654
C        0.12656621       4.24497297       3.69128799      -0.00994710       0.00101994       0.00781225
C       -1.09387673       6.41304514       3.46922408      -0.01026512      -0.00001981       0.00328791
C       -2.32959437       8.55405236       3.46475029      -0.00399773      -0.00509005       0.00337861
C        5.07671837      -0.00652899       3.61289885      -0.00464075      -0.00370890       0.01295971
C        3.84482446       2.05133828       4.13751587      -0.00029775       0.00160872      -0.00193016
N        1.26322295       6.43494779       4.04139213       0.01044487      -0.00103371      -0.00940587
C        0.13736582       8.52808626       3.59307629      -0.00211266       0.00521253       0.00153541
C        7.54205120      -0.01798080       3.57395406       0.01096907      -0.00188911       0.00833176
C        6.32641931       2.11964126       3.79324093      -0.00494825       0.01091432       0.00019091
C        5.24634851       4.26956069       4.40462296      -0.00948988      -0.01021424      -0.00282257
P        3.91819465       6.51261921       5.19749375      -0.01491851       0.00489548      -0.01221690
C        2.59063820       8.53282637       3.88092896       0.00403590      -0.00210085      -0.00290959
C       10.00375021      -0.01886504       3.56087221       0.00008968       0.00490667       0.00523025
C        8.77517033       2.12449239       3.49068329       0.00045139      -0.00369735       0.00064423
C        7.56768405       4.26631419       3.66029574       0.01414903       0.00294743       0.00291887
C        6.37208418       6.42346693       3.94371695      -0.00633610      -0.00817776      -0.01308262
C        5.08726985       8.56002610       3.85750434      -0.00414550       0.00030357      -0.00233538
C        0.13613964       1.43316532       3.58947767       0.00204420       0.00463187       0.01048416
C       -1.09503594       3.54857812       3.46844703      -0.00259641       0.00434502      -0.00160375
C       -2.32083017       5.69437476       3.42515826      -0.00679557      -0.00358535      -0.00433333
C       -3.56031054       7.83805963       3.49359383       0.00293834      -0.00327889      -0.00139355
C       -4.79417229       9.97926290       3.57256104      -0.00147258       0.00798864       0.00139934
C        2.58959237       1.42941814       3.86321775       0.00858281      -0.00387780      -0.00817204
N        1.26459077       3.52748012       4.03415898      -0.01090379      -0.00701792      -0.00529809
C        0.12671582       5.71685143       3.69351926      -0.00512408       0.00368243       0.00271267
C       -1.09538216       7.83452822       3.48240449      -0.00661058       0.00024075       0.00933120
C       -2.33206068       9.98106211       3.54922971      -0.00350100      -0.00854049       0.01604466
C        5.08689689       1.40268874       3.84110940      -0.00648656       0.00342076      -0.00795226
P        3.90461100       3.45386986       5.16488549       0.00909580       0.00182844       0.00897840
C        1.33845571       7.79896678       3.84340254       0.00509963       0.00079819      -0.01735593
C        0.14076491       9.95645067       3.57307185       0.00495268       0.00591656       0.00257510
C        7.54273716       1.41103370       3.58689170      -0.00536843       0.00132191      -0.00403734
C        6.36812511       3.54060804       3.92913092       0.00569991       0.00838389       0.00463399
C        5.24980206       5.69566004       4.41740797      -0.01094176      -0.01084439      -0.00870108
C        3.84626438       7.91354833       4.16381180      -0.00238990      -0.00953230      -0.01436693
C        2.59918752       9.94431530       3.63099045       0.01011412      -0.00229173       0.01421578
C       10.00549571       1.40779248       3.46814185       0.00431445       0.00373922       0.00279933
C        8.78113138       3.55258565       3.48184003       0.00995897      -0.00402225       0.01027695
C        7.56944157       5.69677517       3.66708825       0.00754119       0.00066248      -0.00783849
C        6.32761968       7.84331566       3.80488273       0.00406302       0.00396783       0.00655238
C        5.07642113       9.96856977       3.62499826      -0.00602648       0.00396897       0.00839181
Sc       1.74296090       4.98156146       5.55273613       0.01060702      -0.00399054      -0.01480333
O        0.46160948       4.98313293       6.78805589      -0.01381550      -0.00889054       0.00852330
O       -0.69357345       4.97042437       7.57703291       0.00918222       0.00323785       0.00346383
H       -0.34374561       4.98236514       8.49176471      -0.00270302       0.00054787      -0.01070971
