52
Lattice="12.336457 0.0 0.0 -6.168228499999997 10.683685154694365 0.0 0.0 0.0 15.0" Properties=species:S:1:pos:R:3:forces:R:3 energy=-449.3002105766868 free_energy=-449.3002105766868 stress="-0.006825743229525376 -4.0598511689403884e-06 5.603778491128325e-06 -4.0598511689403884e-06 -0.001905273708526287 -2.8948819344335683e-05 5.603778491128325e-06 -2.8948819344335683e-05 -1.9933357228893795e-05" pbc="T T T"
C        0.00443357       0.00242627       3.84837710      -0.00515637      -0.00148156      -0.00513210
C       -1.24633240       2.11319901       3.97838520      -0.00070505      -0.00531655       0.00706601
C       -2.47928680       4.26550297       4.04804261      -0.00851049       0.00461539       0.00456508
C       -3.69947704       6.41407933       3.98594284      -0.00212823       0.00474913      -0.00271661
C       -4.93704058       8.55026228       3.82342925      -0.00672300      -0.00375675       0.00563182
C        2.46918727       0.03225435       3.86263903      -0.00745610       0.00592722       0.00211275
C        1.21133649       2.16692432       3.87340196       0.00582413       0.00346544      -0.00275776
C       -0.05872892       4.21510518       3.78432079       0.00263871      -0.00265362      -0.00290135
C       -1.25933994       6.40629711       3.76132745       0.00491071       0.00030110       0.00611167
C       -2.46191825       8.54985355       3.81908440       0.00586410      -0.00415477       0.00558041
C        4.93327035       0.00199948       3.84830841       0.00346728      -0.00243528      -0.01297118
C        3.72614440       2.16660773       3.87332800       0.00355863      -0.00438904       0.00195446
S        1.08935569       6.32409351       2.46742828      -0.01459052      -0.00385172      -0.00151163
C       -0.00706318       8.54871132       3.54716935      -0.00462723       0.00354959      -0.01280554
C        7.40480697      -0.01279455       3.80020715      -0.00044747       0.00311556       0.00576254
C        6.18356217       2.11276839       3.98495293      -0.00253813      -0.00120479      -0.00589405
C        4.99686055       4.21485210       3.78832206      -0.00147622       0.00492088      -0.00152336
S        3.85184245       6.32449017       2.46960102       0.01282680      -0.00599531      -0.00106519
C        2.46916088       8.57607524       3.31374080      -0.00880256      -0.00030265       0.00094012
C        9.86901790      -0.01266235       3.80031172       0.00579605      -0.00561807       0.00141131
C        8.63683333       2.11944691       4.02852619       0.00118945      -0.01152722       0.00149808
C        7.41634549       4.26575038       4.05560910       0.00798867       0.00127293      -0.00455434
C        6.19558108       6.40654635       3.77142201       0.00377648      -0.00270158      -0.00001431
C        4.94467721       8.54863994       3.55115007       0.00735107       0.00466148      -0.00129804
C       -0.00831589       1.42402010       3.90978042       0.00509951      -0.01086964      -0.00715718
C       -1.27270069       3.52735271       3.98180094      -0.00564279       0.00348149      -0.00144644
C       -2.47594393       5.69312624       3.98276387       0.00014302       0.01281435       0.00177118
C       -3.69955156       7.83725349       3.88786069       0.00245692      -0.01096259      -0.00009262
C       -4.92923008       9.98539723       3.83985970      -0.00180178      -0.01022838      -0.00052478
C        2.46896949       1.46660836       3.87428199      -0.00271109       0.00272136      -0.00238288
N        1.13266370       3.53140350       3.79900923       0.00249851      -0.00232153      -0.00469761
C       -0.10225073       5.62800406       3.53086309       0.00073506      -0.00425825      -0.00575318
C       -1.23882250       7.83030577       3.68578951       0.00865462       0.00068001       0.01052050
C       -2.46934701       9.98468494       3.83733509       0.00004032       0.00533079       0.00689887
C        4.94562102       1.42342433       3.91165624      -0.00173828       0.00131957      -0.00194051
N        3.80518627       3.53120450       3.80068460      -0.00784463      -0.00100832       0.00364019
C        1.20746546       7.91515592       3.18988806      -0.01131390       0.00268272       0.00967089
C       -0.00008440       9.97045844       3.74638661       0.00080522       0.00003750      -0.00873028
C        7.41029185       1.40314967       3.96683507      -0.00350542      -0.00763078       0.00373628
C        6.20974802       3.52721271       3.98942859       0.00766951       0.00095199      -0.00112997
C        5.03937240       5.62797465       3.53758370       0.00330615       0.00034573      -0.00806726
C        3.73054326       7.91434763       3.19425838       0.01271657       0.00379808      -0.00073371
C        2.46868123       9.97359152       3.65838309       0.00396574      -0.00166255       0.01312868
C        9.86345828       1.40320908       3.96381926       0.00215386       0.00251688       0.00508761
C        8.63675834       3.54578395       4.08768356       0.00315088      -0.00733103      -0.00297971
C        7.41314717       5.69370852       3.99067555      -0.01088888       0.00337570      -0.00440619
C        6.17592520       7.83037523       3.69355115      -0.00511592       0.00054770       0.00322288
C        4.93781495       9.97038465       3.74787796      -0.00628268       0.01336050      -0.01037136
Sc       2.46976337       5.03911310       4.35568715      -0.00010657       0.01058056       0.00177980
O        2.47063759       5.08796744       6.13491258       0.01182726      -0.00508444       0.01073946
O        2.31694885       5.12890322       7.52751387      -0.00425560       0.01588588      -0.00616069
H        3.23591228       5.05287473       7.85592556      -0.00604629      -0.00026319       0.00888924
