51
Lattice="12.336457 0.0 0.0 -6.168228499999997 10.683685154694365 0.0 0.0 0.0 15.0" Properties=species:S:1:pos:R:3:initial_magmoms:R:1:forces:R:3 energy=-366.14311204554724 free_energy=-366.14311204554724 stress="0.15351658600758455 0.009497085749752464 0.011061117387638623 0.009497085749752464 0.040392744866953725 -0.001735978041874121 0.011061117387638623 -0.001735978041874121 0.005150409155136505" pbc="T T T"
C        0.11303403      -0.38301009       4.09316520       0.00000000      -0.24812144       0.08929773       0.06166912
C       -1.15191985       1.76670633       4.10806252       0.00000000      -1.02295932      -0.23393163       0.60377309
C       -2.39183272       3.83160583       4.04016714       0.00000000      -0.26697138      -1.12713774       0.58180244
C       -3.62275399       5.96491175       4.01683448       0.00000000      -0.13352163      -0.19643224       0.15219616
C       -4.85303774       8.14173643       3.84859357       0.00000000      -0.05486177      -0.14571229       0.07269995
C        2.62304245      -0.38221159       3.59017873       0.00000000       0.03239994       0.23049406       0.16035474
C        1.35183183       1.80847089       3.85467204       0.00000000       0.01128734       0.19375479      -0.53404473
C        0.14714584       3.87751250       4.04513111       0.00000000      -0.29550252      -0.44611455       0.21521604
C       -1.13540615       6.04126753       4.09331369       0.00000000      -0.13365978      -0.10990705       0.23072907
C       -2.35185054       8.14551894       3.73443940       0.00000000       0.31668835       0.32612641       0.11981663
C        5.04300380      -0.50804116       2.84762817       0.00000000      -0.45069159      -0.18187395      -0.44488558
C        3.83285200       1.62539468       3.04271720       0.00000000      -0.04712218       0.48393623      -0.45378566
N        1.27599067       6.13754651       4.13313015       0.00000000       0.00352990       0.02822168       0.42409844
C        0.09701994       8.19211733       3.70918365       0.00000000      -0.20050131       0.18076884       0.28631537
C        7.75630913      -0.35700071       3.24476454       0.00000000       2.69755373      -1.20674230      -0.39948640
C        6.56044193       1.77751785       2.85703514       0.00000000       1.07412238       1.50673183      -1.56909952
C        5.27494893       3.86390709       2.91448909       0.00000000      -0.43806690       0.47064336       0.20044022
S        3.74790301       6.16355901       2.65221754       0.00000000       0.15431004      -0.09831817       0.27350394
C        2.54308929       8.19676377       4.13984481       0.00000000      -0.22809229       0.21904507       0.18258572
C        9.87156496      -0.28375161       4.25307660       0.00000000      -0.79700009       0.38203567       0.44514521
C        8.72550938       1.72541843       3.98434290       0.00000000      -1.44577661      -1.94932535      -3.41200907
C        7.55394622       3.72659646       3.89510422       0.00000000      -0.41935802       0.11063058      -0.82199345
C        6.29459426       5.95326326       3.71823226       0.00000000       0.16252169       0.23224735      -0.19075413
C        5.01708905       8.18993167       3.96807323       0.00000000       0.19654093      -0.07626012       0.41186975
C        0.09352052       1.07521296       4.11154792       0.00000000       0.02095835       0.06759367      -0.06620995
C       -1.16423280       3.16026476       4.14573289       0.00000000      -0.43742325      -0.46444271       0.11810317
C       -2.36525518       5.26247529       4.12969736       0.00000000      -0.19095166      -0.43322227      -0.20966752
C       -3.60834611       7.41090781       3.87849962       0.00000000       0.03865174       0.12674697      -0.07234895
C       -4.81070461       9.59433440       3.82972416       0.00000000      -0.28331907      -0.10033360       0.21931184
C        2.61714780       1.04019257       3.49951513       0.00000000       0.29970719      -0.50046497       0.25498582
N        1.26857811       3.17158789       3.76381161       0.00000000      -0.20016671      -0.15039841       0.45148202
C        0.15379882       5.37481215       4.14370791       0.00000000      -0.19001555      -0.35322810      -0.46267712
C       -1.12828261       7.48557463       3.95939344       0.00000000      -0.20016521       0.29839924      -0.44525555
C       -2.31549879       9.55422082       3.39310399       0.00000000       0.10954487       0.22124907       0.13571497
C        5.01843964       0.93094122       2.70686452       0.00000000      -0.68262997      -0.33362564      -0.87034758
S        3.69859857       3.22882624       2.37322372       0.00000000       0.06385051      -0.06580671       0.16879969
C        1.31022282       7.47423943       4.08298275       0.00000000      -0.03929375       0.21303136      -0.27850059
C        0.18518988       9.40476144       2.97465232       0.00000000      -0.66486443      -1.92279787      -1.41273078
C        7.73142587       0.99975223       3.16874231       0.00000000       2.56526562       2.38006352       4.19563504
C        6.43835475       3.01929000       3.34421801       0.00000000       0.73311208       0.09193283      -0.13881089
C        5.19328483       5.22371600       3.15607795       0.00000000      -0.22497110       0.39121199       0.35603602
C        3.72923889       7.53231555       3.83381788       0.00000000       0.05750508       0.08987232      -0.10635991
C        2.45059676       9.69174842       4.24769648       0.00000000      -1.35807249       1.06670903       1.16816476
C        9.90106330       1.04897455       4.19726157       0.00000000      -3.70292306       0.13226590       1.62427202
C        8.72283438       3.08341273       4.04588591       0.00000000      -1.75561568      -3.08119571       2.27837277
C        7.51480397       5.19441622       3.87958954       0.00000000       0.24905248       0.34168900       0.23553535
C        6.23636567       7.41038302       3.85889949       0.00000000       0.37224959       0.12521473      -0.10297423
C        5.00967359       9.61182773       4.21805195       0.00000000       0.29378442      -0.14584837      -0.63708098
Sc      -0.09342877      10.94203083       5.66576442       0.00000000     282.26060448     -11.53248452      62.33639754
O        1.35527290      11.96439770       5.87589860       1.00000000      -4.28440407     -18.49888687      -2.84454556
O        0.70656036      10.93507608       5.76466207       1.00000000    -271.31621788      33.35457791     -62.49145874
