51
Lattice="12.336457 0.0 0.0 -6.168228499999997 10.683685154694365 0.0 0.0 0.0 15.0" Properties=species:S:1:pos:R:3:initial_magmoms:R:1:forces:R:3 energy=-339621.6884487271 free_energy=-339621.6884487271 stress="193.3906843500005 69.91165784792184 -16.02835401851003 69.91165784792184 114.03116858355797 -65.2064659910765 -16.02835401851003 -65.2064659910765 220.2069887214223" pbc="T T T"
C       -1.33016980      -0.65291682       0.65551846       0.00000000    2014.45975856    3314.66770990    1052.25544155
C        1.59867994       1.01363035       1.84297028       0.00000000  -69761.66931656 -115755.55591380  280256.47132206
C       -2.43611388       9.47105856       4.87856567       0.00000000    5046.91733037    2914.17769197   -2063.55420102
C       -4.80209165       6.81781508       3.84899682       0.00000000   -2011.64537042   -8739.62219734    -197.01740337
C       -8.52579415       3.90821335       3.24862112       0.00000000   -1321.68419525   -1845.02361314    -209.66345733
C        6.16187403      -0.50091292       7.02176450       0.00000000     110.94134688     -96.89101365    -163.95846908
C       -3.48282172      -2.70677095       1.41390706       0.00000000    -502.92191531    -348.62667183    -142.92628683
C       -3.23634180       8.20015338       4.23785283       0.00000000   16120.88303579   -7723.93750236    4590.96532751
C       -5.30301395       5.09415987       4.74105876       0.00000000   -1216.10783289   -1924.32554112     901.68131856
C       -0.03616886       7.23535090       5.06587360       0.00000000      96.57930237      -8.74301785      12.45189669
C        5.91129862      -0.22211099       7.57285005       0.00000000    -110.67675304      76.56867992     146.62300387
C        6.47054839       4.14144006       6.22568450       0.00000000     -47.45626653     -98.32778776      65.37713491
N        1.36442108       6.05793077       7.39943487       0.00000000      -5.23011663      -2.05363926      -2.10478559
C        0.68304239      18.01594132       5.10929867       0.00000000    -470.26321884  -11322.87630206    6360.35231129
C        8.60228874      -1.13347065       5.45011673       0.00000000    -910.85622669     -29.01200639     363.69155876
C       11.60036801       4.55357912       2.68851655       0.00000000     655.79675136   -1817.92607246     370.06511084
C        5.35358447       5.78188708       2.47038156       0.00000000    -803.33752765   -1834.97650249    -552.40609460
P       10.96872938       8.09603424       1.62712866       0.00000000     548.88464952    1460.32765135    -745.06460962
C        4.01056197      15.40339007       3.34778313       0.00000000     143.98175255     -16.84027612     -78.54507247
C        9.92610919       0.70370993       4.74098630       0.00000000   -1927.46077424    1409.75317881    -830.71070831
C       12.17568521       5.86964167       4.88368001       0.00000000     109.13842190      68.06707069      81.81759362
C        8.96059799       7.31398515       3.84260918       0.00000000    8343.16461872   -8603.92894514   -1088.83919553
C        1.79846007       2.67385632       3.43523493       0.00000000  -10042.99578307  -56446.95197158  -10258.43431317
C        1.50292292       9.38818915       1.47387116       0.00000000    -101.59831505     -50.01702645     -41.06895464
C       -0.91383128       1.32854285       2.07321226       0.00000000    8808.25965790     -45.50385355    2241.92737157
C       -0.61634411       0.63239831       2.54840148       0.00000000   67438.85289180  -15079.33929662  111490.63960416
C       -4.03377683       7.15427039       3.21359866       0.00000000    3233.82281809  -11577.55680276  -11785.31324033
C       -3.87656776       6.53379349       3.77599879       0.00000000    2210.26848226   -9885.16529230    5257.27634086
C       -5.72742455       7.62236333       6.49397241       0.00000000    -531.45240895   -1777.51283341    3524.80248785
C        9.89052765      -5.48893125       7.79148509       0.00000000     -10.47455703     -10.45692077       4.29131665
P       -2.14201543      -0.97915977      -3.20170172       0.00000000     -29.00375983     -15.53777688     -92.68770981
C       -1.82138770       3.86652182      -0.50801762       0.00000000     -14.75921478      20.76969098     -23.09630249
C       -0.67720740       4.33370253       0.56542595       0.00000000     446.13486183    -866.85018687     482.61809002
C       -3.37817878      12.70031534       3.91648139       0.00000000  -30693.37432347  -27122.47864734  -21771.12759572
C       -0.49306564       0.25255693       0.78608957       0.00000000    6500.92467236    4534.65761279     309.00871583
N       11.53707083       2.70741143       3.03417648       0.00000000   -3570.40052287      24.51782348    1876.03325575
C        0.55035982       6.64753473       9.00776685       0.00000000       3.03258162      -2.03723537      -6.51299332
C       -3.24543406       6.86297754       4.36499399       0.00000000    6823.58372038   -5275.69121708    6827.30539701
C        5.29872077       1.59020258       4.74507615       0.00000000    -964.07348603    -174.20659447    -564.14361096
C        2.97021440       1.15997234       1.93763583       0.00000000  -36671.59956006   -2379.86203629   23025.55734190
C       -1.93130435       9.55793050       5.39698521       0.00000000    3850.62839346    1728.49589899    3066.32816327
C        6.26230196       7.37559812       8.73693106       0.00000000     -21.32057930      -2.56828689      82.96419087
C        5.76999278      16.92109441       6.68219728       0.00000000      33.31908217       7.22020593      16.33683252
C       11.55660907       0.71545996       3.03968569       0.00000000  107664.36044252  -37422.76448166  -71292.33724944
C       10.28252135       7.52118938      -1.70048303       0.00000000      -0.00925452      -2.54450082       1.26027466
C        8.21375623       5.79662613       4.45928503       0.00000000    1357.79108183   -3393.55174434     -29.20292757
C        5.57824457       7.78703002       6.48037473       0.00000000    -781.44099902   -1015.03293670    1316.82875847
C        3.52436644       9.75429544       3.92335564       0.00000000   -4034.68284235     661.65307249     144.45477219
Sc       1.11016232      -0.08565884       3.30214544       0.00000000 -1962017.02357295 3125622.85074634 4277347.51003635
O        2.96971340       7.26231809       3.83741554       1.00000000    1636.69710699    1307.56421941    -184.41715212
O        1.11913292      -0.06020280       3.29230686       1.00000000 1885375.09593209 -2810436.99460813 -4609093.76263624
