51
Lattice="12.336457 0.0 0.0 -6.168228499999997 10.683685154694365 0.0 0.0 0.0 15.0" Properties=species:S:1:pos:R:3:initial_magmoms:R:1:forces:R:3 energy=-441.50453908826677 free_energy=-441.50453908826677 stress="-0.0017254218826646 -0.00015765168543344673 -1.0949781574280321e-05 -0.00015765168543344673 0.00048332203515052215 -2.2961049626742284e-06 -1.0949781574280321e-05 -2.2961049626742284e-06 1.4634107686142812e-05" pbc="T T T"
C       -0.01099067      -0.02635718       3.85392063       0.00000000      -0.00334889       0.00132761       0.00845737
C       -1.25184247       2.11249706       3.96128219       0.00000000      -0.00379221      -0.01094370      -0.00354517
C       -2.46870841       4.25099696       3.89736822       0.00000000      -0.00763374       0.00456058      -0.00525810
C       -3.69437663       6.38681298       3.75542503       0.00000000       0.00142864      -0.00572413       0.00558602
C       -4.95014833       8.51998974       3.72368636       0.00000000       0.00605590      -0.00273044      -0.00550002
C        2.44809458      -0.01834386       3.85985815       0.00000000      -0.00104993       0.00458600       0.00766393
C        1.19595056       2.09900948       3.95215779       0.00000000       0.00256122      -0.00324227      -0.00005116
C       -0.04839036       4.25267065       4.10761941       0.00000000      -0.01026169      -0.00163629      -0.00976814
C       -1.24525144       6.38361681       3.99070797       0.00000000      -0.00113596       0.00387234      -0.00266661
C       -2.47350888       8.51830950       3.88857504       0.00000000       0.00331649      -0.00350535      -0.00691426
C        4.92181072      -0.02592715       3.79570009       0.00000000       0.00121758      -0.00111828       0.00355404
C        3.67546475       2.05071598       3.42556753       0.00000000      -0.01210751       0.00870839      -0.00625386
O        1.15759594       6.42230285       4.06791286       0.00000000      -0.00446756       0.01029331      -0.01223962
C       -0.00804133       8.50829692       3.92542971       0.00000000      -0.00394503      -0.00771922       0.00235154
C        7.38666997      -0.03174626       3.83017076       0.00000000       0.00585718      -0.00470215      -0.00942939
C        6.16722075       2.10235742       3.52853575       0.00000000       0.00279449      -0.00226839       0.00234553
C        5.09345581       4.25732425       2.93132357       0.00000000      -0.00038889       0.01089994       0.00853502
S        3.59663330       6.41822942       2.40253805       0.00000000      -0.00217527      -0.00464923       0.00335978
C        2.43915485       8.49671802       3.74074211       0.00000000      -0.00209658       0.00582579       0.00529760
C        9.85392595      -0.03344747       3.84008436       0.00000000      -0.00061189      -0.00844407      -0.00947311
C        8.62510041       2.10998414       3.80044203       0.00000000       0.01148279       0.00170855      -0.00665404
C        7.43183053       4.24694740       3.54814182       0.00000000      -0.00540712      -0.00176173       0.00231008
C        6.22476160       6.40749902       3.31766631       0.00000000       0.00354120      -0.00357214      -0.00695096
C        4.92172891       8.52307922       3.54422136       0.00000000       0.00691534       0.00896482      -0.00367893
C       -0.01277943       1.40772449       3.94777539       0.00000000       0.00036458      -0.00271824       0.00152678
C       -1.24668690       3.53404679       4.00581902       0.00000000      -0.01197111      -0.00681764      -0.00207340
C       -2.46841042       5.66749478       3.89222068       0.00000000       0.00227666       0.00543804       0.00750038
C       -3.70960492       7.80958644       3.79636706       0.00000000       0.00575700      -0.00734014      -0.00601954
C       -4.95007906       9.94979377       3.83377521       0.00000000      -0.00090583       0.00123353       0.00872641
C        2.43638714       1.41873455       3.80044519       0.00000000      -0.00457566       0.00222370       0.00040871
O        1.14874777       3.48704573       4.14668820       0.00000000       0.01425941      -0.00119816      -0.00897995
C       -0.04658461       5.66223076       4.08895852       0.00000000      -0.00882494       0.00371807       0.00608125
C       -1.24863175       7.80529138       3.94692263       0.00000000      -0.00213028      -0.00274177       0.00614818
C       -2.48191245       9.95229739       3.85758567       0.00000000       0.00018141      -0.00122517      -0.00780093
C        4.92160457       1.39779744       3.58235500       0.00000000      -0.00699941       0.00425262      -0.00717603
S        3.56358247       3.52446076       2.50319964       0.00000000       0.00385597      -0.00516170       0.00591904
C        1.20087376       7.81896702       3.89710965       0.00000000      -0.00357569       0.00442108       0.00765587
C       -0.01046742       9.94416312       3.85475337       0.00000000       0.00353379      -0.00813684      -0.00322965
C        7.38522384       1.39962390       3.73029197       0.00000000       0.01182290      -0.00105157       0.00385415
C        6.22133472       3.51382101       3.33303813       0.00000000      -0.00063780       0.00101323       0.00273804
C        5.09840040       5.66555811       2.91453593       0.00000000      -0.00962942       0.00897928       0.00035275
C        3.67895848       7.87313044       3.35954853       0.00000000       0.00524778       0.01541734       0.00609052
C        2.44907177       9.93464153       3.83113975       0.00000000       0.00269410      -0.00352945       0.00595827
C        9.86111325       1.40101674       3.88852239       0.00000000       0.00345990      -0.01138982      -0.00244745
C        8.64106851       3.53314477       3.76075236       0.00000000      -0.00457475       0.00497236       0.00514240
C        7.43266140       5.67361642       3.54436094       0.00000000      -0.00082730      -0.00380077       0.00158617
C        6.16940902       7.81959708       3.50654712       0.00000000       0.00739470      -0.00422912       0.00381022
C        4.92165160       9.94463406       3.77380666       0.00000000      -0.00182289       0.00424520       0.01023651
Sc       2.71545540       5.01675003       4.67041885       0.00000000      -0.00009212      -0.00436598      -0.01257608
O        2.36558721       4.96088245       6.49760408       1.00000000       0.00358624       0.00729025      -0.01148645
O        3.32324928       5.99467752       6.15709448       1.00000000       0.00538421       0.00177176       0.01697629
