51
Lattice="12.336457 0.0 0.0 -6.168228499999997 10.683685154694365 0.0 0.0 0.0 15.0" Properties=species:S:1:pos:R:3:initial_magmoms:R:1:forces:R:3 energy=-447.14940175417536 free_energy=-447.14940175417536 stress="-0.001614857989539322 2.0378803200294385e-05 -1.609480605819257e-05 2.0378803200294385e-05 0.005016511653485086 5.699188822911944e-06 -1.609480605819257e-05 5.699188822911944e-06 0.00017131737589107582" pbc="T T T"
C       -0.02223227      -0.00992462       3.70710022       0.00000000       0.01109631       0.00385647      -0.00213866
C       -1.26646755       2.11908374       3.71308595       0.00000000      -0.00714426       0.00232409       0.00549941
C       -2.49247608       4.26122219       3.65966892       0.00000000       0.00613628      -0.00542868       0.00264239
C       -3.72098331       6.40111354       3.61996599       0.00000000      -0.00545380       0.00361312       0.00319052
C       -4.95807425       8.54213979       3.64437874       0.00000000      -0.00946358      -0.00030106      -0.00071155
C        2.44318098       0.02957150       3.73035439       0.00000000       0.00867182       0.00933398      -0.00426941
C        1.17675945       2.12877420       3.85661159       0.00000000      -0.01056096       0.00464423      -0.00323222
C       -0.07747467       4.26584242       3.85944115       0.00000000      -0.00306342       0.00023502       0.00877033
C       -1.26984480       6.39922442       3.72347309       0.00000000      -0.00390691      -0.01053290       0.00559577
C       -2.48851556       8.54339176       3.68071699       0.00000000       0.01574810      -0.00605753      -0.01839397
C        4.90925597      -0.00467888       3.69587606       0.00000000      -0.00519706      -0.01399537       0.00908866
C        3.70750955       2.13491863       3.77720801       0.00000000       0.01775848      -0.01376140       0.02525867
O        1.11506463       6.42225730       3.96501424       0.00000000       0.01070051      -0.00498334      -0.00719148
C       -0.02192870       8.51521967       3.73023002       0.00000000       0.00614675       0.01115393       0.00704395
C        7.38631366      -0.04144211       3.67837604       0.00000000      -0.01002546       0.00169185      -0.00305235
C        6.15671146       2.12069229       3.64925365       0.00000000       0.00617075      -0.00757556      -0.00883031
C        4.96659111       4.26883928       3.66921498       0.00000000      -0.00717027       0.01300550      -0.00258023
O        3.75400642       6.40390460       3.64592698       0.00000000       0.00123135       0.00017167       0.00038552
C        2.44385226       8.45370158       3.73604683       0.00000000      -0.00464287       0.00151107       0.01402882
C        9.83934283      -0.04336651       3.67852881       0.00000000       0.00233532       0.00707101       0.00481435
C        8.61441342       2.11125079       3.64434774       0.00000000      -0.00697849       0.01067788      -0.00298779
C        7.38759927       4.26087520       3.60197422       0.00000000      -0.00373546       0.00042281      -0.01121298
C        6.16161506       6.39842012       3.59278890       0.00000000       0.00376884      -0.00393188       0.00601768
C        4.90836857       8.51015636       3.65316722       0.00000000      -0.00649170      -0.00745337       0.01883282
C       -0.02174880       1.42572502       3.75673129       0.00000000      -0.00345562       0.00358970      -0.00256922
C       -1.26954664       3.54272908       3.72605420       0.00000000       0.00365687      -0.00286302       0.00201567
C       -2.49257530       5.68046922       3.65867047       0.00000000      -0.00736033      -0.00615789      -0.00611631
C       -3.72279510       7.82953766       3.64264863       0.00000000      -0.00031154       0.00663375       0.00756513
C       -4.95088223       9.98241544       3.69658485       0.00000000       0.00992668       0.00437962      -0.00561218
C        2.44337108       1.48640669       3.80223559       0.00000000       0.00531982       0.01054637      -0.00796668
O        1.11216475       3.52022914       3.98615685       0.00000000      -0.00603631       0.01198800       0.00152309
C       -0.07830123       5.67498200       3.85802196       0.00000000      -0.00496146      -0.01124249      -0.00621547
C       -1.26802808       7.82270687       3.70710518       0.00000000       0.01577296      -0.00462310       0.00711191
C       -2.49783006       9.98522800       3.70299189       0.00000000      -0.00050042      -0.00892853      -0.00370474
C        4.90748688       1.43241267       3.69817479       0.00000000       0.01352280      -0.02256998       0.00655615
O        3.76318418       3.53665267       3.78965542       0.00000000      -0.01713105       0.00056660       0.00518104
C        1.17809042       7.81415069       3.80954143       0.00000000      -0.00199595       0.00518015      -0.00043348
C       -0.02197298       9.95141042       3.69341529       0.00000000      -0.00938578       0.00266779       0.00434547
C        7.37796700       1.39970818       3.64936231       0.00000000      -0.00069201      -0.00026069      -0.00453036
C        6.16189841       3.54340461       3.61804592       0.00000000      -0.00805364       0.00332988      -0.00682437
C        4.96281636       5.67462210       3.63952302       0.00000000       0.00031868       0.00667937      -0.01379755
C        3.70754510       7.80332520       3.69498172       0.00000000      -0.00387788       0.00020512       0.00548905
C        2.44415534       9.91123917       3.68957234       0.00000000      -0.00658752       0.00268594       0.00777819
C        9.84982410       1.39826310       3.67103322       0.00000000      -0.00845960       0.01213230       0.00762659
C        8.61561593       3.53989850       3.62773374       0.00000000       0.00112243       0.00692092      -0.01426421
C        7.38699299       5.68059144       3.59378695       0.00000000      -0.00001910      -0.00052464      -0.00185298
C        6.15725582       7.82143821       3.61882732       0.00000000      -0.00745869      -0.01019832       0.00300334
C        4.90959574       9.94669425       3.68006413       0.00000000       0.00864754      -0.00224027      -0.01363767
Sc       2.52980196       5.00609407       4.81818777       0.00000000       0.01924769       0.00238525       0.12133870
O        2.38996211       4.83508280       6.74647726       1.00000000       0.00373562       0.00026711      -0.26834064
O        3.51436522       5.60392965       6.31905125       1.00000000      -0.00091444      -0.00624048       0.12976358
