51
Lattice="12.336457 0.0 0.0 -6.168228499999997 10.683685154694365 0.0 0.0 0.0 15.0" Properties=species:S:1:pos:R:3:initial_magmoms:R:1:forces:R:3 energy=-441.113364395626 free_energy=-441.113364395626 stress="-0.005261361788303139 0.004591645281877362 -3.761834694221046e-06 0.004591645281877362 -0.0024053650482228493 2.04849197580913e-05 -3.761834694221046e-06 2.04849197580913e-05 8.315985098260212e-06" pbc="T T T"
C        0.03544601       0.02875725       3.63744122       0.00000000       0.00268876       0.00118734      -0.00241069
C       -1.17870882       2.18133082       3.51561400       0.00000000      -0.00077779      -0.00171420      -0.00116102
C       -2.42651023       4.30795319       3.68935343       0.00000000       0.00047685       0.00045635      -0.00302150
C       -3.68569576       6.43898374       3.81270294       0.00000000      -0.00125419       0.00019886      -0.00095924
C       -4.92967268       8.56449557       3.74881537       0.00000000      -0.00074969      -0.00118136      -0.00291482
C        2.49693572       0.03832559       3.77553391       0.00000000       0.00100494       0.00286511       0.00032718
C        1.29802611       2.12344058       3.34162554       0.00000000       0.00207751       0.00344563      -0.00369971
C       -0.03645016       4.39809463       3.30426335       0.00000000       0.00174997       0.00400603       0.00011074
C       -1.25620731       6.47451884       3.69673548       0.00000000      -0.00082327      -0.00177406       0.00050838
C       -2.45776968       8.58293904       3.82770685       0.00000000       0.00150256      -0.00300270      -0.00239258
C        4.96535543       0.02184259       3.86689040       0.00000000      -0.00159603       0.00134222      -0.00452140
C        3.78018163       2.12963346       3.86282916       0.00000000      -0.00024353       0.00132035       0.00090768
O        1.11914403       6.48778810       3.91079814       0.00000000       0.00084003       0.00030241      -0.00218091
C        0.01227437       8.57348989       3.81862259       0.00000000       0.00333181       0.00180124      -0.00024594
C        7.44599632       0.01047289       3.84110738       0.00000000      -0.00012812      -0.00024920      -0.00256014
C        6.24009628       2.13426096       3.93757300       0.00000000       0.00047239      -0.00362190       0.00131607
C        5.06088617       4.23646380       3.94578112       0.00000000      -0.00091179      -0.00024627      -0.00055124
S        3.64906480       6.25529357       2.85110775       0.00000000      -0.00151648      -0.00079767       0.00206079
C        2.46853722       8.54595134       3.71504437       0.00000000       0.00016725       0.00113769      -0.00175211
C        9.90885128       0.02047887       3.69569355       0.00000000      -0.00149419      -0.00129900      -0.00068574
C        8.69767062       2.15658092       3.79064762       0.00000000      -0.00174793       0.00064573       0.00138152
C        7.46681438       4.28906853       3.89054116       0.00000000      -0.00193463      -0.00064489       0.00216640
C        6.20191930       6.41207981       3.74640478       0.00000000       0.00114427       0.00037273       0.00138973
C        4.94915937       8.55270867       3.60506192       0.00000000      -0.00163860       0.00007266      -0.00135636
C        0.05599456       1.46384907       3.48962723       0.00000000       0.00220415       0.00209750       0.00016893
C       -1.19895960       3.60935836       3.48870610       0.00000000       0.00198601       0.00114113       0.00018613
C       -2.46118713       5.72860944       3.73813953       0.00000000      -0.00175286       0.00054132       0.00270119
C       -3.69312789       7.86303684       3.80422370       0.00000000      -0.00073021      -0.00058158       0.00688139
C       -4.90902052      10.00107248       3.72036806       0.00000000       0.00214465      -0.00039513       0.00093110
C        2.52462523       1.47473309       3.69146312       0.00000000       0.00102226       0.00410296       0.00103832
S        1.37347408       3.68236945       2.54686667       0.00000000       0.00088346      -0.00531937       0.00549423
C       -0.06576816       5.78150580       3.57470687       0.00000000       0.00153050       0.00117534       0.00364567
C       -1.23946387       7.88488206       3.79856562       0.00000000       0.00187662      -0.00142473       0.00251686
C       -2.44577412      10.01139218       3.84344349       0.00000000      -0.00064960      -0.00158822       0.00241229
C        4.98606712       1.44736475       3.89661822       0.00000000      -0.00190406      -0.00038405      -0.00022577
O        3.85531058       3.51603211       4.07001851       0.00000000      -0.00036993       0.00010006       0.00016756
C        1.21269400       7.88412391       3.81064531       0.00000000       0.00194575       0.00181564      -0.00009729
C        0.03496603       9.99930211       3.85169171       0.00000000      -0.00059890       0.00124732      -0.00086979
C        7.46024359       1.43800753       3.87112481       0.00000000      -0.00041586      -0.00145810      -0.00527157
C        6.25893220       3.54537092       3.96812136       0.00000000      -0.00159478      -0.00190172      -0.00079540
C        5.03060887       5.61723824       3.67530370       0.00000000       0.00128420      -0.00022558       0.00087112
C        3.71075165       7.88097389       3.47337237       0.00000000      -0.00130197      -0.00150205       0.00435379
C        2.50085895       9.98395107       3.76676408       0.00000000      -0.00062373      -0.00096693       0.00307272
C        9.93244601       1.45729788       3.67264264       0.00000000      -0.00279333      -0.00123950      -0.00074306
C        8.69414525       3.57960788       3.80538096       0.00000000      -0.00074136       0.00172779      -0.00083642
C        7.43441447       5.70841417       3.84281827       0.00000000      -0.00012278       0.00005507       0.00083582
C        6.18049207       7.83691141       3.67235211       0.00000000      -0.00086342       0.00030831       0.00077044
C        4.96559315       9.99431811       3.65458947       0.00000000       0.00057594      -0.00032725      -0.00034682
Sc       2.36045161       4.92230069       4.90184266       0.00000000      -0.00726025       0.02841841      -0.15468685
O        1.91997168       4.69669626       6.71953300       1.00000000       0.00798797      -0.01573076      -0.13770569
O        1.19918255       3.83262206       5.77816906       1.00000000      -0.00235859      -0.01430898       0.28577605
