52
Lattice="12.336457 0.0 0.0 -6.168228499999997 10.683685154694365 0.0 0.0 0.0 15.0" Properties=species:S:1:pos:R:3:forces:R:3 energy=-444.3720907599909 free_energy=-444.3720907599909 stress="-0.004156828758590423 0.0038024341620744484 2.1802427316711816e-05 0.0038024341620744484 -0.003848888874865238 -5.704437108053521e-06 2.1802427316711816e-05 -5.704437108053521e-06 3.887727284505313e-06" pbc="T T T"
C        0.00358613      -0.00434744       3.69570230       0.00030162      -0.00891276      -0.00165211
C       -1.21257808       2.15367174       3.70511763       0.00152217       0.00306229       0.00863857
C       -2.45197188       4.27692218       3.96836244      -0.00216653       0.00551643       0.00497774
C       -3.72141634       6.40779110       3.99324842      -0.00507209       0.00736808      -0.00218301
C       -4.95918427       8.53103838       3.80911984      -0.00126495      -0.00332608       0.00195851
C        2.46645054      -0.00050959       3.74914436      -0.00486130       0.00096993       0.00431068
C        1.24531401       2.09498978       3.36677594      -0.00134813      -0.00679523       0.00011753
C       -0.03275895       4.35515445       3.64235862       0.01333015      -0.00416782      -0.00544110
C       -1.27942746       6.44297940       3.97326675       0.00485376       0.00301048       0.00192094
C       -2.48719180       8.55026704       3.90897758      -0.00111627       0.00734142       0.00754145
C        4.93384622      -0.01080916       3.84681591       0.00184519      -0.00113337      -0.00867076
C        3.74945879       2.08087780       3.71019154       0.00315794      -0.00288146       0.00054482
O        1.12564053       6.48470518       3.76816553      -0.01055152       0.00151058       0.00289277
C       -0.01927209       8.54762102       3.82211889      -0.00339002       0.00464773      -0.00763321
C        7.41329939      -0.01749017       3.84334706       0.00207228       0.00318916       0.00607164
C        6.20193902       2.10510429       3.94012184      -0.00088643      -0.00060645      -0.00501828
C        5.02104738       4.21194154       3.85559239       0.00175422       0.00136288      -0.00029954
S        3.74565942       6.29729476       2.56886137       0.00651459      -0.00435590       0.00022388
C        2.44562821       8.52595997       3.60530957      -0.00263793      -0.00618444       0.00380843
C        9.87567307      -0.00462890       3.74777757       0.00351994       0.00370834      -0.00432318
C        8.66141277       2.13048901       3.92355477       0.00022105      -0.00848557       0.00211157
C        7.42516581       4.26097242       4.02195330       0.00555153      -0.00402577      -0.00575384
C        6.16092593       6.38814917       3.80674678      -0.00095562      -0.00264018      -0.00215486
C        4.91957505       8.52874195       3.59869796       0.00749644       0.00598618      -0.00219480
C        0.01695141       1.43227768       3.59403693       0.00076774      -0.01435498      -0.00334518
C       -1.22491979       3.57254183       3.79464909       0.00199049       0.00514106       0.00458557
C       -2.48859524       5.69889344       4.00790400      -0.00259601       0.01102287       0.00355276
C       -3.72473122       7.82985556       3.91833146       0.00065812       0.00116618      -0.00151398
C       -4.93908417       9.96568990       3.74636908       0.00208736      -0.00931119      -0.00070447
C        2.49196585       1.43509804       3.60576353      -0.00186129      -0.00198443       0.00270415
S        1.19253410       3.66141854       2.56113988      -0.00715580       0.01049781       0.00052077
C       -0.08255147       5.74925666       3.84626066       0.00055307      -0.00451484      -0.00338247
C       -1.26515914       7.85421525       3.92106831       0.00094527       0.00854782       0.00843465
C       -2.47665225       9.97718959       3.83916778      -0.00270079       0.00755973       0.00960979
C        4.95609326       1.41198885       3.83580354       0.00277516      -0.00299601      -0.00505250
O        3.81539872       3.47716703       3.74659121      -0.00403503      -0.00529316       0.00052238
C        1.18846983       7.87932287       3.70426973      -0.00708008      -0.00378377       0.00729784
C        0.00275543       9.97035845       3.84357449       0.00159984       0.00186250      -0.00127110
C        7.42408986       1.40921023       3.92083994      -0.00226139      -0.00265691       0.00282378
C        6.21591253       3.51672208       3.99261584       0.00218148      -0.00004563       0.00455200
C        4.96961833       5.60543104       3.65213873       0.00134530      -0.00044040      -0.01447841
C        3.69189720       7.86563920       3.37029475       0.00977557       0.00558253      -0.00616087
C        2.47040415       9.96118284       3.75025029       0.00364808      -0.00136886       0.00707246
C        9.89570408       1.42978299       3.80833459       0.00273890       0.00731000      -0.00061650
C        8.65817556       3.55241907       3.99723721       0.00368839      -0.00849312      -0.00455106
C        7.38852294       5.68329934       3.97795424      -0.00593510      -0.00168521      -0.00277394
C        6.14889101       7.80692194       3.71251611      -0.00006924      -0.00055133       0.00125256
C        4.93313506       9.96552987       3.69704658      -0.00143962       0.00845087      -0.00236630
Sc       2.46866272       4.97398036       4.37305473      -0.00886392      -0.00184513      -0.00589233
O        2.43895061       4.92726928       6.16859824      -0.00063860      -0.01252198       0.00382708
O        2.17713702       4.85555493       7.54634073      -0.00411332       0.00714081      -0.00328301
H        3.06716871       4.87305827       7.95776830      -0.00389465       0.00340627      -0.00115754
