52
Lattice="12.336457 0.0 0.0 -6.168228499999997 10.683685154694365 0.0 0.0 0.0 15.0" Properties=species:S:1:pos:R:3:forces:R:3 energy=-446.2867040439589 free_energy=-446.2867040439589 stress="-0.0012915896357895728 0.0005266549449278953 -5.785054764667786e-05 0.0005266549449278953 0.0005323886841281846 4.02323842420756e-06 -5.785054764667786e-05 4.02323842420756e-06 0.00018980502446571852" pbc="T T T"
C        0.11404237      -0.00273351       3.54496804       0.01146653      -0.01231051       0.07152095
C       -1.13358246       2.12661955       3.45403689      -0.03337440       0.00781239      -0.04986592
C       -2.36919453       4.26425399       3.41163297       0.00436052      -0.00438783       0.01076657
C       -3.60152124       6.39932073       3.50947777       0.03961673       0.01037285       0.00435433
C       -4.82576295       8.54279968       3.62146476       0.00951936      -0.00698430      -0.03913141
C        2.57312366       0.00718226       3.59358772      -0.02010838       0.02649437       0.00827127
C        1.31822171       2.12158111       3.68927988      -0.00473382       0.01020172       0.07283750
C        0.06149073       4.27072411       3.53490455      -0.07654644      -0.02272605       0.04577170
C       -1.13788417       6.39746922       3.45249204      -0.00351695       0.02193831      -0.00832254
C       -2.35399799       8.53546633       3.50459034      -0.03729768       0.01978480       0.02521954
C        5.04864062      -0.01979492       3.69204205      -0.00305645      -0.02959584       0.01115306
C        3.80374530       2.05418410       4.15547974       0.03567963      -0.04215220       0.00494167
O        1.27265525       6.41533154       3.90486495      -0.01528758       0.02815260      -0.01089247
C        0.11311076       8.51199310       3.66124526       0.02696759       0.04530994      -0.00615362
C        7.51414177      -0.02629072       3.68277481      -0.02170142       0.00053872      -0.01021364
C        6.29041274       2.10907981       3.90948041       0.03443359       0.01143430      -0.08166442
C        5.19356772       4.27058647       4.44992332       0.00631388      -0.02550754       0.05524774
P        3.90824592       6.52276467       5.31126236      -0.05747461      -0.01184405      -0.00736849
C        2.56018386       8.51830282       3.92942065      -0.00278557       0.00244893      -0.01876662
C        9.97514157      -0.01864485       3.61407553      -0.04061463      -0.01359461       0.04153179
C        8.73821856       2.12252771       3.57636507      -0.00542311      -0.04242248      -0.02625535
C        7.51570677       4.25794024       3.70746563       0.10036529       0.03106339       0.05160227
C        6.32783310       6.41736913       3.98581690       0.03907493       0.03449203      -0.00537290
C        5.05496694       8.56004939       3.91478849       0.00555535      -0.02521580      -0.01905156
C        0.11368742       1.43155099       3.51256140      -0.02283016      -0.00729910       0.01733250
C       -1.13696840       3.54915024       3.40269132      -0.03890118       0.00930101       0.01718296
C       -2.36930597       5.68218176       3.41346792       0.03222915       0.00169966       0.03449948
C       -3.59577164       7.82674799       3.52507942      -0.02195186      -0.00768546      -0.00724719
C       -4.82243477       9.97459313       3.55728840       0.01261033      -0.01484997       0.02813220
C        2.55806194       1.43666278       3.78340790      -0.00485083      -0.00746692       0.05295306
O        1.26335022       3.52301763       3.81585917      -0.01896714      -0.01706334       0.00659285
C        0.06186700       5.67589508       3.58293058      -0.04804716      -0.03515324      -0.01308719
C       -1.13102891       7.81743247       3.52737659      -0.00033696       0.05643051      -0.05684070
C       -2.35916978       9.96780797       3.58123630      -0.04834681       0.01852411       0.03872217
C        5.04671140       1.39221264       3.93308382       0.03227318      -0.01483678      -0.09013474
P        3.85519898       3.44286030       5.22562753      -0.08159931       0.02241202       0.00269357
C        1.31685481       7.82697731       3.86375531       0.02857162      -0.02407788      -0.01098051
C        0.11467017       9.94780709       3.66697565       0.00462903       0.02055147       0.03767673
C        7.51036280       1.40654439       3.70671623      -0.00178687      -0.02566723      -0.02796326
C        6.32216474       3.53406739       4.00277334       0.05997661       0.01351619       0.00004350
C        5.20530489       5.69336307       4.46822224       0.01702998      -0.00770187      -0.01544746
C        3.82689834       7.91017652       4.23544760      -0.01366611      -0.01158644      -0.00872055
C        2.57320172       9.94324533       3.71127553      -0.04134515      -0.01418797      -0.02490613
C        9.97811246       1.41223252       3.51478138      -0.00944174      -0.00404375      -0.01141116
C        8.73480090       3.54844212       3.53477745       0.04428293      -0.03978353      -0.03417432
C        7.51802897       5.68710119       3.69562978       0.06203600       0.04318807       0.01300523
C        6.29529920       7.84000059       3.85256978       0.02237082       0.01680943      -0.00778185
C        5.04978506       9.96935472       3.65435172      -0.00785177      -0.01691080      -0.01102720
Sc       1.64771241       4.98155680       5.43295380       0.01087924       0.04278030       0.00582405
O        1.15263358       5.72418328       7.15126840      -0.09207350       0.00615141      -0.01484937
O        0.08286761       4.71958082       6.80395468       0.00167678       0.01441510       0.16523503
H       -0.49593127       4.79901407       7.58914025       0.13199849      -0.03076815      -0.20548113
