51
Lattice="12.336457 0.0 0.0 -6.168228499999997 10.683685154694365 0.0 0.0 0.0 15.0" Properties=species:S:1:pos:R:3:initial_magmoms:R:1:forces:R:3 energy=-445.4167153275422 free_energy=-445.4167153275422 stress="0.0015949609525802155 -0.0004381697983961937 8.510032816628518e-07 -0.0004381697983961937 0.0035876698246734007 2.7608982355211245e-06 8.510032816628518e-07 2.7608982355211245e-06 5.712038938499137e-05" pbc="T T T"
C       -0.04281082      -0.03021855       3.75635797       0.00000000      -0.00289331      -0.00056004       0.00300286
C       -1.28711339       2.10167189       3.65911439       0.00000000       0.00359473      -0.00210655       0.00228737
C       -2.51423455       4.24540866       3.49751929       0.00000000       0.00015459      -0.00046280       0.00391296
C       -3.75095417       6.38732598       3.45661855       0.00000000      -0.00443144       0.00229629       0.00540121
C       -4.99039145       8.51655792       3.65472011       0.00000000      -0.00440516       0.00195359      -0.01285463
C        2.42062185      -0.00152403       3.67426597       0.00000000       0.00008509       0.00333774      -0.00462407
C        1.14735970       2.10561384       3.85301498       0.00000000       0.00203204      -0.00017405      -0.00974385
C       -0.12878755       4.21613504       4.04510925       0.00000000      -0.00507155       0.00092865      -0.00677868
C       -1.30970562       6.36501278       3.88471444       0.00000000      -0.00235221       0.00324519       0.00824611
C       -2.51210506       8.52119761       3.69135338       0.00000000      -0.00326019       0.00230318      -0.00140653
C        4.89322712      -0.02482074       3.63013650       0.00000000      -0.00005395      -0.00330202       0.00774963
C        3.69476909       2.10687679       3.56877033       0.00000000       0.00631548      -0.00409753       0.00343770
P        0.85006063       6.46831280       5.47662805       0.00000000       0.01382107       0.00229097       0.02327088
C       -0.05410195       8.54836864       4.05634729       0.00000000      -0.00263640       0.00331650       0.00090285
C        7.36664020      -0.02833555       3.74390595       0.00000000       0.00127707      -0.00039391      -0.00574002
C        6.14449228       2.08897250       3.31887772       0.00000000      -0.00319104      -0.00063555      -0.00073714
C        4.93475826       4.22701387       3.15260995       0.00000000       0.00780399       0.00653918      -0.00273143
P        3.90075801       6.15716950       4.85067868       0.00000000       0.00343540      -0.00238491       0.02222475
C        2.42373886       8.56470124       4.38582262       0.00000000      -0.00140710      -0.00249835       0.00416231
C        9.82618386      -0.02936623       3.83456185       0.00000000      -0.00298866      -0.00312534      -0.00413200
C        8.59838882       2.10081307       3.46172170       0.00000000       0.00165406      -0.00201484      -0.00079217
C        7.37006288       4.24716185       3.21615926       0.00000000       0.00223836       0.00086782      -0.00190679
C        6.10833550       6.37971565       3.46161216       0.00000000       0.00035537       0.00294906      -0.00116878
C        4.90118355       8.51820778       4.05823049       0.00000000      -0.00340295      -0.00381188       0.00194167
C       -0.05081211       1.40082386       3.73933906       0.00000000       0.00640492       0.00018412       0.00834927
C       -1.29032248       3.52147175       3.67662809       0.00000000       0.00478016      -0.00186290       0.00188883
C       -2.52025045       5.66961199       3.55598385       0.00000000      -0.00160854       0.00461116       0.00547977
C       -3.75122951       7.81039106       3.58217699       0.00000000      -0.00406908      -0.00118959      -0.00029116
C       -4.97544904       9.95424248       3.70714299       0.00000000      -0.00216199       0.00010187       0.00010643
C        2.41726968       1.45943577       3.72384288       0.00000000       0.00148447       0.00062042      -0.00286048
O        1.07413514       3.48099925       4.16443249       0.00000000      -0.00898960      -0.00517801      -0.01961524
C       -0.17088306       5.59305355       4.28355410       0.00000000      -0.00115653       0.00018306      -0.00227238
C       -1.29008898       7.80760214       3.88719164       0.00000000      -0.00462238       0.00345240       0.00328348
C       -2.51736980       9.96041991       3.66417652       0.00000000      -0.00025292       0.00249893       0.00506408
C        4.90689899       1.39766374       3.48439377       0.00000000      -0.00478790      -0.00072520       0.00765194
O        3.70392850       3.51189548       3.24446478       0.00000000       0.01266581      -0.00882061      -0.02602541
C        1.14498658       7.94507933       4.52232491       0.00000000      -0.00069087       0.00082328      -0.00349066
C       -0.04342505       9.95676885       3.77736237       0.00000000       0.00091164       0.00177331       0.00411672
C        7.36713931       1.38261747       3.47902228       0.00000000      -0.00063509      -0.00208004      -0.00583872
C        6.14313878       3.50890645       3.12208606       0.00000000      -0.00147986       0.00142631       0.00463237
C        4.87997885       5.61158042       3.45124658       0.00000000       0.00179091       0.00457133      -0.00007983
C        3.71153560       7.88130560       4.53768031       0.00000000       0.00067631      -0.00762166       0.00257007
C        2.42614965       9.95282927       3.98096358       0.00000000      -0.00053670      -0.00011916       0.00147417
C        9.82847589       1.39034934       3.62697652       0.00000000       0.00302042      -0.00063743       0.00167594
C        8.59875777       3.52863360       3.34960077       0.00000000       0.00303817       0.00012702       0.00567920
C        7.35182668       5.67629610       3.31011028       0.00000000      -0.00383344       0.00402106       0.00446155
C        6.11026546       7.79352220       3.74023041       0.00000000      -0.00252884       0.00225965       0.00274038
C        4.89554538       9.94338336       3.88443444       0.00000000      -0.00565105      -0.00164099      -0.00029707
Sc       3.02713395       3.76456876       5.16130206       0.00000000      -0.03207828       0.06980797       0.74882667
O        4.44132230       5.23999539       5.98222756       1.00000000      -0.02935048       0.03155636       0.02152175
O        2.28840063       5.70872666       5.34369156       1.00000000       0.06298750      -0.10260306      -0.80267588
