51
Lattice="12.336457 0.0 0.0 -6.168228499999997 10.683685154694365 0.0 0.0 0.0 15.0" Properties=species:S:1:pos:R:3:initial_magmoms:R:1:forces:R:3 energy=-445.4142353548151 free_energy=-445.4142353548151 stress="-0.00018077965255573994 -2.1971395639674512e-05 -1.6678163202305425e-06 -2.1971395639674512e-05 0.00203262387553425 1.035648383603694e-06 -1.6678163202305425e-06 1.035648383603694e-06 -3.739291498547513e-05" pbc="T T T"
C       -0.01434620       0.01116620       3.50017470       0.00000000      -0.00016056       0.00055218      -0.00004002
C       -1.26035738       2.14060325       3.43850033       0.00000000       0.00023742       0.00027901       0.00005348
C       -2.49800991       4.27708424       3.50334654       0.00000000       0.00016816      -0.00023295      -0.00000628
C       -3.73089319       6.41292230       3.60084661       0.00000000       0.00013368      -0.00039195      -0.00000131
C       -4.96228491       8.54793086       3.62499700       0.00000000       0.00001673      -0.00055749       0.00043190
C        2.44054432       0.01860218       3.57386125       0.00000000      -0.00020190      -0.00015732      -0.00063193
C        1.20065959       2.14219328       3.61941894       0.00000000       0.00019368       0.00031044      -0.00029802
C       -0.05249913       4.28173596       3.54593438       0.00000000       0.00114767       0.00199285       0.00115092
C       -1.26905353       6.41357386       3.48769611       0.00000000      -0.00014889       0.00033284      -0.00018187
C       -2.49114213       8.54673654       3.48421436       0.00000000       0.00031088      -0.00003869      -0.00125447
C        4.91982300      -0.00896772       3.57441163       0.00000000       0.00038209      -0.00010717       0.00065878
C        3.68700335       2.05367635       4.14407041       0.00000000      -0.00007105       0.00001907       0.00016020
O        1.17747671       6.42352186       3.50688223       0.00000000       0.00102018      -0.00450886       0.00535039
C       -0.01530548       8.52581800       3.44607150       0.00000000      -0.00050045      -0.00006192      -0.00032915
C        7.38088283      -0.00947400       3.51132723       0.00000000       0.00013897       0.00013351      -0.00013535
C        6.15842888       2.12947090       3.86677093       0.00000000      -0.00067671       0.00038610       0.00034663
C        5.04765357       4.27321378       4.59091658       0.00000000       0.00068866      -0.00050174      -0.00035596
P        3.81640660       6.74089194       5.35822661       0.00000000       0.00157451       0.00120579      -0.00100437
C        2.43830465       8.51092359       3.65116881       0.00000000      -0.00037459      -0.00055453       0.00034530
C        9.84237317      -0.00540568       3.47323032       0.00000000       0.00064687       0.00025595       0.00027933
C        8.60838982       2.13510637       3.53941353       0.00000000      -0.00009862      -0.00006581       0.00048889
C        7.38953927       4.26898373       3.79895013       0.00000000      -0.00012619       0.00054120       0.00019102
C        6.17569825       6.41713459       4.05482262       0.00000000      -0.00084016      -0.00020965      -0.00064185
C        4.91481885       8.56739518       3.78160729       0.00000000       0.00023291      -0.00003291      -0.00062715
C       -0.01072720       1.44752309       3.47320887       0.00000000      -0.00005656       0.00027162       0.00037448
C       -1.26705644       3.56301691       3.46599615       0.00000000      -0.00021020       0.00003967       0.00099063
C       -2.49733444       5.69690455       3.51597907       0.00000000       0.00048415      -0.00025934       0.00011585
C       -3.72892505       7.83710650       3.56230356       0.00000000       0.00044810      -0.00035039      -0.00051364
C       -4.95463648       9.98252779       3.54365361       0.00000000      -0.00049517      -0.00015597       0.00027345
C        2.43924079       1.45533715       3.76135762       0.00000000      -0.00001036       0.00003766      -0.00048528
O        1.18062218       3.54851648       3.67576969       0.00000000       0.00101325       0.00358974       0.00425013
C       -0.04420989       5.70426346       3.55298857       0.00000000       0.00184938      -0.00023934       0.00140118
C       -1.26283107       7.83219544       3.45269078       0.00000000      -0.00023174       0.00000299      -0.00060553
C       -2.49421008       9.97786232       3.52922952       0.00000000       0.00027766      -0.00010919      -0.00030112
C        4.92027196       1.40244990       3.84295296       0.00000000      -0.00010100       0.00008777       0.00007080
P        3.86496270       3.22440889       5.45258964       0.00000000       0.00086511      -0.00101472      -0.00087161
C        1.19555048       7.82142329       3.50916074       0.00000000      -0.00039687      -0.00084458       0.00021213
C       -0.01621962       9.96165407       3.49593275       0.00000000       0.00014739      -0.00010458      -0.00058631
C        7.37552930       1.42389743       3.61449694       0.00000000      -0.00067202       0.00039021       0.00011046
C        6.18294650       3.55040868       4.07442280       0.00000000      -0.00003634       0.00043727      -0.00009294
C        5.04419127       5.69552190       4.56270921       0.00000000       0.00042991      -0.00038463       0.00005850
C        3.67890755       7.91789437       4.04156023       0.00000000       0.00043832      -0.00045007       0.00086652
C        2.43942158       9.95190497       3.50046794       0.00000000       0.00036471      -0.00013562      -0.00007269
C        9.84665215       1.42662262       3.44969382       0.00000000       0.00045227       0.00013024       0.00062177
C        8.60666911       3.55874251       3.59012627       0.00000000      -0.00031866       0.00007359      -0.00010371
C        7.38888771       5.70002373       3.79663081       0.00000000      -0.00051451       0.00026798      -0.00031215
C        6.15342949       7.84032225       3.84083892       0.00000000      -0.00017411      -0.00017885       0.00067125
C        4.91977042       9.98274739       3.52895705       0.00000000       0.00049717       0.00042652       0.00011761
Sc       1.13986584       4.84935564       5.46932807       0.00000000      -0.06075429       0.00679705      -0.33550737
O        2.51541157       3.58918086       6.09395855       1.00000000      -0.00388434       0.00012367       0.02006690
O        2.40757763       6.27876539       5.74472633       1.00000000       0.05689547      -0.00703667       0.30530159
