52
Lattice="12.336457 0.0 0.0 -6.168228499999997 10.683685154694365 0.0 0.0 0.0 15.0" Properties=species:S:1:pos:R:3:forces:R:3 energy=-451.0992717246289 free_energy=-451.0992717246289 stress="-0.002596094294861667 -6.112304838046114e-07 3.1360045741175135e-06 -6.112304838046114e-07 0.0035128369230191395 -7.21638566999283e-06 3.1360045741175135e-06 -7.21638566999283e-06 -1.73798136529933e-05" pbc="T T T"
C        0.02695246       0.00178399       3.77975619      -0.00179919      -0.00258662       0.00251945
C       -1.21876231       2.13037820       3.77534497       0.00286647      -0.00581973      -0.00271491
C       -2.44498515       4.27117450       3.71791294       0.00261220       0.00774085      -0.00084675
C       -3.67306432       6.41051755       3.69039321      -0.00760599       0.00868821       0.00078109
C       -4.90966360       8.55165879       3.72655844      -0.00284796      -0.00293580       0.00179185
C        2.49222213       0.03497993       3.79199559       0.00699293       0.00384577      -0.00168366
C        1.22758213       2.13423775       3.89086664      -0.00121652       0.00250314       0.00917755
C       -0.02966578       4.27862371       3.88134304      -0.00532841      -0.00257956       0.00073074
C       -1.22242155       6.41039301       3.77548723      -0.00514287       0.00168844      -0.00766745
C       -2.43987711       8.55151428       3.74773809       0.00388019       0.00142518       0.00522403
C        4.95799420       0.00231579       3.77472066       0.01349795       0.00178421       0.00265623
C        3.75647379       2.13668533       3.82740283       0.00209634      -0.00556075       0.00038260
O        1.16816110       6.43122781       4.00013314       0.01086728      -0.00715391       0.00561188
C        0.02606544       8.52681838       3.81223811      -0.00018488      -0.00224474       0.00518800
C        7.43441345      -0.02843570       3.77003154      -0.00064874      -0.00526052      -0.00339957
C        6.20602702       2.12983328       3.71896002      -0.00190206      -0.00383103      -0.00013869
C        5.01356445       4.27832533       3.72963092       0.00178510       0.00221060       0.01257376
O        3.80556888       6.42312600       3.82330363       0.00382051      -0.00353485      -0.00067763
C        2.49234931       8.47077668       3.85063317      -0.00066945      -0.00272060       0.00349428
C        9.88835190      -0.02889718       3.77052846      -0.00478398      -0.00595752       0.00480026
C        8.66244416       2.12347141       3.71444894      -0.00351235       0.00060775       0.00865510
C        7.43519004       4.27098326       3.66768450      -0.00939886       0.00570503      -0.00115870
C        6.21111460       6.41007587       3.68479153      -0.00028036       0.00125260      -0.00072635
C        4.95923932       8.52545257       3.76831608       0.00491201       0.00228579       0.00328969
C        0.02651433       1.43697377       3.81303171       0.00153398      -0.00477854      -0.00540678
C       -1.22202330       3.55300195       3.77517240      -0.00059984      -0.00469409      -0.00822236
C       -2.44476550       5.69050395       3.71833664      -0.00596270       0.01135746      -0.00396031
C       -3.67438145       7.83845210       3.71573576      -0.00063606       0.00515420       0.00167498
C       -4.90215278       9.99165771       3.76920868       0.00125355      -0.00088610      -0.00998988
C        2.49226903       1.49261611       3.84682503      -0.00154186       0.00919082       0.00591128
O        1.16852133       3.53263553       4.00462208      -0.00281179       0.00228807      -0.00232261
C       -0.02980416       5.68573419       3.88262533      -0.00707622      -0.00615098      -0.01081727
C       -1.21918605       7.83311903       3.77422490      -0.00084899       0.00012799       0.00364247
C       -2.44936797       9.99195209       3.77301475       0.01203624       0.00356558      -0.00596559
C        4.95877887       1.43777745       3.76990654       0.00536436      -0.00305804      -0.00974196
O        3.80435314       3.54082058       3.80536655       0.00170965      -0.00294988      -0.00668219
C        1.22716975       7.82950726       3.89177223       0.00202521      -0.00377330       0.00437675
C        0.02631690       9.96195178       3.78230247       0.00450351      -0.00312841      -0.00525878
C        7.42678483       1.41122714       3.72695559      -0.00397006      -0.00628036      -0.00197844
C        6.21092265       3.55244850       3.68245834      -0.00270816      -0.00248821       0.00311195
C        5.01389735       5.68450638       3.73453237       0.00383571       0.00051454       0.00450585
C        3.75686871       7.82733687       3.83386845       0.00366607       0.00539305      -0.00733412
C        2.49295906       9.92837104       3.79288701      -0.00389565      -0.00374264      -0.00686798
C        9.89743593       1.41139004       3.74696586      -0.00021441      -0.00542853       0.00248868
C        8.66331753       3.55080823       3.69002202      -0.00258749       0.00998219      -0.00210578
C        7.43512784       5.69055098       3.66807373      -0.00662407       0.00589630       0.00010225
C        6.20625911       7.83302896       3.71886411      -0.00117576      -0.00232779      -0.00003959
C        4.95923596       9.96092650       3.77154517      -0.00137147      -0.00066414       0.00260336
Sc       2.55528872       4.97896524       4.74765501      -0.00252467       0.00000945      -0.00642576
O        3.27677861       4.89819514       6.53480269       0.00360285       0.00206866       0.00807309
O        1.80157933       5.03543884       6.70392706       0.00670402       0.00656131       0.01617603
H        1.71419465       5.00260266       7.67491377      -0.00969531      -0.00131055      -0.00741010
