51
Lattice="12.336457 0.0 0.0 -6.168228499999997 10.683685154694365 0.0 0.0 0.0 15.0" Properties=species:S:1:pos:R:3:initial_magmoms:R:1:forces:R:3 energy=-724961.9585916258 free_energy=-724961.9585916258 stress="67.18124957173869 -38.42052290115126 -7.981769116637832 -38.42052290115126 355.4621932892041 -56.37409853430021 -7.981769116637832 -56.37409853430021 99.05513689784253" pbc="T T T"
C       -4.77259709      -0.66048221       3.48681168       0.00000000       2.49064714      16.07171644       7.54456766
C       -1.83401416       1.18167873       1.63174607       0.00000000    -424.20513010     -36.43279632     390.53421199
C       -0.45357591       2.93425215       0.63100393       0.00000000    1958.15378425     570.64068947   -2999.70786080
C       -5.63090699       7.17960456       2.13437739       0.00000000       3.60444981     -15.64208849       8.19653196
C       -6.35782558       3.59240986       3.78357587       0.00000000       0.20565427       8.23382676      -7.86924052
C        6.07803527       1.88904860       4.21031323       0.00000000     -38.13133492      46.60509252      77.46809213
C        2.80303234       2.80566004      -2.06439791       0.00000000    3800.57038463    5500.52845256   -2099.28315518
C       -4.72031353      11.37884464       2.56325105       0.00000000       2.01524788    -276.74821248     916.11298482
C        2.18000117       3.37698395      -4.08204703       0.00000000    -707.09753997   -2316.84569630    3642.92756530
C        3.50781491       2.49045607       7.31040184       0.00000000     -11.40457288      25.33787456      -3.76989457
C        9.34701233       0.45759183       4.86941419       0.00000000      29.42135420     -16.76460244      27.72941179
C        4.79660700       2.65909942       7.63982097       0.00000000       7.04214011      13.52522680       6.33304914
P       -3.32868049      15.01802871      11.82660510       0.00000000   -3465.58563688   -4389.91786363    4446.86542410
C       -0.39446524       9.07932723       1.02733519       0.00000000     -21.00237077      -5.37826037      -3.25985329
C       11.03859891       3.87735759       5.44922281       0.00000000       0.44495437      -0.73761749      -0.17209085
C       10.74315960      -5.38618563       0.45256063       0.00000000     134.08006359     121.61544504     152.77011295
C        4.27917942      -1.23295084       4.43065901       0.00000000     157.66249136    -106.08499828     -73.94231250
P        1.43475869       6.92841787      11.70235866       0.00000000     -35.38445404     271.20695414    -130.23761353
C        7.10674082       8.65779456       4.21312711       0.00000000    -319.32936225     369.26777116   -1409.41988949
C        7.87291490      -0.91933877       1.59621016       0.00000000     -27.46338322      38.43901119      24.82976991
C        3.63842852      -0.78583889       4.46044909       0.00000000    -126.79341568     144.34013202    -127.72245186
C        7.46252558       1.51983516       2.84402387       0.00000000    -710.66207359     -94.95174515   -3522.66668176
C       11.96206232      13.29089142       0.40739787       0.00000000     380.34312278      90.68146571     157.50551035
C        6.76577569       8.40230845       1.86197087       0.00000000      -9.20207672     -59.90420414      46.81848086
C        1.39335391       2.00000266      -1.42209827       0.00000000  140627.12525156 -423929.06330367   74913.12827376
C        1.16064934       3.36668294      -1.81404280       0.00000000   28283.37310761 -238857.14060564   75241.11207717
C       -8.62831836       4.18027307       6.11622925       0.00000000       1.29926175      -9.26079254      -1.87054535
C        1.03496149      12.08866229       1.88901175       0.00000000    1067.19309417   -1383.93492923    2255.18882894
C       -9.36166990       4.50167527      -1.56319998       0.00000000   -1781.90516123   -6752.79509345    -454.69641637
C        2.68669214       4.93775403       8.68869557       0.00000000       0.24043688      36.25293771     -50.36726828
P        1.46621706       1.62884894      -1.32991525       0.00000000 -169132.46404046  671374.06903886 -153841.61641235
C        4.88675231      13.51913480       8.45169271       0.00000000     738.73786961   -1206.02461700    -227.12500700
C        0.92145672       9.89880415      -1.40911019       0.00000000       1.05186543      -5.51073635       0.93316702
C       -1.39132617      10.61325190       6.94927195       0.00000000     168.32329599     557.72899047     411.25805611
C        5.06973498       1.53692447       4.80489625       0.00000000     -43.56603796      19.00110656     -29.94192053
P        1.87574148      -1.99589527      11.20108414       0.00000000  -21852.90390373  -82229.31669135  -39195.80860034
C       -0.01427148      10.49747498       1.69352372       0.00000000     -12.44207848      51.27932921      60.11188923
C        0.49948648      11.32732011       4.61174290       0.00000000     -34.31948068     -48.30852859     -53.62694090
C        4.09931022       2.00179419       5.24574232       0.00000000     -15.09953384      38.38108647      -7.84356841
C        9.02477658       8.08762603       3.37806888       0.00000000      -3.60413043      -0.51958518       2.85714489
C        5.61700776      -0.91504483       4.63915664       0.00000000      15.10424043     -15.47883731     -23.03415368
C        7.21662721       2.14981172       1.94864135       0.00000000    -499.51011991    -257.00027460    1676.17525716
C        6.31707114       7.40590323      11.32962979       0.00000000   51363.67265285   26176.80271586  -14449.05973554
C        6.95180248       1.24526632       2.41829368       0.00000000     299.46213230    1751.46291690    -538.92580738
C       11.63509656       5.72648135       1.00945409       0.00000000      -7.92133440      20.84413239       4.48333511
C       10.18880568       7.34579844       2.82687227       0.00000000     -12.98701980      11.54295728      13.05999366
C        1.59229986       1.31443817       7.21019841       0.00000000      15.16630926    -729.32511222     810.46021673
C        0.84627341      10.67103486       0.84472725       0.00000000      55.59253708     -71.69524547     -26.58377520
Sc      -4.11266532       7.43739359       9.48460244       0.00000000 12552380.07392523 -14962720.99948438 11435227.93129860
O       -4.65391053       8.31277753      10.30089567       1.00000000   69449.82715921  -75315.19135968   29914.67656312
O       -4.11398552       7.44090130       9.49083946       1.00000000 -12651649.29324181 15093597.11441170 -11411158.46061877
