52
Lattice="12.336457 0.0 0.0 -6.168228499999997 10.683685154694365 0.0 0.0 0.0 15.0" Properties=species:S:1:pos:R:3:initial_magmoms:R:1:forces:R:3 energy=-452.3054996908343 free_energy=-452.3054996908343 stress="-0.005090352006681952 0.0012997179280925992 4.76737592137524e-06 0.0012997179280925992 -0.006256905875253805 2.0688384970575965e-05 4.76737592137524e-06 2.0688384970575965e-05 3.663651915328995e-06" pbc="T T T"
C        0.05361737       0.01483221       3.75775754       0.00000000      -0.00323641      -0.00225174      -0.00052034
C       -1.18831760       2.14096762       3.64671502       0.00000000      -0.00089203      -0.00040530      -0.00554639
C       -2.42756378       4.28536857       3.64732420       0.00000000      -0.00108886      -0.00246127      -0.00814815
C       -3.64837570       6.42445428       3.76343122       0.00000000      -0.00153529      -0.00561838      -0.00480697
C       -4.89318975       8.55494021       3.85519630       0.00000000       0.00337006      -0.00067507      -0.00538260
C        2.51609760       0.01176880       3.63823197       0.00000000      -0.00134595      -0.00132387       0.00818912
C        1.27801056       2.12622128       3.40948759       0.00000000      -0.00141450      -0.00196286       0.00006065
C       -0.01601039       4.24954553       3.22541519       0.00000000       0.00466938      -0.00640775      -0.00126442
C       -1.21247311       6.42921455       3.38641462       0.00000000       0.00131181       0.00559927       0.00847336
C       -2.42025907       8.55871821       3.63432477       0.00000000       0.00202535       0.00301536      -0.00036505
C        4.98513285       0.01111093       3.65908696       0.00000000       0.00020504      -0.00448352       0.00556598
C        3.76242780       2.14488938       3.52874554       0.00000000       0.00185993       0.00163998      -0.00447236
P        2.60521135       4.36905465       2.44704795       0.00000000       0.00008890       0.00712014      -0.01285127
P        1.38220580       6.46233961       2.38711889       0.00000000       0.00139233       0.00956101       0.00619859
C        0.05134621       8.56812360       3.50654732       0.00000000       0.00456719       0.00240601      -0.00932115
C        7.44951488       0.02328868       3.73274984       0.00000000      -0.00555108       0.00727898       0.00070283
C        6.22916246       2.13748971       3.75295449       0.00000000       0.00170503       0.00202352      -0.01250466
C        5.02673864       4.26258764       3.79284126       0.00000000       0.00187731       0.00305223      -0.00094675
S        3.58797570       6.33230739       4.68994507       0.00000000      -0.00347138      -0.00470489      -0.00159126
C        2.51890836       8.60168448       3.75847966       0.00000000       0.00377622      -0.00229894      -0.00380153
C        9.92640934       0.02547674       3.82911958       0.00000000      -0.00555894      -0.00218086      -0.00815184
C        8.69048946       2.15048719       3.78226876       0.00000000       0.00691107      -0.00052141       0.00456381
C        7.46888889       4.28345913       3.84824295       0.00000000      -0.00228792      -0.00378887       0.00244544
C        6.22620351       6.41719407       4.02204290       0.00000000      -0.00835398       0.00478732       0.00358655
C        4.98392838       8.56769467       4.00988593       0.00000000      -0.00158253      -0.00307311      -0.00678805
C        0.04837151       1.42901128       3.60834015       0.00000000      -0.00399252      -0.00073713       0.00544258
C       -1.21448381       3.55650743       3.51805247       0.00000000       0.00359282      -0.00000740       0.00977057
C       -2.42811667       5.71249552       3.60355117       0.00000000       0.00136257      -0.00247040      -0.00370391
C       -3.65388760       7.84801738       3.75550949       0.00000000       0.00298893      -0.00334803      -0.00636885
C       -4.88496733       9.98200278       3.75255673       0.00000000      -0.00042034      -0.00072038       0.00664823
C        2.52058222       1.43008816       3.49597029       0.00000000      -0.00248129      -0.00179736       0.00909166
C        1.23160147       3.53436304       3.15620449       0.00000000       0.01431694      -0.00069309       0.00184798
C       -0.01851449       5.68639805       3.11809693       0.00000000      -0.00933969      -0.00159205       0.00166254
C       -1.19145272       7.85337137       3.47904204       0.00000000       0.00543273       0.00690067       0.00290687
C       -2.41962644       9.98246370       3.64896143       0.00000000      -0.00075220       0.00058986      -0.00034241
C        4.99191400       1.43118431       3.66969245       0.00000000       0.00189083      -0.00330468       0.00002665
C        3.81745223       3.56731764       3.45003496       0.00000000       0.00090548       0.00647863       0.00381795
C        1.30964432       7.89981733       3.41965823       0.00000000       0.00446777       0.00599962      -0.00251896
C        0.04997620       9.98963257       3.65341985       0.00000000      -0.00018023      -0.00184391       0.00679385
C        7.45784139       1.43742870       3.77219810       0.00000000       0.00340266       0.00786063       0.00307051
C        6.24862419       3.55767253       3.81654315       0.00000000       0.00040367      -0.00128093      -0.00149488
C        5.04563927       5.64693672       4.10769305       0.00000000      -0.00639801       0.00194144       0.00630918
C        3.72573331       7.92995707       4.08852142       0.00000000       0.00114630      -0.01090002       0.00153189
C        2.52066580      10.01298399       3.78535553       0.00000000      -0.00897325       0.00127062       0.01047020
C        9.92232344       1.44184432       3.76730682       0.00000000       0.00375460      -0.00255379      -0.00170611
C        8.69230963       3.57211370       3.77544598       0.00000000      -0.00018585      -0.00273415      -0.00312588
C        7.46529798       5.70785594       3.88519562       0.00000000      -0.00879267      -0.00160897      -0.00246224
C        6.21316559       7.84404937       4.00577776       0.00000000       0.00022145       0.00471236      -0.00141953
C        4.98991672       9.99518005       3.87014703       0.00000000      -0.00505177      -0.00295006       0.00031564
Sc       1.15861451       5.04748989       5.57945321       0.00000000       0.00380647       0.00428899       0.00297901
O        1.57959714       4.45517479       7.15990507       1.00000000       0.00119963       0.00619133      -0.01767526
O        0.81103045       5.99071335       6.99638192       1.00000000       0.00023424      -0.01201779       0.01480921
