52
Lattice="12.336457 0.0 0.0 -6.168228499999997 10.683685154694365 0.0 0.0 0.0 15.0" Properties=species:S:1:pos:R:3:forces:R:3 energy=-441.63688763776815 free_energy=-441.63688763776815 stress="-0.0052740145674370215 1.7769218685793848e-05 -1.9264814451486196e-06 1.7769218685793848e-05 -0.00941714950781767 6.514791911670886e-06 -1.9264814451486196e-06 6.514791911670886e-06 7.30674508802974e-05" pbc="T T T"
C       -0.00094938      -0.01312439       3.40650216      -0.00458431      -0.00661584       0.00537152
C       -1.23967520       2.12422726       3.50631328       0.00544495       0.00583284       0.01186060
C       -2.47343484       4.26713402       3.35322406      -0.00393773       0.00980783       0.01199936
C       -3.70195771       6.40297525       3.27924714      -0.00388874       0.00465049       0.00243233
C       -4.93864335       8.53484688       3.33757079      -0.00529043      -0.00412773      -0.00239965
C        2.46717130      -0.03027082       3.46793214       0.00237788       0.00261405      -0.00549364
C        1.21020043       1.99861346       4.02609948       0.00327869       0.00150755       0.00197362
C       -0.13313104       4.27068585       4.04412112       0.00459802      -0.00434755       0.00172347
C       -1.26580637       6.41642153       3.58465120       0.00516218      -0.00440665       0.01085188
C       -2.46426977       8.53644126       3.32163413       0.00245059      -0.00703992       0.00164517
C        4.93461854      -0.01041713       3.41496769       0.00369054      -0.00402659      -0.00095357
C        3.72233630       1.99691578       4.05543689       0.00586885      -0.00492961      -0.00405361
P        1.08878044       6.52459697       4.98505103      -0.00966745       0.00624103      -0.00561461
C       -0.01090492       8.56604380       3.60554303      -0.00018259       0.00044054      -0.00072091
C        7.39992412       0.00608949       3.36477161      -0.00194903       0.00442883      -0.00300357
C        6.17501436       2.12493929       3.54529686      -0.00881388       0.00662395      -0.00087355
C        5.07719206       4.26999712       4.11585328      -0.00453066       0.00405649      -0.00202478
P        3.83718150       6.53343530       5.02798116       0.01260505       0.00595443      -0.00790480
C        2.46728382       8.61999625       3.82344603      -0.00345422      -0.00262116      -0.00060047
C        9.87076554       0.00400939       3.36136811       0.00178099       0.01023660      -0.00325856
C        8.63469755       2.13488853       3.28704929      -0.00219773      -0.00703698      -0.00490624
C        7.40739575       4.26775407       3.38808470       0.00689879      -0.00183827       0.00357907
C        6.20369327       6.41658804       3.63919851       0.00080105      -0.00685203       0.00371702
C        4.94547914       8.56548512       3.63253365      -0.00074134      -0.00046511      -0.00184282
C       -0.01086265       1.39535532       3.61726030       0.00917059      -0.01057533       0.00139488
C       -1.26609939       3.54408761       3.59244417      -0.00141753       0.00722852       0.00575532
C       -2.47342712       5.69228900       3.35025674      -0.00179643       0.01236054       0.00853018
C       -3.70167283       7.82636340       3.28168239      -0.00010666      -0.00799260      -0.00342578
C       -4.93608556       9.95572979       3.37015094       0.00188424      -0.00895150      -0.00459960
C        2.46722140       1.33917434       3.84632449      -0.00284244       0.00239180      -0.01119967
P        1.08880192       3.44174933       4.99384293      -0.01462185      -0.00229702       0.00207533
C       -0.13241594       5.69184065       4.03822576       0.00228509      -0.00750577       0.00840833
C       -1.23969746       7.83648390       3.49745560       0.00507333      -0.00176691       0.01041774
C       -2.46638612       9.95709879       3.36801787       0.00583113      -0.00246238      -0.00089539
C        4.94514745       1.39529338       3.64799925      -0.00336067       0.00063991      -0.00346581
P        3.84053379       3.43207886       5.04175216       0.00845718      -0.01028924      -0.00981334
C        1.21128008       7.96059896       4.00684794      -0.00443112       0.00133790       0.00647342
C       -0.00197897       9.97558324       3.40260832       0.00136702      -0.00091611       0.00322150
C        7.39748710       1.42675538       3.34234212      -0.01023129      -0.00145607      -0.00272237
C        6.20436109       3.54416817       3.64823350       0.00037746       0.00365401      -0.00238792
C        5.07656257       5.69198774       4.10985944      -0.00200373      -0.00171762      -0.00432767
C        3.72171612       7.96259886       4.03392559       0.00502565       0.00070042      -0.00140835
C        2.46712376       9.99090018       3.45260629       0.00334572       0.00460842       0.00082401
C        9.87232210       1.42456289       3.32557821       0.00739121       0.01677853      -0.00397208
C        8.63396628       3.55757304       3.28421835       0.00655393      -0.00505390       0.00249371
C        7.40780696       5.69297851       3.38446967      -0.00677150      -0.00133454       0.00596354
C        6.17499408       7.83562137       3.53353228      -0.00679068      -0.00033487       0.00362538
C        4.93602712       9.97229766       3.40748854      -0.01249996       0.00622579      -0.00040677
Sc       2.43676248       4.98916340       6.69274310       0.00391606      -0.00121192      -0.01717394
O        2.46374862       4.99648553       8.49038481       0.00794925      -0.00029881       0.01634976
O        2.36377189       5.00180645       9.87691886      -0.00229160       0.00011985      -0.01467127
H        3.29105277       4.99934394      10.18934896      -0.00518188       0.00003169      -0.00656645
