51
Lattice="12.336457 0.0 0.0 -6.168228499999997 10.683685154694365 0.0 0.0 0.0 15.0" Properties=species:S:1:pos:R:3:initial_magmoms:R:1:forces:R:3 energy=-454.44360972082916 free_energy=-454.44360972082916 stress="-0.002404155679832724 -0.0009109397949743329 5.58554412205378e-05 -0.0009109397949743329 -0.006084202538975554 0.00012797976514607653 5.58554412205378e-05 0.00012797976514607653 7.419183975925135e-05" pbc="T T T"
C       -0.01823104      -0.04432160       3.48960296       0.00000000       0.05149163      -0.01633235       0.03104842
C       -1.23488230       2.11103009       3.75057109       0.00000000       0.00417673      -0.03395636      -0.00267328
C       -2.49788416       4.23990166       3.72761598       0.00000000       0.06583269       0.02877871      -0.09275229
C       -3.72191901       6.37098171       3.50856970       0.00000000      -0.00537059      -0.01074051       0.03529065
C       -4.95282197       8.49807177       3.38510952       0.00000000       0.01796582      -0.00835138      -0.04411387
C        2.45026876      -0.08559347       3.32295669       0.00000000       0.03808162       0.02224225       0.01701152
C        1.25183725       1.98733807       3.80844424       0.00000000       0.01771790       0.03959543      -0.00325730
C       -0.08134713       4.29383293       4.10680689       0.00000000      -0.07324068       0.05918983       0.01703556
C       -1.28274909       6.38742355       3.79717375       0.00000000       0.06064536       0.01151710      -0.04782211
C       -2.47087752       8.49568847       3.43263682       0.00000000      -0.01469164      -0.00679250      -0.06164783
C        4.93135729      -0.04959756       3.40895534       0.00000000       0.00607794       0.05672983      -0.00223881
C        3.66636086       2.03642683       3.54229173       0.00000000      -0.01143304      -0.00908054       0.12611864
B        1.07287185       6.51637258       4.62192846       0.00000000      -0.06017414      -0.04230056      -0.07552989
C       -0.00644189       8.52705483       3.69743122       0.00000000      -0.00789693      -0.02049630       0.03958537
C        7.39538518      -0.02472744       3.60008036       0.00000000      -0.03975712       0.02044123      -0.07739734
C        6.14527629       2.11427500       3.65724740       0.00000000      -0.01553229       0.02907786      -0.08080405
C        4.89510371       4.29761881       4.00562555       0.00000000      -0.03346454       0.00099813      -0.06581022
N        3.80389562       6.46696590       4.09642838       0.00000000      -0.00745744      -0.03901290      -0.00098970
C        2.46050883       8.52281823       3.85052573       0.00000000      -0.00210642      -0.03101404       0.00169381
C        9.86208003      -0.02624630       3.63374416       0.00000000      -0.04083225       0.02090105      -0.00517025
C        8.62115759       2.10923914       3.67953488       0.00000000      -0.02701537       0.00730004      -0.03525681
C        7.36647162       4.24358171       3.69300277       0.00000000       0.01643934      -0.03523355      -0.01569607
C        6.16556322       6.39890995       3.58552044       0.00000000      -0.04561278      -0.01918030      -0.01043029
C        4.92272437       8.51205181       3.61283235       0.00000000       0.03038092       0.03076354      -0.03733622
C       -0.01119936       1.37846822       3.66769847       0.00000000       0.03253977      -0.03306239       0.02571123
C       -1.25193569       3.53004599       3.84322599       0.00000000       0.00964340      -0.00662317       0.06560905
C       -2.50182159       5.65908415       3.64498650       0.00000000       0.04275602       0.03785080       0.07327946
C       -3.71416103       7.78881623       3.41322426       0.00000000      -0.01948580      -0.02002379       0.00402965
C       -4.96135556       9.91638891       3.36137648       0.00000000       0.06271244      -0.00537440       0.03307136
C        2.45436241       1.31594695       3.50301403       0.00000000      -0.01972568       0.01388713      -0.04806275
S        1.42174779       3.52798590       4.54479817       0.00000000      -0.05206440      -0.03918448       0.09307131
C       -0.10430278       5.68771483       4.12300503       0.00000000      -0.00809270      -0.03127134      -0.03591688
C       -1.24947502       7.80585634       3.64611184       0.00000000      -0.00727197      -0.00818303      -0.00332250
C       -2.46922626       9.91093183       3.33759811       0.00000000       0.02929583       0.01207152       0.02102941
C        4.92481203       1.37582999       3.49768525       0.00000000      -0.01652577       0.04181584       0.03492424
B        3.61315352       3.43771702       3.96000395       0.00000000       0.09204670       0.05044024       0.01460431
C        1.21630669       7.87791833       3.99189688       0.00000000      -0.01057527      -0.03823025      -0.01906464
C       -0.00340356       9.94359695       3.52288099       0.00000000      -0.02039355       0.00514004       0.06253146
C        7.38614312       1.40256181       3.62711257       0.00000000      -0.03607500       0.01729228       0.02775010
C        6.13709444       3.53855028       3.79784727       0.00000000       0.00497907      -0.00390305      -0.01777092
C        4.95711869       5.74018134       3.87062214       0.00000000      -0.03575036      -0.04610222       0.06049109
C        3.71871864       7.81565782       3.86556420       0.00000000       0.03547738       0.00143837      -0.06917830
C        2.46304104       9.94547458       3.66107511       0.00000000      -0.04781363       0.00555604       0.10219114
C        9.86796268       1.40310586       3.67490586       0.00000000      -0.03336807       0.00951984      -0.01665427
C        8.60365821       3.52924315       3.68733363       0.00000000       0.05623221       0.00470986       0.01813754
C        7.38274807       5.66552737       3.57697902       0.00000000      -0.03342116      -0.03441226       0.02623917
C        6.15118911       7.80409221       3.49877867       0.00000000       0.03152475       0.00750669       0.04041582
C        4.91899229       9.93567130       3.57015435       0.00000000      -0.01167083       0.03704102      -0.06186792
Ta       3.23651000       5.05354165       5.49937302       0.00000000       0.00432143       0.03375576      -0.11949712
O        4.23749228       4.88851108       6.94279260       1.00000000      -0.02715764      -0.05064710      -0.03849746
O        1.71002192       6.16395153       5.82040399       1.00000000       0.05363807      -0.01605162       0.11788879
