52
Lattice="12.336457 0.0 0.0 -6.168228499999997 10.683685154694365 0.0 0.0 0.0 15.0" Properties=species:S:1:pos:R:3:forces:R:3 energy=-452.1150949955763 free_energy=-452.1150949955763 stress="-0.006160635176753683 -0.003295522538604758 1.890534215486526e-07 -0.003295522538604758 -0.009014418366546397 -4.985841994828652e-05 1.890534215486526e-07 -4.985841994828652e-05 6.688260653261709e-06" pbc="T T T"
C       -0.06870328      -0.02566000       3.54709011       0.00052505       0.00448034       0.00630595
C       -1.31577563       2.11434844       3.73477681       0.00410514       0.00455391       0.00343606
C       -2.57092735       4.25512126       3.84316658      -0.00294586      -0.00052644      -0.00185195
C       -3.76589196       6.39304002       3.77586034      -0.00102673      -0.00702624       0.00459077
C       -4.98431331       8.52909900       3.60817228       0.00256282       0.00033664      -0.00563075
C        2.41394052      -0.07437148       3.43630293       0.00060571      -0.00261443      -0.00086815
C        1.18060721       2.02011565       3.58089494      -0.00001864      -0.00515927       0.00185458
C       -0.17507302       4.28182467       4.10928901      -0.00115348      -0.00509522      -0.00978660
C       -1.32454852       6.40568513       4.01246983       0.00632035       0.00078452       0.00293091
C       -2.51615569       8.51409272       3.71077256      -0.00073149      -0.00557620       0.00383546
C        4.87943908      -0.03902694       3.57811465       0.00108287      -0.00015665       0.00459042
C        3.63561265       2.02997164       3.22095426      -0.00396997       0.00894742      -0.00719765
B        1.19700295       6.38158626       4.47513467      -0.00206832      -0.00374143      -0.00888648
C       -0.05343678       8.52658423       3.94304947       0.00125031       0.00174075       0.01096448
C        7.33014787      -0.00877084       3.72872984      -0.00016985       0.00329263       0.00807891
C        6.08402551       2.13618923       3.61027932      -0.00661844       0.00590427      -0.00269213
C        4.81309475       4.33371559       3.82908785       0.01149863      -0.00891773       0.01129845
N        3.73001754       6.51690115       3.97485428      -0.00430483      -0.00948860      -0.00413773
C        2.41502862       8.54951248       3.92659662       0.00170817       0.00069380       0.00382078
C        9.79568177      -0.00758981       3.67656852       0.00352874      -0.00175499      -0.00010124
C        8.54948707       2.12573544       3.71840717       0.00021779      -0.00235348       0.00925803
C        7.30108260       4.25964347       3.77956783      -0.00319052       0.00731026       0.00390017
C        6.13627802       6.44132795       3.76429108      -0.00674756       0.00430136       0.00354331
C        4.88870817       8.55676582       3.67746915      -0.00069352      -0.00001866       0.00723936
C       -0.08018271       1.39174613       3.61603217      -0.00200452       0.00743275       0.00288998
C       -1.34629738       3.52874059       3.88085873      -0.00399566       0.00047556       0.00520367
C       -2.55012018       5.68073940       3.87792763       0.00513811      -0.00264514      -0.00815076
C       -3.75263730       7.81214699       3.69260494      -0.00087967      -0.00510748      -0.00159999
C       -4.99816138       9.93806519       3.51547054      -0.00421219       0.00331082      -0.00943111
C        2.40987300       1.32822177       3.34996595       0.00286508      -0.00032011       0.00800795
P        1.37399316       3.56505692       4.30339008      -0.00011093      -0.00061570       0.00710299
C       -0.12673686       5.68718783       4.21449872       0.00281530      -0.00573878      -0.00356451
C       -1.29166051       7.81783412       3.90856351       0.00323844      -0.00146989      -0.00956307
C       -2.51452833       9.92112485       3.55408489       0.00054190      -0.00627291      -0.00191655
C        4.86871723       1.39046084       3.44871682      -0.00145420       0.00095183      -0.01464656
P        3.46820361       3.74252437       2.74039005      -0.00108642      -0.00763714      -0.00052363
C        1.19526005       7.84171843       4.13048788       0.00112106      -0.00272922      -0.00793265
C       -0.06279651       9.94795422       3.75114034       0.00395648      -0.00095297       0.00582815
C        7.31803620       1.41835439       3.67805293      -0.00658588       0.00620929      -0.00251207
C        6.07101184       3.55237877       3.73993772      -0.00028734       0.00791485       0.00046079
C        4.91722517       5.79214756       3.91373032       0.00226471      -0.01044972       0.00981380
C        3.66966428       7.86527210       3.84861455      -0.00211072      -0.00718989      -0.00891611
C        2.40038216       9.96823242       3.76755054      -0.00020740       0.00253393       0.00539529
C        9.78988800       1.41337943       3.69589240       0.00665471      -0.00451013      -0.00044136
C        8.53713590       3.54709213       3.77069628      -0.00594633      -0.00041950       0.00036780
C        7.33900017       5.68822052       3.77127091      -0.00519396       0.00449727      -0.00869120
C        6.11992572       7.84787030       3.66947966       0.00109209       0.00301993       0.00225614
C        4.86675606       9.96834074       3.62027503       0.00518102      -0.00162597      -0.00771362
Ta       3.08241063       4.98748668       5.06740339       0.00202867       0.00245224      -0.00342905
O        3.70440941       4.97124701       6.76082049      -0.00276865       0.01475757      -0.00382767
O        4.07714477       4.94350255       8.11668330      -0.00982501       0.01112078      -0.00327980
H        5.05390989       5.00681923       8.08003534       0.01000496       0.00309119       0.00431821
