53
Lattice="12.336457 0.0 0.0 -6.168228499999997 10.683685154694365 0.0 0.0 0.0 15.0" Properties=species:S:1:pos:R:3:forces:R:3 energy=-467.24975226854616 free_energy=-467.24975226854616 stress="0.005355653154423943 -0.002813902695894292 1.876827492268824e-05 -0.002813902695894292 0.008451177912231832 -1.782209518740726e-05 1.876827492268824e-05 -1.782209518740726e-05 1.801751052535892e-05" pbc="T T T"
C        0.05563794       0.02773126       3.86658280       0.00654707      -0.00835445       0.00380052
C       -1.20132733       2.14839079       3.94157321       0.00042691       0.00232839       0.00078494
C       -2.43853245       4.29289530       3.93370451      -0.00023301       0.00458563       0.00773903
C       -3.64689076       6.44189369       3.85389445       0.00369280       0.00253520       0.00554434
C       -4.86384404       8.58558732       3.85948468      -0.00372046      -0.00063402      -0.00854728
C        2.53086422       0.04418031       3.66817353       0.00188439      -0.00311300      -0.00784626
C        1.28626355       2.15317159       3.77325393      -0.00184310       0.00406124      -0.00314824
C        0.01229008       4.27860620       4.03687834      -0.00317469      -0.00083534      -0.00367524
C       -1.18918035       6.44491614       3.77308176       0.00773633      -0.00848869      -0.00140815
C       -2.39438837       8.57712611       3.66282575      -0.01402897      -0.00650084      -0.00622705
C        4.99671612       0.03408662       3.51746426       0.00838285       0.00385725       0.00338236
C        3.73422016       2.22843500       3.47186406       0.00674994      -0.00775105       0.01149021
B        2.35284658       4.51720062       3.13259951       0.00674119       0.00061767       0.00624069
B        1.39242495       6.18772776       3.14524292      -0.00806024       0.00517272       0.00721215
C        0.09892298       8.52793421       3.46724142      -0.00599983       0.00176510       0.01268050
C        7.46096138       0.00884859       3.60741884      -0.00501921       0.00939983      -0.00054315
C        6.20721911       2.17960799       3.60521913       0.00541662       0.00030101       0.00534717
C        4.94394790       4.34943597       3.69806528      -0.00172865      -0.00341231       0.00239821
N        3.80537981       6.46717373       4.29703313      -0.00921700      -0.00891321      -0.00478465
C        2.53921615       8.51333094       3.69966828       0.00035559       0.00503745       0.00854406
C        9.91185943       0.00385450       3.83769822      -0.00699702       0.00143063       0.00717090
C        8.67030871       2.15467750       3.80967636      -0.00634648      -0.00259421       0.00009684
C        7.42887250       4.30551793       3.82803997      -0.00091724      -0.00471696       0.00099470
C        6.21783649       6.45680199       3.95475436       0.01217498       0.00634158       0.00330986
C        5.00127802       8.56347204       3.96454245       0.00654499      -0.00082751      -0.01188140
C        0.05185105       1.44943678       3.87841918       0.00027906      -0.00334289      -0.01580297
C       -1.22414702       3.56473251       4.00755441       0.00191656       0.00610907       0.00417862
C       -2.41683662       5.72782019       3.86812661       0.00493541       0.00092054       0.00117366
C       -3.62951437       7.86973526       3.79629677      -0.01265758      -0.00203195      -0.00081622
C       -4.86745457      10.01243646       3.80388345       0.00462421      -0.00882115      -0.00568039
C        2.51786550       1.48017543       3.61388352      -0.00174970      -0.00089105      -0.01052593
C        1.26525811       3.60766489       3.80558242      -0.00438821       0.00177968       0.01343708
C        0.06064718       5.69998642       3.81836093       0.00467527      -0.00538057      -0.00468013
C       -1.15725889       7.84785205       3.60808637      -0.00792652      -0.00765019       0.00495043
C       -2.40381266      10.00624987       3.59665067       0.00336716      -0.00112935      -0.00303929
C        4.97285276       1.47842342       3.50892476       0.01221475       0.00043545       0.00171432
C        3.71909308       3.68943600       3.42226676       0.00095252      -0.00885073      -0.01247751
C        1.35622517       7.78490999       3.41669636      -0.00202190       0.00459143       0.00159908
C        0.06806961       9.97524959       3.50752166       0.00212446       0.00651874       0.00046035
C        7.44314771       1.44592846       3.66773276      -0.00445491       0.00130659       0.01426313
C        6.19433880       3.60939179       3.70841016      -0.00158356      -0.00373676      -0.00739707
C        4.95706102       5.76868945       3.99670911       0.00561971       0.00149892      -0.00086891
C        3.77496659       7.81491896       4.00179218       0.00489763      -0.00364127      -0.00713837
C        2.52411739       9.96613036       3.71359193      -0.00851521       0.00712240      -0.00927451
C        9.90517303       1.43347635       3.87172315      -0.00402037       0.00344745      -0.01124532
C        8.66368966       3.58503004       3.86372339      -0.00156636      -0.00301758      -0.00185548
C        7.44188382       5.73498609       3.88488115       0.00853959      -0.00013967       0.00803706
C        6.23518454       7.87120940       3.95784672       0.00879716       0.00601990       0.00418044
C        4.98806950       9.98451830       3.89807670       0.00022787      -0.00026330       0.00270055
Ta       1.88598486       5.33770554       5.02175773      -0.00480301       0.00441751       0.00242336
O        1.31384859       4.91000122       6.70912788      -0.00251819       0.01730012      -0.00647869
O        0.90682582       4.59914991       8.01665288      -0.00947375      -0.00439154      -0.00061422
H        1.61423921       4.99873425       8.56471905       0.00314019       0.00052809       0.00010185
