52
Lattice="12.336457 0.0 0.0 -6.168228499999997 10.683685154694365 0.0 0.0 0.0 15.0" Properties=species:S:1:pos:R:3:forces:R:3 energy=-456.0993311057561 free_energy=-456.0993311057561 stress="-0.004292957181189958 0.00396259552323874 6.304558312646171e-06 0.00396259552323874 -0.0030914570179635856 -4.6682319584774984e-06 6.304558312646171e-06 -4.6682319584774984e-06 1.7408918523479715e-05" pbc="T T T"
C        0.10383450       0.02880841       3.75142898      -0.00222948       0.00267148      -0.00898569
C       -1.11100143       2.17978660       3.64584770      -0.00139991       0.00039254      -0.00651057
C       -2.35836170       4.30823273       3.73804767       0.00605183       0.00436967       0.00596445
C       -3.61698258       6.43904330       3.78819799       0.00663513      -0.00380745       0.00326770
C       -4.84947636       8.56936160       3.82894270      -0.00587784      -0.00084463       0.00034025
C        2.56885575       0.03091748       3.74707122      -0.00576021      -0.00285127      -0.00055698
C        1.36116131       2.12205882       3.43156607       0.00609606      -0.00555854       0.00132339
C        0.10169409       4.37165109       3.61213029       0.00200544       0.00379326      -0.01691747
C       -1.17354325       6.48128281       3.72055985       0.00305893      -0.00206818      -0.00551582
C       -2.38644206       8.58873838       3.75822866      -0.00223188      -0.00334734       0.00784906
C        5.03677938       0.03447426       3.74398914      -0.00224981       0.00256891       0.00097524
C        3.83881417       2.17813886       3.77912360      -0.00248163       0.00726286      -0.00413013
N        1.24633653       6.49792618       3.83483793      -0.00765350       0.00470313       0.00232414
C        0.07992300       8.58458058       3.75858753       0.00040181      -0.00571298       0.01115180
C        7.51076573       0.02324862       3.76154736       0.00046329      -0.00112568      -0.00443256
C        6.29413536       2.15093270       3.76808403      -0.00781621       0.00397328       0.00748313
C        5.06077312       4.23695081       3.93945692       0.00588400       0.00204338      -0.00264135
B        3.77072294       6.39711739       4.18642348      -0.01070012      -0.00415115      -0.00209766
C        2.54853269       8.56896003       3.89356767       0.00758374       0.00097456      -0.00244187
C        9.97698263       0.02730129       3.78605957       0.00151420      -0.00237210      -0.00438144
C        8.75597566       2.16339320       3.73877414      -0.00457674       0.00212386       0.00247647
C        7.51372953       4.29043755       3.80361696       0.00449169      -0.00073905      -0.00328601
C        6.26381557       6.41876067       3.92505948       0.00015547      -0.00079290       0.00379892
C        5.02623446       8.56897016       3.92760845      -0.00136154       0.00417072      -0.00163163
C        0.11532620       1.45652761       3.60994567       0.00128137       0.00153218      -0.00681161
C       -1.12636934       3.59503028       3.68062532       0.00262583       0.00252543      -0.00509757
C       -2.38293675       5.73673214       3.74202556       0.00861357       0.00012478       0.00776743
C       -3.61770756       7.86505960       3.79097279      -0.00333253      -0.00273889       0.00870992
C       -4.83571564       9.99900218       3.77686033      -0.00751402       0.00044776       0.00438604
C        2.58978095       1.46584953       3.66760593       0.00449087      -0.00279765      -0.00557004
S        1.33485169       3.65464636       2.49575006       0.00141800      -0.00413161      -0.00568761
C        0.05682542       5.80661126       3.72176391       0.00104598       0.00127108       0.00232278
C       -1.15676508       7.89121840       3.73922717      -0.00072202      -0.00624180       0.00675046
C       -2.37109988      10.01053708       3.75747960      -0.00417089      -0.00050287       0.00729425
C        5.05647143       1.45514958       3.75834902      -0.00725365       0.00543726      -0.01069782
N        3.87748447       3.53745542       3.96637500       0.00647140       0.00433313       0.00671684
C        1.30132934       7.86467295       3.83415886       0.00499255       0.00217923      -0.00501094
C        0.10174294      10.00292793       3.75228718      -0.00041828      -0.00444552      -0.00275221
C        7.52392400       1.44401583       3.74804706      -0.00846317       0.00276413       0.00479750
C        6.29734436       3.55486218       3.81987578       0.00328256       0.00187254       0.00925507
C        5.05480902       5.66085671       4.02131435      -0.00251762      -0.00028133       0.00088638
C        3.77653748       7.87294676       4.00953896       0.00315169      -0.00145734      -0.00494130
C        2.56779745       9.99669912       3.80998993       0.00356530      -0.00002839      -0.00366953
C        9.99208374       1.45656756       3.72163148      -0.00382446      -0.00279934       0.00979339
C        8.75057077       3.58627741       3.75444476       0.00490362       0.00338743       0.00544645
C        7.49929130       5.71632869       3.83706049       0.00620667      -0.00206512      -0.00085089
C        6.25497507       7.84945356       3.90561095      -0.00396115       0.00084007       0.00557278
C        5.03674698       9.99806731       3.82670180       0.00200810       0.00175968       0.00336412
Ta       2.18291397       4.78447214       4.45956372       0.00160226      -0.00408185      -0.00070705
O        1.68825503       4.49273499       6.15346846      -0.00449391      -0.00976312      -0.00889931
O        1.25063472       4.21412534       7.46984985       0.00195187       0.00329269      -0.00091544
H        1.89690064       4.70337570       8.02309838      -0.00094267       0.00389106      -0.00487748
