51
Lattice="12.336457 0.0 0.0 -6.168228499999997 10.683685154694365 0.0 0.0 0.0 15.0" Properties=species:S:1:pos:R:3:initial_magmoms:R:1:forces:R:3 energy=-448.5291308039545 free_energy=-448.5291308039545 stress="-0.0042842547691224675 0.00013132020632727626 -1.508604378321045e-05 0.00013132020632727626 -0.0078007566378295356 -2.0147227753411867e-06 -1.508604378321045e-05 -2.0147227753411867e-06 -9.307890389607213e-06" pbc="T T T"
C        0.04514601      -0.00983718       3.39346179       0.00000000       0.00501929      -0.00754824      -0.00551422
C       -1.18950128       2.14252961       3.30704408       0.00000000      -0.00149635      -0.00290030       0.00014463
C       -2.42241940       4.28324639       3.50168295       0.00000000      -0.00462480       0.00906302       0.00116965
C       -3.64236296       6.41986755       3.64572791       0.00000000       0.00203686      -0.00680036      -0.00146438
C       -4.87968792       8.54711608       3.61853855       0.00000000       0.00973850      -0.00673017      -0.00402934
C        2.52755463      -0.05523715       3.39210219       0.00000000      -0.00166379       0.00454393      -0.00882672
C        1.30244354       2.06860566       3.16782407       0.00000000       0.00046836      -0.00147637       0.00231378
C        0.02795338       4.34350309       3.42529362       0.00000000       0.00054790       0.01059744      -0.00197635
C       -1.20404901       6.43032945       3.77922146       0.00000000       0.00060214      -0.00265719      -0.00616765
C       -2.39991130       8.54357864       3.65078705       0.00000000       0.00497386      -0.00307729      -0.00040214
C        4.99594919      -0.00429425       3.64069324       0.00000000      -0.00131861      -0.00063446      -0.01102731
C        3.72547283       2.05121161       3.63503794       0.00000000       0.00482176       0.00757711       0.00445712
B        1.07780915       6.49853194       4.71951231       0.00000000       0.00555003      -0.01296199       0.00443532
C        0.06427052       8.57772900       3.95991559       0.00000000      -0.00588221      -0.00812166      -0.00666308
C        7.45606823       0.02639890       3.73300891       0.00000000       0.00037407       0.00302777       0.00277477
C        6.21564270       2.15505147       3.72856815       0.00000000      -0.00806882       0.00293331      -0.00934531
C        5.05527428       4.33039387       4.14872475       0.00000000      -0.00023804      -0.00231196      -0.00079522
P        3.90710255       6.53991120       5.34007004       0.00000000       0.00934402       0.00826517       0.00097825
C        2.52103397       8.61993256       4.16139265       0.00000000      -0.00208674       0.00002446       0.00296964
C        9.91934110       0.02195972       3.61592667       0.00000000       0.00349282      -0.00185150      -0.00604670
C        8.68338331       2.15219481       3.54648007       0.00000000      -0.00451881      -0.00057444      -0.01095890
C        7.45724982       4.28910279       3.70838974       0.00000000      -0.00747560      -0.00460696       0.00037821
C        6.27087164       6.45033824       3.98035230       0.00000000      -0.00288460       0.00813375      -0.01283283
C        5.00665447       8.59428231       3.93178504       0.00000000      -0.00541377       0.01254710       0.00638996
C        0.04303350       1.41435056       3.22746136       0.00000000       0.00255311      -0.00604868       0.01540570
C       -1.20422779       3.55885675       3.37814028       0.00000000      -0.00578952       0.00680471       0.00237618
C       -2.41850347       5.70778479       3.61161927       0.00000000       0.00213530       0.00322651       0.00064054
C       -3.63971776       7.83897916       3.62638765       0.00000000       0.01122425      -0.00867366       0.00600622
C       -4.88790245       9.95107280       3.43798414       0.00000000       0.00460548      -0.00614034       0.00326930
C        2.53183080       1.34980231       3.33145314       0.00000000       0.00501258       0.00713894       0.00689307
P        1.58487074       3.78423110       2.65258578       0.00000000       0.00014260      -0.00107867      -0.00757744
C        0.00589359       5.71918296       3.89340076       0.00000000       0.00403106       0.00311718       0.00163473
C       -1.17743497       7.85282060       3.82808062       0.00000000      -0.00296274      -0.01003194       0.00232986
C       -2.40062953       9.95508773       3.55658171       0.00000000      -0.00430086       0.00059032       0.00386735
C        4.99149474       1.41952846       3.67302784       0.00000000      -0.00008301      -0.00000165       0.00450634
P        3.45119966       3.64327334       4.30205833       0.00000000       0.00003884       0.00447174       0.01290968
C        1.28054297       7.92983619       4.27734150       0.00000000      -0.00582273       0.00091196       0.00558606
C        0.05899829       9.99168835       3.76946696       0.00000000      -0.00206643      -0.00336648       0.00264346
C        7.44802531       1.44865870       3.65019382       0.00000000      -0.00633308       0.00496058       0.00500356
C        6.22350634       3.57991535       3.84040341       0.00000000      -0.00555530      -0.00357965       0.00927526
C        5.10366071       5.73581584       4.33832122       0.00000000       0.00054994       0.00168765      -0.01508758
C        3.79540282       7.97099079       4.33629311       0.00000000      -0.00484097      -0.00190693      -0.00000444
C        2.52188275      10.00893903       3.81802226       0.00000000       0.00420818       0.00049611      -0.00015968
C        9.91291045       1.43608924       3.45985007       0.00000000      -0.00212372      -0.00495431      -0.00571533
C        8.68031069       3.57535164       3.55687995       0.00000000      -0.00440749       0.00110674       0.00552540
C        7.46913517       5.71392403       3.74620205       0.00000000      -0.00293780      -0.00345851      -0.00661141
C        6.23932505       7.86414593       3.85927413       0.00000000      -0.00289798       0.01314976      -0.00160973
C        4.99040569       9.99196334       3.61844009       0.00000000       0.00221153       0.00430435       0.00283738
Ta       1.17784193       4.09373380       5.17938842       0.00000000       0.00630980      -0.01556568       0.00289799
O        0.50087776       2.72790880       6.06756208       1.00000000       0.00502503       0.01629813      -0.00562606
O        1.33230181       5.89662543       5.97665138       1.00000000       0.00077648      -0.00791835       0.00882238
