51
Lattice="12.336457 0.0 0.0 -6.168228499999997 10.683685154694365 0.0 0.0 0.0 15.0" Properties=species:S:1:pos:R:3:initial_magmoms:R:1:forces:R:3 energy=-457.3005595518743 free_energy=-457.3005595518743 stress="-0.004070041116556461 -0.0023863787697076914 -3.0230405970209864e-06 -0.0023863787697076914 -0.004202331813828989 4.050768460973443e-06 -3.0230405970209864e-06 4.050768460973443e-06 1.728050230118409e-05" pbc="T T T"
C        0.01844243      -0.01037010       3.48982050       0.00000000       0.00187714       0.00364276       0.00556121
C       -1.24257408       2.11769062       3.57141694       0.00000000      -0.00334900       0.00857109       0.01686523
C       -2.47346729       4.26768925       3.48371039       0.00000000      -0.00491333      -0.00080864       0.00437940
C       -3.67540790       6.40910580       3.46460974       0.00000000      -0.00077783      -0.00212915       0.00437813
C       -4.90340452       8.54767710       3.49954101       0.00000000       0.00761822      -0.00417865       0.00907961
C        2.48839729      -0.00338029       3.63318286       0.00000000       0.00861858      -0.00873780       0.00235805
C        1.21177846       2.03978460       3.96799307       0.00000000       0.00300210       0.00330867      -0.00501677
C       -0.09694177       4.25281492       4.01613859       0.00000000      -0.00214920      -0.01086441      -0.00214310
C       -1.22290709       6.40121408       3.68626006       0.00000000      -0.00296599       0.00240500       0.00497104
C       -2.43566474       8.54305221       3.57187037       0.00000000      -0.00247332       0.00354135      -0.01192561
C        4.95143411       0.00454832       3.67424420       0.00000000       0.00147961      -0.00400188      -0.00539950
C        3.70538095       2.14536395       3.92640091       0.00000000      -0.00493597      -0.00163465       0.00738978
B        1.29156292       6.35575531       4.25370039       0.00000000       0.00871205       0.00473665      -0.00824100
C        0.03075144       8.53389410       3.77390693       0.00000000      -0.00685203       0.00261295      -0.00287966
C        7.41240410      -0.00051313       3.59598374       0.00000000       0.00099660      -0.00229787      -0.00228532
C        6.17300717       2.14068428       3.62461498       0.00000000       0.00060499      -0.00072520      -0.01001510
C        4.98788404       4.28895035       3.96092752       0.00000000      -0.00874559       0.00609502       0.00273286
B        3.96759251       6.59898933       4.65918904       0.00000000       0.00012425       0.01217002      -0.00310608
C        2.50379077       8.56647947       3.87513964       0.00000000      -0.00136834      -0.00588323       0.00149338
C        9.87854650      -0.00449243       3.49450775       0.00000000      -0.00187310       0.00702191      -0.00555126
C        8.63322241       2.13092693       3.43413778       0.00000000       0.00926063       0.00472376       0.00953334
C        7.40996805       4.27186807       3.50299966       0.00000000       0.00071084       0.00092376      -0.00130836
C        6.22108861       6.41836498       3.69359971       0.00000000      -0.00196363      -0.00042862      -0.00613617
C        4.97001665       8.57152230       3.68408829       0.00000000       0.00099872      -0.00302121       0.00305598
C       -0.00051877       1.39834316       3.64104713       0.00000000      -0.00392477       0.00564954       0.00724460
C       -1.26452692       3.54004516       3.65551981       0.00000000      -0.00842342       0.00056237      -0.00339756
C       -2.45051902       5.69295614       3.51345623       0.00000000      -0.00210661       0.00095950       0.00518577
C       -3.66728427       7.83460373       3.49346716       0.00000000       0.00476694      -0.00530666      -0.00434793
C       -4.90775540       9.97298931       3.52050108       0.00000000       0.00761707      -0.00467770      -0.00663838
C        2.46815295       1.41400684       3.85599434       0.00000000       0.00135714      -0.01096110       0.00448841
B        0.97982843       3.36356166       4.63030220       0.00000000       0.00215486      -0.00596286       0.00731701
C       -0.03280633       5.65065841       3.97257645       0.00000000      -0.00065621      -0.00727432       0.01048660
C       -1.20533826       7.82328269       3.67928658       0.00000000      -0.00807027       0.00541620      -0.00243527
C       -2.44597384       9.96987351       3.62491797       0.00000000       0.00587262      -0.00220646      -0.00405525
C        4.94088394       1.43086890       3.72975890       0.00000000      -0.00394008       0.00015977      -0.00397360
C        3.76033445       3.56374347       4.13833864       0.00000000      -0.00787062      -0.00667249       0.00426463
C        1.27106783       7.83564761       3.96178064       0.00000000      -0.00532718       0.00410488       0.00094961
C        0.01663747       9.96748972       3.67624833       0.00000000      -0.00203619      -0.00225395      -0.00864505
C        7.40371792       1.42268413       3.51740747       0.00000000       0.00747020      -0.00090107      -0.00669344
C        6.19274464       3.56014436       3.64812707       0.00000000      -0.00339374       0.00426146       0.00098909
C        5.04474522       5.70309013       4.03532954       0.00000000      -0.00374008       0.01134976      -0.00000078
C        3.75932018       7.93664775       4.01191225       0.00000000      -0.00225667      -0.01790530      -0.00463109
C        2.48324472       9.97654310       3.62012104       0.00000000       0.00233213       0.00046951       0.00456999
C        9.87017039       1.41747184       3.44484997       0.00000000       0.00589448       0.01140793       0.00511965
C        8.63611341       3.55531077       3.42411799       0.00000000       0.00345026       0.00023837       0.00306482
C        7.43179948       5.69694313       3.51247901       0.00000000      -0.00274437       0.00090429      -0.00093686
C        6.20971430       7.84636761       3.62584971       0.00000000       0.00244083       0.00142603      -0.00631093
C        4.95294042       9.97772748       3.49609182       0.00000000      -0.00236228       0.00317514       0.00694580
Ta       2.65903973       4.82041457       5.37240539       0.00000000       0.01539797      -0.00046422      -0.01057577
O        1.40997391       3.59778571       6.06619144       1.00000000      -0.00409906       0.00057100      -0.00458103
O        3.57881356       6.29395497       6.10442133       1.00000000       0.00056064      -0.00111122      -0.00119312
