53
Lattice="12.336457 0.0 0.0 -6.168228499999997 10.683685154694365 0.0 0.0 0.0 15.0" Properties=species:S:1:pos:R:3:forces:R:3 energy=-464.7695728452709 free_energy=-464.7695728452709 stress="-0.0018339165276745379 -0.005033235236071745 6.649543389128456e-05 -0.005033235236071745 0.003981290227876561 2.966301524195977e-05 6.649543389128456e-05 2.966301524195977e-05 5.321725366555228e-05" pbc="T T T"
C        0.03726307       0.01620584       3.62101614       0.00374642       0.00471900       0.00649521
C       -1.23806754       2.12008524       3.66438686      -0.00551648       0.00006199       0.00467855
C       -2.48354290       4.27583566       3.66426670       0.00781678      -0.00618794       0.00468111
C       -3.66802771       6.43228463       3.62327131       0.00689051      -0.00098715       0.00837018
C       -4.87673498       8.57929969       3.58836050      -0.00065516      -0.00085011      -0.00238373
C        2.51845833       0.03876523       3.72192696      -0.00094809      -0.01032798       0.00002223
C        1.24941814       2.12192887       3.86606238       0.00163001       0.00483158      -0.00528686
C       -0.07842311       4.22690802       3.99745221       0.00221458      -0.00021594       0.00668485
C       -1.23718836       6.42798565       3.86231716       0.00170314       0.00357886       0.00549843
C       -2.40749836       8.56897595       3.72443871      -0.00295727       0.00800456      -0.00659681
C        4.98101041       0.02437487       3.71372250       0.00014062       0.00754312      -0.00140576
C        3.72101473       2.23152998       3.77030495      -0.00003437      -0.00857529      -0.00930760
B        2.42989662       4.48391612       4.11384598      -0.00204955      -0.00669697       0.00120655
B        1.39766872       6.26910448       4.11126225      -0.00166224      -0.00076272       0.01119741
C        0.09301551       8.51327566       3.76828929      -0.00222459       0.00974397       0.00173786
C        7.43882995      -0.00689024       3.61056396      -0.00417843       0.00237846      -0.00929760
C        6.18226152       2.16927942       3.60751755       0.00597770      -0.00491955      -0.00321823
C        4.94373777       4.35783947       3.59434056      -0.00170965       0.00682070      -0.00095834
O        3.84136763       6.48980512       3.38205964      -0.01109561      -0.00610817      -0.00124235
C        2.54652217       8.50957303       3.59672188       0.00238979       0.00539792      -0.00567803
C        9.89417771      -0.00909419       3.54514298       0.00226586       0.00104872      -0.00038319
C        8.64121350       2.13846647       3.56187734      -0.00140215       0.00000877      -0.00673254
C        7.40767289       4.29774758       3.54193934      -0.00215522      -0.00621947       0.00687628
C        6.21735216       6.45357558       3.49523741       0.00626899       0.00402733       0.00433642
C        4.99806468       8.56672630       3.49335592       0.00096782      -0.00732917       0.01221003
C        0.01930590       1.42795922       3.71487710      -0.00337517       0.00718580       0.00523302
C       -1.28472522       3.53066107       3.73824311       0.00856105      -0.00077099       0.00178864
C       -2.45439716       5.71045794       3.71499394       0.00723898      -0.00578927       0.00085012
C       -3.64276738       7.86172668       3.64784915       0.00045544       0.00266798      -0.00660105
C       -4.88029529      10.00704829       3.64346410      -0.00123119      -0.00684566       0.01000409
C        2.50377626       1.47153632       3.80078502      -0.00350331      -0.01064627      -0.00694449
C        1.19255059       3.53788875       4.09663424       0.00555758       0.00222588      -0.00492807
C       -0.03952322       5.67160128       4.09223044       0.00078765       0.00266279      -0.00368950
C       -1.17401878       7.83959846       3.80006225      -0.00357267       0.00810572      -0.01074979
C       -2.41685663       9.99855271       3.72473936       0.00251672       0.00528598      -0.00515311
C        4.95330973       1.46930866       3.69349488       0.00493301      -0.00002263      -0.00199965
C        3.70629138       3.69023256       3.77846625      -0.00176931      -0.00533850      -0.00375011
C        1.34889308       7.77113772       3.77689058       0.00071060       0.00598399      -0.00114328
C        0.05010809       9.96176266       3.69390338      -0.00556329       0.00878096      -0.00273112
C        7.41485597       1.43025690       3.58090932       0.00266728      -0.00440939      -0.00938165
C        6.17167251       3.60726396       3.55929372      -0.00411806      -0.00526311       0.00914470
C        5.00290315       5.77263783       3.50516235       0.00235804       0.00833554      -0.00089594
C        3.80153533       7.85449567       3.50554170      -0.00071741      -0.00415167      -0.00109574
C        2.51038353       9.94842547       3.56403624      -0.00165458       0.00778734       0.00115203
C        9.87450423       1.41701549       3.57354939      -0.00449758       0.00144724       0.00880726
C        8.63250158       3.56725658       3.57278735       0.00230932      -0.00138475       0.00386326
C        7.43455664       5.71975093       3.54473706       0.00514778      -0.00234927       0.00026964
C        6.23547732       7.87254404       3.50604058       0.00144533       0.00028107       0.01419380
C        4.97113165       9.98770630       3.54433220       0.00533405      -0.00144183      -0.00006671
Ta       1.04796815       4.87376899       5.76876069       0.00204098      -0.00020326       0.00210119
O        0.59437192       4.54378409       7.53582172      -0.00908867       0.00135091      -0.00052270
O        0.24073189       4.29732186       8.86713118      -0.00387943      -0.00895319      -0.01544486
H        1.06440708       4.49994840       9.35539944      -0.01451658      -0.00351594      -0.00381403
