51
Lattice="12.336457 0.0 0.0 -6.168228499999997 10.683685154694365 0.0 0.0 0.0 15.0" Properties=species:S:1:pos:R:3:initial_magmoms:R:1:forces:R:3 energy=-451.8439587446134 free_energy=-451.8439587446134 stress="-0.0008753751046371037 -0.000504660189663397 -3.0402517905851812e-05 -0.000504660189663397 -0.006052847740822688 -1.3756053223692152e-05 -3.0402517905851812e-05 -1.3756053223692152e-05 2.0067090166910487e-05" pbc="T T T"
C       -0.01857463      -0.03215983       3.54973525       0.00000000       0.00151749      -0.00112952      -0.00314471
C       -1.23385886       2.12630632       3.77561709       0.00000000      -0.01312316      -0.00165816       0.00845223
C       -2.49303286       4.25280368       3.79916060       0.00000000       0.00146348       0.00037985       0.00120509
C       -3.72704938       6.38180168       3.67292954       0.00000000       0.00511416      -0.00348784      -0.00313517
C       -4.95925286       8.50342987       3.51258942       0.00000000      -0.00350133      -0.00275648       0.00181690
C        2.44611058      -0.08755267       3.35837264       0.00000000       0.00175645       0.00687897      -0.00048758
C        1.26022611       2.00461086       3.78801222       0.00000000      -0.00323629      -0.00758471       0.00103418
C       -0.06087326       4.31339596       4.12752534       0.00000000       0.00005332       0.00136080       0.00988767
C       -1.27652568       6.40150784       3.87466236       0.00000000      -0.00284557      -0.00723164       0.00155326
C       -2.47725068       8.50239466       3.50960436       0.00000000      -0.00570767      -0.00376402       0.00479938
C        4.92313402      -0.04042904       3.39341524       0.00000000      -0.00495830       0.00297316       0.01747770
C        3.65572236       2.03738340       3.46507798       0.00000000       0.00321025       0.00097071       0.00443776
B        1.11497646       6.53534566       4.58733723       0.00000000       0.00105900      -0.00617012      -0.00545994
C       -0.00817955       8.53743118       3.69260053       0.00000000       0.00104004       0.00317101      -0.00470909
C        7.38636015      -0.00555345       3.54246240       0.00000000       0.00407176       0.00780839       0.00012448
C        6.13375016       2.13430337       3.57263351       0.00000000      -0.00205718      -0.00560291       0.00199291
C        4.84698818       4.30746215       3.91133768       0.00000000      -0.00230695      -0.00432197      -0.00153672
O        3.71126963       6.45705188       3.79213749       0.00000000      -0.00377355      -0.00612344      -0.00489264
C        2.45330544       8.52926843       3.71635943       0.00000000       0.00729855       0.00542574       0.00021515
C        9.85393823      -0.00826603       3.60256994       0.00000000       0.00317747      -0.00158650      -0.00135108
C        8.61501685       2.12834668       3.65675642       0.00000000       0.00097243      -0.00391852       0.00243533
C        7.35441822       4.25408949       3.73892954       0.00000000       0.00425309      -0.00190695       0.00413696
C        6.16854602       6.41905993       3.78058933       0.00000000      -0.00199198       0.00792226      -0.00646788
C        4.91294415       8.52593205       3.59835185       0.00000000      -0.00701329       0.00535830       0.00529795
C       -0.00684016       1.39467226       3.70379349       0.00000000      -0.00733613      -0.00342542       0.00251107
C       -1.24081216       3.54539312       3.89612744       0.00000000      -0.00393960       0.00255186      -0.00311966
C       -2.49974889       5.67335649       3.76758190       0.00000000       0.00219520      -0.00241891       0.00428692
C       -3.71921156       7.79653204       3.55307555       0.00000000      -0.00191148      -0.01033998      -0.00740749
C       -4.96272755       9.92081675       3.44626306       0.00000000       0.00287636      -0.00023817      -0.00592510
C        2.44921676       1.31942666       3.47049476       0.00000000       0.00085638       0.00248291       0.00411286
S        1.50537662       3.57226738       4.46545076       0.00000000       0.00509609       0.01249414      -0.00911337
C       -0.08691790       5.70268826       4.16256606       0.00000000       0.00133161      -0.00933014       0.00148270
C       -1.25191506       7.81659952       3.70191016       0.00000000      -0.00522078      -0.00615076      -0.00497725
C       -2.47430112       9.91345671       3.37307810       0.00000000      -0.00224969       0.00265960       0.00289755
C        4.91358706       1.38819497       3.43357692       0.00000000      -0.00214842       0.00232915      -0.00338375
B        3.54583497       3.46157893       3.79629840       0.00000000      -0.00670076      -0.01465184      -0.00284271
C        1.21489163       7.87641883       3.91375555       0.00000000       0.00549880       0.00390642       0.00233281
C       -0.01246453       9.95644134       3.50427572       0.00000000      -0.00012120       0.00924894      -0.00337090
C        7.37680900       1.42368571       3.57125735       0.00000000       0.00180564       0.00112930      -0.00376090
C        6.11841661       3.55103849       3.73378921       0.00000000      -0.00306091      -0.00650476      -0.00690967
C        4.94335106       5.75093926       3.96470055       0.00000000       0.00244686       0.00981023       0.00743876
C        3.69640160       7.86037822       3.69085543       0.00000000       0.00303348      -0.00394873       0.00765201
C        2.45354678       9.96319888       3.59723987       0.00000000       0.00565739       0.00692073      -0.00343256
C        9.86413910       1.42400650       3.66595392       0.00000000      -0.00468099      -0.00708024       0.00246051
C        8.60251078       3.54573224       3.72255826       0.00000000       0.00539708      -0.00322465       0.00832890
C        7.37639627       5.67637400       3.73623423       0.00000000       0.00339341       0.00542422       0.00706514
C        6.15108404       7.81479880       3.62451764       0.00000000      -0.00979041       0.00552421      -0.00939003
C        4.91206223       9.95505958       3.57421546       0.00000000       0.00055600       0.00412584      -0.00771769
Ta       3.40533464       5.00737904       5.43901173       0.00000000       0.00652105      -0.00128653      -0.00184850
O        4.14881824       4.36292754       6.90045338       1.00000000       0.00904735       0.00536943      -0.00546621
O        1.91183442       6.20413536       5.68175554       1.00000000       0.00697546       0.00961672      -0.00558559
