51
Lattice="12.336457 0.0 0.0 -6.168228499999997 10.683685154694365 0.0 0.0 0.0 15.0" Properties=species:S:1:pos:R:3:initial_magmoms:R:1:forces:R:3 energy=-459.59012722738765 free_energy=-459.59012722738765 stress="-0.0024462452097835214 -0.0015250448508973137 -1.5751394317335432e-05 -0.0015250448508973137 -0.0008175079224761371 1.8196463816214355e-05 -1.5751394317335432e-05 1.8196463816214355e-05 -6.865683400907815e-06" pbc="T T T"
C        0.02524140       0.01902495       3.65658017       0.00000000      -0.00256440      -0.00815631      -0.00582524
C       -1.22319489       2.14093344       3.68322516       0.00000000       0.01156954       0.01692160      -0.02114671
C       -2.45709023       4.28297596       3.62460178       0.00000000      -0.00990870      -0.00455286      -0.00017465
C       -3.67205494       6.42652941       3.56422833       0.00000000       0.00088129       0.00098486       0.02005642
C       -4.90110091       8.56930801       3.58359841       0.00000000      -0.00348506      -0.00458488      -0.00616557
C        2.49961568       0.02065779       3.70065459       0.00000000       0.00745020      -0.00400684       0.01313393
C        1.24792001       2.14467101       3.93358326       0.00000000      -0.01093947       0.00601489       0.00794434
C       -0.03127271       4.27732929       4.03143422       0.00000000       0.00046158       0.00864166      -0.00976392
C       -1.22149091       6.41769998       3.83419802       0.00000000      -0.01319921      -0.00431047       0.00231263
C       -2.42762256       8.56478949       3.65701382       0.00000000       0.00064880      -0.00313112       0.02205344
C        4.96651530       0.02253855       3.63910874       0.00000000      -0.00372790      -0.00353380      -0.00824200
C        3.73439622       2.16941867       3.82349900       0.00000000      -0.00076886       0.00125690       0.00203815
B        1.18520926       6.49788286       4.52453151       0.00000000       0.00717092      -0.00892285       0.00479009
C        0.04722882       8.56383043       3.78298581       0.00000000      -0.00365098      -0.00203098      -0.00395710
C        7.43472738       0.00799109       3.58140608       0.00000000      -0.00463654      -0.00376496      -0.02013252
C        6.19089169       2.16136215       3.54803045       0.00000000       0.00645340      -0.01748227      -0.00143496
C        4.95850998       4.32664155       3.69847196       0.00000000       0.00513741      -0.00086336       0.00077616
O        3.80586787       6.47747056       3.64821131       0.00000000      -0.01138354       0.00710834       0.00421969
C        2.51415528       8.52923602       3.73381854       0.00000000       0.00028473       0.00766326      -0.00108777
C        9.89282774       0.00205124       3.58233014       0.00000000       0.00651760       0.00770969      -0.00681624
C        8.65516024       2.14786188       3.51713075       0.00000000       0.01224037       0.00722442       0.00757645
C        7.41941623       4.29543630       3.49602532       0.00000000      -0.01484548       0.00533833      -0.00165606
C        6.20073561       6.44475940       3.53551572       0.00000000       0.00001904       0.00011809       0.00114230
C        4.96887572       8.55714884       3.60063891       0.00000000       0.00575106      -0.00636926      -0.01109259
C        0.00999329       1.43133073       3.74373951       0.00000000      -0.00474570      -0.00195177      -0.00578554
C       -1.24143781       3.56230923       3.74755820       0.00000000      -0.00205186       0.00980903       0.01272551
C       -2.45112901       5.70824929       3.65758066       0.00000000      -0.00666942      -0.00810908      -0.01333808
C       -3.66379032       7.85423799       3.59437502       0.00000000      -0.00104689       0.00070469       0.00690074
C       -4.90119528       9.99556704       3.65084216       0.00000000       0.00430841      -0.00585440      -0.01222664
C        2.49534875       1.44152220       3.84030918       0.00000000      -0.00610881       0.00543848      -0.01751451
C        1.17089401       3.52632199       4.19768772       0.00000000       0.00129496       0.01000238       0.00679521
C       -0.04077143       5.69181784       4.09586953       0.00000000      -0.00821694       0.00280359      -0.01143685
C       -1.20089436       7.85114224       3.77317478       0.00000000      -0.00199346      -0.00542841       0.00062308
C       -2.43490684       9.99281997       3.66177564       0.00000000       0.00427181      -0.00598175       0.00112239
C        4.96949769       1.44324726       3.63800379       0.00000000      -0.00010035      -0.00757829       0.00151086
C        3.79565005       3.57548068       3.97230732       0.00000000       0.00482095       0.00274960      -0.00483731
C        1.27539563       7.88233854       3.93370444       0.00000000       0.00107346       0.00439652       0.00672223
C        0.03346547       9.99070912       3.64011135       0.00000000      -0.00915054      -0.00027851      -0.00305649
C        7.42518073       1.43785117       3.51845835       0.00000000       0.01490233      -0.00498748       0.02420230
C        6.18858818       3.59462838       3.53482247       0.00000000       0.00114552      -0.01480500       0.01371817
C        4.98660429       5.76244147       3.62637214       0.00000000       0.01517401       0.00215730      -0.00419033
C        3.76955404       7.85192403       3.67037491       0.00000000       0.00207796       0.01057438      -0.01479904
C        2.50176383       9.96270889       3.60652147       0.00000000       0.00066366       0.00832821      -0.00105923
C        9.88510273       1.43088253       3.57406667       0.00000000       0.01658128       0.01529567      -0.00592286
C        8.65166090       3.57342359       3.51796308       0.00000000      -0.01081924       0.00602508       0.00044764
C        7.42888708       5.71646446       3.51344766       0.00000000      -0.00095907       0.00516229       0.01729931
C        6.20791522       7.86092121       3.55853963       0.00000000      -0.00172157      -0.00678575       0.00967200
C        4.95906134       9.98582807       3.60653588       0.00000000      -0.00103512      -0.00771624       0.00517750
Ta       2.55702696       4.32509116       5.52037847       0.00000000      -0.01818976      -0.00744802      -0.01894156
O        2.53970331       3.31038406       6.94325966       1.00000000       0.02063431      -0.01714995       0.01728564
O        1.98773825       6.15004652       5.62838171       1.00000000       0.00038424       0.01335535       0.00035758
