51
Lattice="12.336457 0.0 0.0 -6.168228499999997 10.683685154694365 0.0 0.0 0.0 15.0" Properties=species:S:1:pos:R:3:initial_magmoms:R:1:forces:R:3 energy=-459.3985505924096 free_energy=-459.3985505924096 stress="-0.0034273439783067544 -0.0015943864104684701 9.731561617039804e-06 -0.0015943864104684701 0.0014506794852643245 2.122728138775253e-05 9.731561617039804e-06 2.122728138775253e-05 -1.3468229342175448e-05" pbc="T T T"
C       -0.00308538      -0.00174560       3.60507158       0.00000000      -0.00317306       0.00301959       0.00095326
C       -1.26069040       2.11266301       3.45458979       0.00000000      -0.00186227       0.00073803      -0.00502330
C       -2.48899170       4.26588998       3.45223226       0.00000000      -0.00200925      -0.00462766      -0.00713737
C       -3.69986272       6.40971358       3.56674455       0.00000000       0.00277692       0.00020175      -0.01089594
C       -4.93211655       8.55288020       3.67670714       0.00000000       0.00622728       0.01264150       0.00159251
C        2.45907949       0.02698316       3.65613517       0.00000000      -0.00050125      -0.00029307      -0.00929071
C        1.19560589       2.11131716       3.58468675       0.00000000      -0.00259463      -0.00695140       0.01296152
C       -0.07244638       4.24394640       3.49278393       0.00000000      -0.00334075       0.00135049      -0.00317358
C       -1.25002073       6.40247836       3.51809244       0.00000000       0.00805883       0.00254131       0.00779092
C       -2.47033946       8.55410186       3.60547249       0.00000000      -0.00231188      -0.00652364      -0.00841777
C        4.92885620       0.00464085       3.70177233       0.00000000      -0.00778294      -0.00900366       0.01216187
C        3.68792850       2.18259654       3.90168431       0.00000000      -0.00532781       0.00332874      -0.00459241
C        1.17553276       6.34452737       3.95861281       0.00000000      -0.00629270      -0.00382892       0.00256982
C        0.00159955       8.52141276       3.72783542       0.00000000       0.00754093       0.00547122      -0.00112877
C        7.39594034      -0.02110684       3.70050660       0.00000000      -0.00262977       0.00166333      -0.00219899
C        6.16544771       2.12667450       3.73408420       0.00000000       0.00849732       0.00277840       0.00215003
C        4.97383917       4.26759068       4.06238935       0.00000000      -0.00482559      -0.00469887      -0.00753386
B        3.85945360       6.49576974       4.67830489       0.00000000       0.00845069       0.00024209       0.01015989
C        2.47069389       8.52447970       3.94953628       0.00000000       0.00588720      -0.00449021      -0.00467465
C        9.85713858      -0.01969166       3.65900156       0.00000000      -0.00843614       0.00862163      -0.00524725
C        8.61956856       2.11978530       3.55462373       0.00000000      -0.00181595      -0.00367151       0.00699111
C        7.40409469       4.26459699       3.65544439       0.00000000       0.00959258       0.00623937      -0.01335312
C        6.20585577       6.40939857       3.87743021       0.00000000      -0.00890953      -0.00212548       0.00019196
C        4.94239498       8.56044059       3.89067161       0.00000000       0.00757298       0.00248294       0.00295189
C       -0.01836255       1.42035618       3.51141194       0.00000000      -0.00412890      -0.00420073      -0.01015170
C       -1.26711313       3.53465073       3.40205471       0.00000000      -0.00791033      -0.00273689       0.01707884
C       -2.47069135       5.69125514       3.48232033       0.00000000       0.00746269      -0.00300165       0.00327817
C       -3.69844963       7.83849529       3.60403743       0.00000000      -0.00324647       0.00048954       0.00211952
C       -4.93298416       9.98676785       3.63846521       0.00000000       0.00149982       0.00981682       0.00246536
C        2.44208075       1.46698072       3.71488043       0.00000000      -0.00070934      -0.00036245       0.00486993
O        1.13781057       3.52160621       3.50622861       0.00000000       0.00860592       0.01222490       0.00672211
C       -0.01030811       5.65943022       3.61941908       0.00000000       0.00671035      -0.00734251      -0.00085857
C       -1.23759639       7.82458833       3.60863079       0.00000000       0.00841835       0.00518037      -0.00396826
C       -2.47535837       9.98401251       3.66045942       0.00000000      -0.00657180      -0.01153504      -0.00688317
C        4.92257911       1.43065013       3.77473092       0.00000000       0.00256245      -0.00121070       0.00828144
C        3.74329563       3.55861154       4.21268686       0.00000000      -0.01452574       0.00505244       0.01210569
C        1.22992880       7.77434196       3.89828833       0.00000000       0.00485022       0.00005655      -0.01399552
C       -0.00505000       9.95228393       3.71264750       0.00000000      -0.00300351       0.00182687       0.00779959
C        7.39393069       1.40507804       3.64795088       0.00000000       0.00349554       0.00038916       0.00086480
C        6.18963665       3.54678857       3.79525547       0.00000000       0.00970331       0.00544289      -0.01117309
C        5.03279107       5.68022400       4.14360433       0.00000000      -0.01304100      -0.00751988       0.00208108
C        3.71982912       7.89846716       4.12780562       0.00000000       0.00711582      -0.00735878      -0.00567941
C        2.45940437       9.94782111       3.75607854       0.00000000      -0.00577333       0.00032026      -0.00227604
C        9.85569960       1.40588271       3.53289257       0.00000000      -0.00186781       0.00527721      -0.00588456
C        8.62501689       3.54823675       3.52676948       0.00000000      -0.00036671      -0.00747659       0.00270092
C        7.42099262       5.69186186       3.67474143       0.00000000       0.00059958       0.00546350       0.00022154
C        6.18631502       7.84417148       3.83304807       0.00000000       0.00845014       0.00306801      -0.00172600
C        4.93225293       9.97298681       3.69478817       0.00000000      -0.00458780       0.00814964       0.00996049
Ta       2.10292554       4.74455961       5.06048640       0.00000000      -0.00015874       0.00140675      -0.01179305
O        1.15329578       3.91279914       6.27735641       1.00000000      -0.00825769      -0.00844380       0.00381306
O        3.20047911       6.06994961       5.86613917       1.00000000       0.00188376      -0.00808182       0.01221978
