51
Lattice="12.336457 0.0 0.0 -6.168228499999997 10.683685154694365 0.0 0.0 0.0 15.0" Properties=species:S:1:pos:R:3:initial_magmoms:R:1:forces:R:3 energy=-457.02867628668844 free_energy=-457.02867628668844 stress="-0.002937716518327704 -0.000344408826569925 8.178048767483101e-06 -0.000344408826569925 -0.00044119093204399385 1.086718076118074e-05 8.178048767483101e-06 1.086718076118074e-05 -1.2851077702058058e-05" pbc="T T T"
C        0.01331572      -0.01431259       3.52849857       0.00000000      -0.01158053       0.00945589       0.00379703
C       -1.23180862       2.10397054       3.46085171       0.00000000       0.00157240      -0.00514449       0.00628433
C       -2.45798740       4.24388406       3.39427383       0.00000000       0.00775468      -0.00427586       0.00840340
C       -3.68388756       6.38712196       3.43430478       0.00000000       0.00309166      -0.00264612      -0.00311152
C       -4.92299469       8.52742238       3.52694605       0.00000000       0.00237009       0.02247553      -0.01683139
C        2.47145520      -0.00978626       3.60524227       0.00000000       0.01073401      -0.00690151      -0.01308170
C        1.21504579       2.13732206       3.77049565       0.00000000      -0.00369564      -0.00650532       0.00435869
C       -0.02013848       4.22463078       3.67171767       0.00000000      -0.01178058       0.00199326      -0.00724848
C       -1.22723971       6.38752655       3.46084267       0.00000000      -0.00100931       0.00389079       0.00724496
C       -2.45788496       8.52565373       3.46651027       0.00000000      -0.00114187      -0.00243552       0.00300013
C        4.94569268      -0.03698956       3.63698094       0.00000000       0.00601534       0.01408238      -0.00434401
C        3.71005388       2.01897236       4.12738065       0.00000000      -0.01445213      -0.00700869       0.02345828
N        1.15241067       6.39059292       3.94198484       0.00000000       0.00969532      -0.00902259       0.00881795
C        0.01092048       8.49645693       3.59837108       0.00000000      -0.00344208      -0.00922045      -0.00368405
C        7.40976584      -0.04280206       3.60463559       0.00000000       0.00216200      -0.00798381       0.00173038
C        6.18436100       2.10261560       3.80827429       0.00000000       0.00287461       0.00258696      -0.00035832
C        5.10679708       4.28675539       4.30479147       0.00000000       0.00620287       0.00109817      -0.00065961
B        3.87075606       6.51427400       4.60858081       0.00000000       0.01061056      -0.00838964       0.00941916
C        2.47339015       8.49140327       3.78905233       0.00000000       0.00717445       0.01270074       0.01223488
C        9.87134336      -0.03928381       3.54146099       0.00000000       0.00153981       0.02415590      -0.01282650
C        8.63870334       2.10192535       3.50065274       0.00000000       0.00465116       0.00660055       0.00758825
C        7.43256365       4.24577761       3.61047716       0.00000000      -0.00548945      -0.01266429      -0.01228891
C        6.22369794       6.39381066       3.79005762       0.00000000      -0.00554554      -0.01511091      -0.00374676
C        4.95009433       8.53713751       3.72305726       0.00000000      -0.00401740      -0.00784035       0.02028438
C        0.00943469       1.41523347       3.54931099       0.00000000      -0.00059900       0.00377814       0.01052217
C       -1.23163014       3.52334757       3.44566251       0.00000000      -0.00196800      -0.01070881      -0.00004193
C       -2.45487139       5.66949439       3.39059669       0.00000000       0.00880986      -0.00500621       0.01769550
C       -3.68905341       7.81315381       3.45505801       0.00000000      -0.00514346       0.00755528       0.00694081
C       -4.92370037       9.95687661       3.53255511       0.00000000      -0.00055613       0.02314801      -0.00609100
C        2.46146153       1.41242402       3.83100155       0.00000000      -0.00228385      -0.01186890      -0.01103931
N        1.15183179       3.51106685       3.92003089       0.00000000      -0.00862856       0.00238952       0.02451063
C       -0.02212927       5.67932754       3.68895169       0.00000000       0.00401884       0.00279278      -0.01774639
C       -1.22604672       7.80754387       3.49228632       0.00000000      -0.00439496      -0.00182988      -0.01430487
C       -2.46229436       9.95345015       3.56104472       0.00000000       0.01343924      -0.00443080      -0.00451248
C        4.95066869       1.38110012       3.84121131       0.00000000      -0.00365565       0.01805727       0.01460932
S        3.79010513       3.44900668       5.08661612       0.00000000       0.00984757      -0.00125735      -0.00577814
C        1.21853024       7.76640416       3.77612832       0.00000000       0.00845845       0.00773303       0.01163272
C        0.01315041       9.92696295       3.60370395       0.00000000      -0.00536407      -0.00905018      -0.01559322
C        7.40281877       1.39163446       3.61589640       0.00000000       0.00785086      -0.00725044      -0.01188879
C        6.22498632       3.52594392       3.88576530       0.00000000      -0.00150811      -0.00158777       0.00148399
C        5.06971561       5.68047897       4.18293184       0.00000000      -0.01311245      -0.01672044      -0.00009723
C        3.72574749       7.86744838       3.95759509       0.00000000      -0.00816873      -0.01715967       0.00170574
C        2.47015159       9.92132699       3.61739128       0.00000000       0.00694307       0.01380461      -0.01053616
C        9.87132709       1.38770342       3.46714781       0.00000000       0.00196019       0.01463241      -0.00949380
C        8.64905159       3.52652080       3.46270808       0.00000000       0.00334664       0.00203033      -0.00275155
C        7.43467930       5.67201351       3.57531613       0.00000000       0.00071074      -0.01163772       0.00579928
C        6.19363406       7.82064241       3.68095103       0.00000000       0.00520160      -0.00501712      -0.00890039
C        4.94673556       9.95553278       3.55988230       0.00000000      -0.01013141       0.00039632      -0.00834803
Ta       1.77065490       4.97151021       5.31916501       0.00000000      -0.02346029       0.01884257      -0.02940429
O        0.68496459       4.76530563       6.67992543       1.00000000       0.00711519      -0.00779839       0.00021173
O        3.16873974       6.19695158       5.78834015       1.00000000      -0.00302201       0.00227282       0.02297510
