51
Lattice="12.336457 0.0 0.0 -6.168228499999997 10.683685154694365 0.0 0.0 0.0 15.0" Properties=species:S:1:pos:R:3:initial_magmoms:R:1:forces:R:3 energy=-457.0723926983381 free_energy=-457.0723926983381 stress="-0.0030762242315379665 0.0030386103699588237 1.6082169820255415e-05 0.0030386103699588237 -0.00042767848902683175 2.469510852231827e-05 1.6082169820255415e-05 2.469510852231827e-05 -2.153755377999242e-06" pbc="T T T"
C        0.04699509       0.01269740       3.68061711       0.00000000      -0.00066428       0.00160581      -0.00192197
C       -1.17487808       2.15127773       3.48218047       0.00000000       0.00111852       0.00057119       0.00042763
C       -2.43380591       4.28270029       3.57143299       0.00000000       0.00012614       0.00066683      -0.00135897
C       -3.68053751       6.41601600       3.72104587       0.00000000      -0.00133853       0.00118063      -0.00299679
C       -4.90910533       8.54987582       3.81857245       0.00000000       0.00049845      -0.00138950      -0.00269159
C        2.51089894       0.00986202       3.77590434       0.00000000      -0.00152226      -0.00183582      -0.00305244
C        1.31946927       2.09432364       3.36586125       0.00000000       0.00026103       0.00522603       0.00483362
C       -0.00350007       4.35282655       3.31533163       0.00000000      -0.00113978       0.00426354      -0.00307130
C       -1.24378970       6.45795331       3.57929398       0.00000000       0.00020134       0.00132613       0.00235299
C       -2.44470299       8.56310358       3.76579932       0.00000000       0.00033702       0.00004106      -0.00474653
C        4.97939851       0.00499255       3.80408155       0.00000000       0.00048629      -0.00294530      -0.00213783
C        3.77409092       2.16370151       3.87176359       0.00000000      -0.00120907       0.00275964       0.00162990
N        1.17941703       6.41408130       3.77191349       0.00000000       0.00242868      -0.00656312       0.00100300
C        0.03212483       8.53767130       3.76822782       0.00000000      -0.00092580       0.00074077      -0.00054750
C        7.45079370      -0.01111924       3.75880360       0.00000000       0.00153956       0.00049076       0.00126748
C        6.22817179       2.12668545       3.80473042       0.00000000       0.00267421       0.00073918       0.00027969
C        4.99010681       4.22892539       4.01404824       0.00000000      -0.00723381       0.00639679       0.00888941
B        3.80905362       6.44188754       4.52291543       0.00000000       0.03721308       0.01252752      -0.01409548
C        2.50061971       8.52336308       3.90218208       0.00000000      -0.00237673      -0.00267757       0.00030404
C        9.91425638       0.00012329       3.71045833       0.00000000      -0.00038970       0.00390620      -0.00003545
C        8.68903371       2.13447077       3.65831938       0.00000000       0.00000556       0.00070317      -0.00303484
C        7.44384319       4.26477687       3.75592789       0.00000000       0.00009516       0.00276468      -0.00123622
C        6.20619400       6.39357038       3.92274992       0.00000000       0.00075364       0.00433217       0.00103753
C        4.96798874       8.55999491       3.92133112       0.00000000       0.00239387      -0.00143947       0.00137686
C        0.06025397       1.43606575       3.49423523       0.00000000      -0.00065082       0.00065148       0.00273835
C       -1.19930550       3.57366396       3.44761394       0.00000000      -0.00262975      -0.00177823       0.00169958
C       -2.45223841       5.71216009       3.61024413       0.00000000      -0.00172101       0.00164618      -0.00260057
C       -3.67674149       7.84181225       3.77211107       0.00000000       0.00154175      -0.00010100      -0.00601311
C       -4.89505583       9.98129266       3.76273776       0.00000000      -0.00218276      -0.00115692      -0.00409533
C        2.53198753       1.44270210       3.70226507       0.00000000       0.00231031       0.00155215       0.00358961
S        1.40103029       3.64773547       2.46035687       0.00000000       0.00350511       0.00166136       0.00734634
C       -0.01595513       5.77944706       3.50451902       0.00000000       0.00194163       0.00275550       0.00054026
C       -1.21636831       7.86057750       3.70777623       0.00000000       0.00141557       0.00222548      -0.00113548
C       -2.42905263       9.98492075       3.80637502       0.00000000      -0.00102522      -0.00152850      -0.00427092
C        4.99228721       1.43109453       3.83352684       0.00000000       0.00088800      -0.00204469       0.00123232
N        3.79791643       3.52064073       4.11393760       0.00000000      -0.00420296       0.00540356      -0.00131023
C        1.24631806       7.79406450       3.83817990       0.00000000       0.00052312       0.00355804       0.00226895
C        0.04515508       9.96441965       3.78557729       0.00000000       0.00151509      -0.00088865      -0.00179177
C        7.45852759       1.41507015       3.73568696       0.00000000      -0.00102826       0.00031627      -0.00178384
C        6.22454003       3.53605584       3.84031817       0.00000000       0.00517076       0.00014917       0.00420465
C        5.01592415       5.64722974       4.07738009       0.00000000      -0.00799284      -0.00238214       0.00458420
C        3.73605725       7.88030160       4.06535778       0.00000000      -0.00450935      -0.01009787       0.00658607
C        2.50951195       9.95727296       3.77691010       0.00000000      -0.00185318       0.00290808       0.00078505
C        9.92772268       1.42998758       3.60692645       0.00000000       0.00032031       0.00189049      -0.00120266
C        8.67993713       3.55819559       3.65390106       0.00000000       0.00022512       0.00086125      -0.00399582
C        7.43938883       5.68922523       3.78539588       0.00000000      -0.00270985      -0.00016132       0.00434516
C        6.19999744       7.83391318       3.90654736       0.00000000       0.00187382      -0.00009128      -0.00044689
C        4.97906736       9.98551468       3.76148134       0.00000000      -0.00029266       0.00220334      -0.00128395
Ta       1.97112572       4.63161197       4.70614177       0.00000000       0.00321094      -0.01720161      -0.01565310
O        1.08014276       3.81084955       5.96785267       1.00000000      -0.00867270       0.02826829      -0.02412056
O        3.03075275       5.95678528       5.60890009       1.00000000      -0.01830275      -0.05200977       0.04730849
