51
Lattice="12.336457 0.0 0.0 -6.168228499999997 10.683685154694365 0.0 0.0 0.0 15.0" Properties=species:S:1:pos:R:3:initial_magmoms:R:1:forces:R:3 energy=-456.5755879165137 free_energy=-456.5755879165137 stress="-0.005270531635184037 0.0012368783267076157 -0.0005066678307711176 0.0012368783267076157 -0.0029694811116684743 -0.00029194455641161495 -0.0005066678307711176 -0.00029194455641161495 0.00018030667940909108" pbc="T T T"
C        0.01249958       0.01686440       3.86893801       0.00000000       0.01062197      -0.02317105      -0.11573740
C       -1.22367782       2.15549662       3.83950302       0.00000000       0.00571259      -0.01933382      -0.02012026
C       -2.44952763       4.28975409       3.54886130       0.00000000      -0.06909359       0.06223760      -0.00773678
C       -3.69562594       6.42638208       3.38733210       0.00000000       0.11009453       0.03366263       0.08821553
C       -4.94745982       8.56778413       3.52394910       0.00000000      -0.04134969       0.00054835       0.05936734
C        2.47330057       0.04628229       3.70426795       0.00000000      -0.05439718      -0.00440628       0.02829985
C        1.22296772       2.16690525       3.99260114       0.00000000       0.03044230      -0.04539976      -0.09646071
C       -0.03242253       4.27813931       3.81391928       0.00000000       0.01943625       0.08920047      -0.05750731
C       -1.22447724       6.42257551       3.54032637       0.00000000      -0.00520254       0.08722151       0.10540763
C       -2.46976513       8.57493061       3.48675124       0.00000000       0.07853009       0.02613780      -0.03470272
C        4.93454367       0.03734428       3.58835063       0.00000000       0.05293161      -0.03419882       0.12782757
C        3.74991856       2.17191006       3.91163685       0.00000000      -0.00046388      -0.02264541       0.02215995
B        1.14755144       6.48580119       4.32217726       0.00000000      -0.31660908       0.07911594       0.07711714
C        0.00257925       8.58574985       3.68252671       0.00000000       0.02891280      -0.02928551       0.04009835
C        7.40996156       0.03385913       3.77458914       0.00000000      -0.10170184       0.03614558       0.01965677
C        6.19109672       2.14923188       3.66866155       0.00000000       0.07216094      -0.12267751       0.02901234
C        5.02214853       4.24779024       3.80955753       0.00000000       0.10770160      -0.33309672      -0.09416142
S        3.47870614       6.27955324       3.16925847       0.00000000      -0.47832032      -0.22296298      -0.05693725
C        2.46029007       8.60523214       3.91850080       0.00000000      -0.37578640      -0.01613703      -0.14100165
C        9.89108702       0.02479751       3.92491660       0.00000000      -0.17082148       0.14377957      -0.04294971
C        8.65558212       2.16602593       3.75226912       0.00000000       0.04745517      -0.20458155      -0.09927602
C        7.43440715       4.28280685       3.51480385       0.00000000       0.01695432       0.14298611       0.06552311
C        6.17250713       6.41576595       3.45125484       0.00000000       0.14702731       0.10511762       0.05131231
C        4.92100964       8.55444431       3.69868777       0.00000000       0.25272361      -0.06987444       0.04250100
C        0.00872526       1.44762762       3.92230875       0.00000000      -0.07482050      -0.09607667      -0.07713290
C       -1.23388650       3.56410389       3.68081614       0.00000000      -0.05261083      -0.03157064       0.01993962
C       -2.45942022       5.71196808       3.44745283       0.00000000      -0.02625679      -0.01368874      -0.03746330
C       -3.70719919       7.85558476       3.43437563       0.00000000       0.05516421       0.09066373       0.02121845
C       -4.92896581       9.99987597       3.71199378       0.00000000       0.05501643      -0.05773907      -0.10414544
C        2.48171410       1.48247133       3.90935757       0.00000000       0.03981562       0.02669596      -0.04983259
N        1.14130431       3.56384412       4.04049425       0.00000000      -0.05077130       0.06703374       0.00758335
C       -0.02652635       5.69383457       3.78471994       0.00000000      -0.14381022      -0.17252212      -0.03663721
C       -1.23568885       7.86205428       3.54600768       0.00000000      -0.05799423      -0.01903080       0.04401688
C       -2.47054421      10.01309225       3.55449762       0.00000000      -0.05995094      -0.07427742       0.14432118
C        4.94999671       1.45795282       3.68038964       0.00000000       0.06850333      -0.06530035       0.00396668
N        3.88602042       3.53481344       4.15535320       0.00000000      -0.27132600       0.06118027      -0.11187061
C        1.22494616       7.92781417       3.87813805       0.00000000       0.00351956      -0.01428323       0.16039887
C        0.00097013      10.01635347       3.66214559       0.00000000       0.11639467       0.11343250      -0.07536970
C        7.41962343       1.45115612       3.71191545       0.00000000       0.06836029      -0.04376475       0.09247215
C        6.22426898       3.55618249       3.65215042       0.00000000       0.09769954      -0.07030593      -0.05517238
C        5.00380077       5.62794456       3.54773850       0.00000000       0.02005719       0.10094617       0.08991605
C        3.67099144       7.90056934       3.73746068       0.00000000       0.25486475       0.13513885      -0.12351394
C        2.47884199      10.02249138       3.91232163       0.00000000      -0.08283079       0.09503407      -0.08044240
C        9.88547426       1.45144410       3.86666802       0.00000000      -0.02506416      -0.02622818      -0.09261722
C        8.66315096       3.57779687       3.60078634       0.00000000      -0.09120882      -0.05464035      -0.09172919
C        7.41273048       5.70479064       3.41744554       0.00000000       0.22803165       0.07413077       0.06610024
C        6.15082370       7.84666361       3.50420184       0.00000000       0.00035230      -0.02510314       0.15950429
C        4.94379343       9.98312150       3.86827326       0.00000000       0.02131246       0.13991596      -0.05910248
Ta       2.39767496       4.31147983       5.40439870       0.00000000       0.00884033       0.08881350       0.53976271
O        2.01344375       3.32560645       6.80675606       1.00000000       0.27692682       0.10646597      -0.27970172
O        1.72806372       6.08020043       5.57307746       1.00000000       0.25482635       0.00669759      -0.06437708
