52
Lattice="12.336457 0.0 0.0 -6.168228499999997 10.683685154694365 0.0 0.0 0.0 15.0" Properties=species:S:1:pos:R:3:forces:R:3 energy=-457.7649868874808 free_energy=-457.7649868874808 stress="0.0008835751554985705 0.002355290852001122 -1.9615396995016485e-05 0.002355290852001122 -0.0042979914510357375 7.004881251371634e-06 -1.9615396995016485e-05 7.004881251371634e-06 -3.388346322776734e-06" pbc="T T T"
C       -0.00348055      -0.01574762       3.72742717       0.00606902       0.00226812      -0.00035593
C       -1.21029092       2.14637440       3.87733861       0.00586942       0.01157874       0.00271298
C       -2.43705292       4.27327516       3.87553615      -0.00184783      -0.00394131       0.00441400
C       -3.69692959       6.39460875       3.72976716      -0.00641367      -0.00578364       0.00189127
C       -4.94991279       8.51895139       3.61544041      -0.00002563      -0.00595307       0.00564030
C        2.46091869      -0.05547100       3.77273453      -0.00645948      -0.00070417      -0.01042145
C        1.25887451       2.08970976       3.94764955       0.00051506       0.00121013      -0.00346691
C        0.06848671       4.31341756       4.02078306       0.00037604       0.00098120       0.01753038
C       -1.23281811       6.42257331       3.84498514      -0.00047281      -0.00123722       0.00233120
C       -2.47455617       8.52799625       3.74418620       0.00199862      -0.00205621      -0.00104680
C        4.93081899      -0.01181140       3.84405007      -0.00594604      -0.00912692       0.00378666
C        3.68160736       2.07214914       3.96923377       0.00104223      -0.00142885       0.00346529
N        1.15362450       6.49687049       4.16586990      -0.00945368       0.00195205      -0.00421921
C       -0.01707932       8.55216253       3.83403950       0.00126783      -0.00170583      -0.00228643
C        7.40249279       0.00849011       3.86360785      -0.00654683      -0.00349713       0.00248444
C        6.17095916       2.13481685       3.95151552       0.00058038       0.00643109      -0.00001613
C        4.90601673       4.27149016       3.91681733       0.00478332       0.00785505      -0.00345184
P        3.50202353       6.22778351       2.74475796       0.00721858      -0.00825826       0.00439251
C        2.44585790       8.55560234       3.69418846       0.00138350      -0.00169474       0.01456964
C        9.87286331       0.00800500       3.76162738       0.00692613       0.00497368       0.00167997
C        8.64835125       2.14193198       3.89579334      -0.00016405      -0.00505941       0.00578574
C        7.40498659       4.26313389       3.85729768       0.00731094       0.00189350      -0.00929865
C        6.18638951       6.39176628       3.54230218      -0.00937628       0.00428668      -0.00076658
C        4.91893353       8.54135072       3.49453889       0.00124824       0.00162099      -0.00737520
C        0.01279916       1.41670584       3.84939610       0.00260945       0.00420298       0.00312836
C       -1.17850304       3.57811770       3.92519276       0.00010433       0.00625770      -0.00060181
C       -2.45452820       5.69327572       3.81647864      -0.00238349      -0.00363650       0.00734599
C       -3.70908977       7.81430955       3.68458132       0.00129893      -0.00547725      -0.01080031
C       -4.94712758       9.93793608       3.69299726      -0.00037702      -0.00397424      -0.00335476
C        2.46612409       1.35049073       3.89038204      -0.00211508       0.00080035      -0.00440229
B        1.44648720       3.59010041       4.14256830      -0.00336506       0.00616498       0.00035568
C        0.00440173       5.74513960       3.99867531      -0.00269599       0.00106476       0.00980374
C       -1.24112066       7.83299011       3.80746825       0.00442447      -0.00094439       0.00679552
C       -2.46661145       9.94476843       3.77577490      -0.00860231      -0.00289764      -0.00159129
C        4.93235021       1.41090982       3.92287893       0.00194950      -0.00546776       0.00368201
B        3.51815953       3.56188384       4.15178468      -0.00073406       0.00683992       0.00995285
C        1.20158392       7.84344640       3.88424150      -0.00351044      -0.00441762      -0.00241131
C       -0.00388036       9.97461265       3.84217512      -0.00508211      -0.00606972      -0.00458509
C        7.40718758       1.43118039       3.91079087      -0.00545662      -0.00177283       0.00428545
C        6.16091735       3.55405346       3.93944017       0.00654851       0.01025006      -0.00494776
C        4.98133558       5.62768710       3.50666632      -0.00774701       0.00918491      -0.00475871
C        3.65872017       7.87985232       3.39533957       0.00057234       0.00598906      -0.00535542
C        2.46264500       9.98386309       3.78389007      -0.00012091       0.00175414       0.00186046
C        9.88639138       1.43449191       3.84813601       0.00773628       0.00754280      -0.00056056
C        8.65295096       3.56433432       3.88792371       0.00277457      -0.00759585      -0.01259672
C        7.41030249       5.68253385       3.71598859      -0.00892875       0.00055804      -0.00541534
C        6.15542884       7.81331240       3.50980347      -0.00149145      -0.00177109      -0.00784547
C        4.93077351       9.96670083       3.65943124       0.00797035       0.00268716      -0.00704979
Ta       2.66949948       5.38197263       5.23130803       0.00573828      -0.01003206      -0.00213938
O        3.78961216       6.48121013       6.03638633      -0.00300631       0.00146101       0.00146612
O        1.68983984       4.54027183       6.63400171       0.00733071      -0.00534890       0.01473773
H        1.14097634       4.31126171       7.39329259       0.00667587       0.00004350      -0.01297714
