52
Lattice="12.336457 0.0 0.0 -6.168228499999997 10.683685154694365 0.0 0.0 0.0 15.0" Properties=species:S:1:pos:R:3:forces:R:3 energy=-450.57697623308854 free_energy=-450.57697623308854 stress="-0.0035083229944277666 -0.0020289698870199577 -6.5251557256746076e-06 -0.0020289698870199577 -0.005579694425053941 2.464620337529974e-06 -6.5251557256746076e-06 2.464620337529974e-06 6.396903938182406e-06" pbc="T T T"
C       -0.02882706      -0.06745659       3.56981713       0.00281629      -0.00264165       0.00091221
C       -1.26987976       2.06687469       3.82543912       0.00643223       0.00565825       0.00261267
C       -2.52279908       4.20630979       3.74791671      -0.00814350       0.00240765       0.00199475
C       -3.73179127       6.34025993       3.57742351       0.00989467       0.00004607       0.00775372
C       -4.95758884       8.47276636       3.45224106      -0.00228764       0.00376874       0.00325079
C        2.43780804      -0.10652929       3.56356809       0.00861975       0.00696915      -0.00116326
C        1.21000441       1.95103891       4.08294866       0.00149656       0.00645085      -0.00525244
C       -0.14483298       4.23781898       4.23985886      -0.00174918      -0.00822304      -0.00115507
C       -1.28210390       6.34920969       3.79319038       0.00115581      -0.00554368      -0.00031718
C       -2.48225239       8.46547177       3.52875096      -0.00370268       0.00068564      -0.01114175
C        4.91379984      -0.08117918       3.56546796       0.00371681       0.00133028      -0.00111963
C        3.65235894       1.99741884       3.85080572      -0.00061578      -0.00439501      -0.00372801
B        1.19274585       6.37730683       4.27740198       0.00070839       0.00466654       0.00966461
C       -0.01357624       8.47315999       3.66494388       0.00048521       0.00267517       0.00225369
C        7.37331887      -0.05545373       3.56111336       0.00426401      -0.00655548       0.00515643
C        6.12150499       2.09006963       3.68919807       0.00435722      -0.00343834      -0.00469948
C        4.88180347       4.27987558       3.97485662      -0.01151416      -0.00720823      -0.00366506
O        3.72922528       6.41154471       3.56173248      -0.00374092       0.00404122      -0.01880674
C        2.46112656       8.48423709       3.58635945      -0.00004942      -0.00643378      -0.00560224
C        9.84140422      -0.05548203       3.53658819      -0.01008636       0.00146230      -0.00382494
C        8.59466319       2.07969036       3.63738026       0.00117930       0.01052200       0.00397135
C        7.34549279       4.21764777       3.67939847      -0.00252347       0.00466388       0.01349988
C        6.15709658       6.37975826       3.63323172       0.00226538      -0.00350385       0.00654613
C        4.91978796       8.49565617       3.42318495      -0.00831662       0.00206255       0.00512979
C       -0.03648063       1.34282393       3.82140784       0.00095032       0.00269477      -0.00044033
C       -1.30017715       3.48048705       3.93101280      -0.00748199       0.00207671       0.00812700
C       -2.50817974       5.62984675       3.69164824       0.00230317      -0.00441635       0.00342461
C       -3.72001037       7.76019618       3.50309686      -0.00338442       0.00215657      -0.01036940
C       -4.96559790       9.89329998       3.49870461       0.00769589       0.00506415      -0.00308919
C        2.42903346       1.29003912       3.80984675       0.00014686       0.00637794      -0.00011373
S        1.25483870       3.47924608       4.87446903      -0.00714673      -0.00216438      -0.00341772
C       -0.08325081       5.63123176       4.10934323       0.00114061      -0.00501242       0.00786096
C       -1.25005086       7.76013524       3.65834502      -0.00254262      -0.00330651      -0.00253776
C       -2.48536944       9.88260091       3.51972271       0.00462537      -0.00006947       0.00437898
C        4.90417599       1.34180033       3.67921782       0.00177798      -0.00324718      -0.00455537
B        3.64883962       3.41266041       4.16167344       0.00458661      -0.01066302       0.01421539
C        1.23213430       7.78788150       3.80346856       0.00104550      -0.00083043      -0.00525002
C       -0.02196060       9.90088281       3.56873116       0.00263502       0.00287014      -0.00173906
C        7.35914396       1.37309693       3.60695837       0.00843133      -0.00164510      -0.00688788
C        6.11737354       3.51702541       3.77080020      -0.00565894      -0.00089731      -0.00618217
C        4.94286938       5.70713795       3.86939472      -0.00798904      -0.00060986      -0.00842614
C        3.70001021       7.82821084       3.49861286      -0.00376884      -0.00255538      -0.00950682
C        2.44529342       9.91980259       3.53022218      -0.00411979      -0.01043597      -0.00118490
C        9.84049811       1.37130245       3.64637820      -0.00025033       0.00265653       0.00658042
C        8.58249114       3.50034587       3.66973601      -0.00797165       0.00944490       0.01103550
C        7.36899572       5.63768310       3.62689357       0.01464794       0.00235603       0.00317557
C        6.15309908       7.78085384       3.47317557      -0.00446759      -0.00166562      -0.00304019
C        4.90589537       9.91872125       3.48269358      -0.00295058       0.00154209       0.00577567
Ta       2.98146770       5.22559340       5.17039409       0.01073165      -0.00559792       0.01464579
O        3.25779360       5.51361980       6.91339801       0.00221281       0.01048318      -0.01593423
O        3.44323526       5.74778847       8.28520940      -0.00256354      -0.00910817      -0.00131565
H        4.16723838       6.40758236       8.29572211       0.00270309       0.00503483       0.00250049
