52
Lattice="12.336457 0.0 0.0 -6.168228499999997 10.683685154694365 0.0 0.0 0.0 15.0" Properties=species:S:1:pos:R:3:forces:R:3 energy=-455.6612980737941 free_energy=-455.6612980737941 stress="-0.007843098151492997 -0.0013403622316995665 -3.068464931857133e-05 -0.0013403622316995665 -0.005705672842186504 -2.2664150046580472e-05 -3.068464931857133e-05 -2.2664150046580472e-05 -6.574417395486084e-06" pbc="T T T"
C       -0.05004834       0.00007855       3.79122728      -0.00656116      -0.00010155      -0.00710884
C       -1.28881307       2.14147828       3.82119295       0.00227279       0.00019295      -0.00065144
C       -2.49107519       4.28412597       3.83397655       0.00799129      -0.00043740       0.00231600
C       -3.71077588       6.42471109       3.80226403       0.00688510       0.00145159       0.01018348
C       -4.96671794       8.56049089       3.81705637       0.00069407       0.00177511       0.00815420
C        2.41757283       0.00630815       3.73550730       0.00172941      -0.00718931       0.00680208
C        1.14820060       2.12002087       3.73845688       0.00350869       0.00326288      -0.00645842
C       -0.05010229       4.26128125       4.04800140      -0.00751225       0.00180116      -0.00649843
C       -1.26417553       6.42661578       3.94579501      -0.00165569      -0.00107609       0.00016293
C       -2.50322437       8.56028172       3.82088604      -0.00237662       0.00256994      -0.00181278
C        4.88527674       0.01843022       3.67097471       0.00228437       0.00065384       0.00010695
C        3.62645816       2.09697691       3.40481402       0.00169281       0.00426624       0.00291552
N        1.12601311       6.48900568       4.10377326      -0.00250177      -0.00205768       0.00623990
C       -0.05813792       8.56559244       3.86016295      -0.00679863      -0.00484117       0.00394097
C        7.34936624       0.01337512       3.71612158       0.00217685       0.00200803       0.01543096
C        6.12939033       2.14892023       3.48881729      -0.01295406      -0.00335092      -0.00181879
C        5.01497617       4.33814337       3.35956377      -0.00980208      -0.00550763      -0.00520389
B        3.72974539       6.42630944       4.03377822       0.00636231      -0.00498398       0.00032652
C        2.40028848       8.56269044       3.90134726       0.00659859       0.00309117       0.00693239
C        9.81627121       0.00566468       3.79013987       0.00261869       0.00406824       0.00294807
C        8.59189516       2.14649284       3.69607463      -0.00041741       0.00119704      -0.00115539
C        7.40543120       4.28814198       3.62753924      -0.00932980      -0.00477338       0.00748996
C        6.18952055       6.43747566       3.76158401      -0.00285447       0.00118661       0.00734436
C        4.90117303       8.56283253       3.85969070       0.00201142       0.00205044       0.01506482
C       -0.06767059       1.42160028       3.78180249       0.00055772       0.00253089      -0.01413513
C       -1.27670477       3.55963168       3.90060154       0.00279481      -0.00314631       0.00188230
C       -2.48392490       5.70749896       3.86192926       0.00587734      -0.00226164      -0.00351242
C       -3.73037398       7.84838574       3.81977437       0.00119409       0.00511452       0.00143480
C       -4.97922909       9.98028943       3.79375831      -0.00708677       0.00060074       0.00070814
C        2.40097075       1.43438681       3.63886759       0.00633081      -0.00364462       0.00081490
N        1.10700178       3.47244397       3.94741427      -0.00577447       0.00600858      -0.00578263
C       -0.04191339       5.71746963       4.07737298      -0.00635383      -0.00479591      -0.00500464
C       -1.27455122       7.84850315       3.88105824      -0.00996337      -0.00400680      -0.00740234
C       -2.51148385       9.98773542       3.74477154       0.00404104      -0.00197549      -0.00695445
C        4.88376073       1.44392412       3.50644651      -0.00340670      -0.00395368      -0.00681528
S        3.53634929       3.71409371       2.75442173       0.00620526       0.00511866       0.00398577
C        1.16147402       7.85461200       3.94829035       0.00027902      -0.00341034      -0.00871633
C       -0.04999052       9.98771127       3.74554420       0.00133342      -0.00191151      -0.00182843
C        7.35219596       1.43796969       3.62418733      -0.00649295       0.00292155       0.00043817
C        6.18388405       3.56405461       3.45468681      -0.01648886      -0.00668133      -0.00525448
C        4.98122759       5.69665594       3.70859332      -0.00167742      -0.00337511      -0.01045123
C        3.64822517       7.88443253       3.93232543       0.00584538      -0.00138682       0.00379339
C        2.40737367       9.98642500       3.80058779       0.00608257       0.00558336      -0.00325276
C        9.81877825       1.43039740       3.76878693       0.00245960      -0.00039202      -0.00280555
C        8.61804478       3.56951375       3.71331457       0.00214588       0.00290062      -0.00407994
C        7.40808240       5.71348297       3.72033642       0.00400682       0.00158885       0.00256773
C        6.14259068       7.85252786       3.83295069       0.00060088       0.00302268      -0.00077560
C        4.88698670       9.97997706       3.81815066      -0.00223979      -0.00195635      -0.00490662
Ta       2.23155360       4.91981315       4.65330829       0.01105323       0.00049493       0.00929997
O        2.57027215       4.65717668       6.38830068       0.00915427       0.00011941       0.00000981
O        2.79910796       4.40451631       7.75889745       0.00388822       0.00973800      -0.00896944
H        3.63175424       4.89177315       7.93245569       0.00157137       0.00189898       0.01006114
