51
Lattice="12.336457 0.0 0.0 -6.168228499999997 10.683685154694365 0.0 0.0 0.0 15.0" Properties=species:S:1:pos:R:3:initial_magmoms:R:1:forces:R:3 energy=-451.76829637242275 free_energy=-451.76829637242275 stress="0.009462229122099599 -0.0014124819138016378 0.0013537056024626936 -0.0014124819138016378 0.0005802681434557377 0.00012123844188802599 0.0013537056024626936 0.00012123844188802599 0.000949472528747842" pbc="T T T"
C        0.05120721      -0.00613230       3.34952534       0.00000000      -0.14198877       0.18377274      -0.08874634
C       -1.18218933       2.17281446       3.36793468       0.00000000       0.29984619       0.23822068      -0.12746955
C       -2.36748361       4.31145547       3.63739214       0.00000000      -0.46627687      -0.14151550       0.03940027
C       -3.63993674       6.41722621       3.71083280       0.00000000       0.23588002       0.04386679      -0.02127656
C       -4.86528037       8.54267941       3.56819275       0.00000000      -0.12976468       0.17128945      -0.12307539
C        2.51326610      -0.02643737       3.41326679       0.00000000       0.33509502      -0.17083185       0.20251365
C        1.29732986       2.10700873       3.13360575       0.00000000       0.09939425      -0.35999821       0.49664943
C        0.11330944       4.34259203       3.81369821       0.00000000      -0.15308766       0.00751226       0.02867548
C       -1.18201420       6.46095145       4.11845341       0.00000000      -0.19600127      -0.37084509      -0.21217802
C       -2.39164310       8.54099665       3.71154958       0.00000000       0.18200149       0.34638024       0.31627481
C        4.96395823       0.03436080       3.75341177       0.00000000       0.27717226      -0.10400517       0.02025111
C        3.67711517       2.10153775       3.84029702       0.00000000      -0.23449458      -0.46557269      -0.42897697
B        1.25540975       6.58754506       4.85708270       0.00000000       0.92889184      -0.08251080       0.84656295
C        0.09986919       8.59841446       3.97897080       0.00000000      -0.13991133      -0.06024428       0.25289618
C        7.45563114       0.04559875       3.70372756       0.00000000      -0.04785004       0.15408059       0.38414071
C        6.18567084       2.21005561       3.79537857       0.00000000      -0.14886745      -0.24672750      -0.24608890
C        4.93403548       4.41574315       3.81704188       0.00000000       0.15394569      -0.08595305       0.02604695
O        3.75279475       6.48664498       3.70717169       0.00000000       0.78329370       0.76647322       0.27087740
C        2.56594853       8.60689385       3.94584946       0.00000000      -0.13600882      -0.42175489      -0.00801108
C        9.95119387       0.04591408       3.60344933       0.00000000      -0.42290294      -0.13377757      -0.02076163
C        8.66326754       2.17302166       3.56494544       0.00000000       0.45562002       0.28070214       0.00339784
C        7.44346792       4.30764149       3.63630002       0.00000000      -0.06006760       0.07787929      -0.02836302
C        6.21013400       6.45603599       3.59814774       0.00000000       0.01988216      -0.08731733       0.23234345
C        4.99899940       8.55378943       3.73657103       0.00000000      -0.17783852       0.25787065      -0.23947361
C        0.04080330       1.43077632       3.17061508       0.00000000       0.15086818      -0.11241221       0.40712149
C       -1.13816235       3.59414622       3.53727902       0.00000000      -0.45054163       0.20282954       0.19221210
C       -2.38433521       5.74138273       3.83985705       0.00000000      -0.19957143      -0.52051465      -0.13219271
C       -3.62833399       7.82776690       3.65296048       0.00000000       0.15389060       0.31356986       0.04342742
C       -4.88573141       9.95388108       3.41454756       0.00000000       0.19271263       0.27964163      -0.06448812
C        2.50183166       1.39291757       3.41278542       0.00000000       0.02279040      -0.18365757      -0.12950703
B        1.42231052       3.57722782       3.47312488       0.00000000       0.47615086       0.05432771       0.00845945
C        0.03539837       5.70202282       4.34819913       0.00000000       0.25032772       0.27837483      -0.16670773
C       -1.14873135       7.87552367       3.99111448       0.00000000      -0.32509055      -0.23782702      -0.16075533
C       -2.42365952       9.96574507       3.63901798       0.00000000       0.36187848       0.22168625      -0.12853139
C        4.95350728       1.47833481       3.81992184       0.00000000      -0.11099345      -0.47118631      -0.02484956
P        3.31813418       3.76036599       4.22893941       0.00000000      -0.13833115      -0.02465880      -0.24002081
C        1.33844404       7.93535033       4.19629756       0.00000000      -0.13844065       0.27160187       0.08783077
C        0.04877843      10.02149990       3.81409183       0.00000000       0.16313922       0.04635174      -0.18187772
C        7.41835969       1.47148211       3.67210674       0.00000000       0.24167663       0.38987004       0.02730918
C        6.16906862       3.64212932       3.73316238       0.00000000       0.06580293      -0.15616671       0.13177342
C        4.97768980       5.80577196       3.71850532       0.00000000      -0.16595061       0.02257810      -0.18439303
C        3.78520339       7.86368401       3.83956614       0.00000000       0.11780240       0.26209778      -0.05768141
C        2.55670961      10.03488460       3.76071871       0.00000000      -0.45143620      -0.51075417      -0.12965135
C        9.91076795       1.47185782       3.49360620       0.00000000       0.38968871      -0.00930907      -0.07409421
C        8.70634258       3.59992411       3.57048283       0.00000000      -0.31770029       0.13684849       0.20679819
C        7.44761737       5.72151814       3.61796414       0.00000000       0.22078990      -0.04961743       0.07469637
C        6.23996772       7.86297628       3.63089132       0.00000000      -0.28338552      -0.22140500       0.00912519
C        5.00177303       9.98336208       3.58072187       0.00000000      -0.20387539       0.23044691      -0.09004354
Ta       1.28125849       4.36424188       5.64136542       0.00000000      -0.11855769      -0.23154580      -0.60856566
O        2.07543102       6.17700179       6.04640695       1.00000000      -1.53325999      -0.12213361      -1.39465532
O        0.35827519       2.92235521       6.15021811       1.00000000       0.31365377       0.34396947       1.00365219
