52
Lattice="12.336457 0.0 0.0 -6.168228499999997 10.683685154694365 0.0 0.0 0.0 15.0" Properties=species:S:1:pos:R:3:forces:R:3 energy=-451.44254890170834 free_energy=-451.44254890170834 stress="-0.0016514323265994077 -0.0016986829497095124 2.485178071297932e-05 -0.0016986829497095124 -0.007072085277219968 -3.3112749767223964e-05 2.485178071297932e-05 -3.3112749767223964e-05 6.276651356231288e-05" pbc="T T T"
C        0.03810873      -0.04549306       3.60338482      -0.00014876      -0.00341870      -0.01093083
C       -1.18484816       2.11505130       3.84032353      -0.00578537      -0.00280055      -0.00259176
C       -2.40548193       4.24850225       3.87814466      -0.00136513      -0.00044528      -0.00040494
C       -3.65151948       6.37809662       3.68135070       0.00132991       0.01471912      -0.00020081
C       -4.89079120       8.50033264       3.54566194       0.00092876       0.00312846       0.00616140
C        2.51567683      -0.09023773       3.52814770      -0.00647690      -0.01084880       0.01171188
C        1.28706004       2.01126767       3.78718235      -0.00358489       0.00767357      -0.01764306
C        0.07953250       4.26061120       4.14356284       0.01015825       0.00417663      -0.00178990
C       -1.20069315       6.39804234       3.66909197       0.00018123      -0.00938512      -0.00652475
C       -2.40900379       8.50006821       3.48070478      -0.00538279       0.00028376       0.00440182
C        4.98430278      -0.03098558       3.57912076       0.00865443       0.00338964       0.00624952
C        3.71610953       1.99927927       3.93258847       0.00315454       0.00328403       0.00143162
B        1.20052452       6.43671134       3.31430636      -0.00367470       0.00005385      -0.00099906
C        0.05855483       8.54185747       3.40658303      -0.00599848      -0.00771044       0.00523670
C        7.45246216      -0.00075438       3.60059935       0.00300007       0.00982701       0.01220521
C        6.19951037       2.13344451       3.83278135       0.00223701       0.00510071      -0.01416153
C        4.99119435       4.35601400       4.05034420      -0.00048645      -0.00217796      -0.00401451
O        3.79464594       6.49692417       4.17617234      -0.01097021      -0.00785296       0.00380329
C        2.55398993       8.54218512       3.54583483       0.00634692      -0.00371246      -0.00690405
C        9.91959451      -0.00761998       3.66008121      -0.00090875      -0.00066472      -0.00359355
C        8.68100068       2.12717198       3.79345128      -0.00704143      -0.00384622       0.00419351
C        7.44213344       4.26102952       3.85393024      -0.00516122      -0.00724417      -0.01061480
C        6.21668483       6.41697885       3.80076061       0.00707524      -0.00172636      -0.01292248
C        4.98451017       8.52057296       3.65381549       0.01352966      -0.00024076      -0.01214512
C        0.03622667       1.37161777       3.73024972      -0.00258655      -0.00641468      -0.00171740
C       -1.17427565       3.53083689       3.98357372       0.00649776       0.00197510       0.00493551
C       -2.41563716       5.67452878       3.75388615      -0.00271925       0.00521413       0.00205828
C       -3.64526340       7.79254054       3.55012359      -0.00516119       0.01100827       0.01278644
C       -4.89689659       9.91527378       3.52202080      -0.00524353      -0.00969340       0.00059499
C        2.50377475       1.29808408       3.71251229      -0.00361584      -0.00546276       0.00262322
B        1.41055165       3.46551830       4.09425023       0.00018217       0.00700004      -0.00019800
C        0.03196923       5.68182604       3.84704935      -0.00032672       0.00267021       0.00366621
C       -1.16608639       7.79930225       3.48674341      -0.00874488      -0.00876455       0.00350022
C       -2.40720916       9.91574804       3.49743790       0.00234428      -0.00124355       0.01306470
C        4.97942188       1.38504352       3.78707962       0.00587607       0.01284076      -0.01278076
P        3.42336002       3.64905314       4.38089661       0.00808900       0.01360202      -0.00866797
C        1.31205386       7.87098193       3.36828673      -0.00200641      -0.00536468       0.01528798
C        0.04993345       9.96513219       3.50685243       0.00666211       0.00173090       0.01365549
C        7.43915788       1.42145448       3.73865155      -0.00225801       0.00517552       0.00134921
C        6.20063031       3.56299989       3.91780889      -0.00403097      -0.00764097       0.00032507
C        5.01336122       5.75114206       4.00658067       0.00783585      -0.00661963      -0.00491075
C        3.76639346       7.84407358       3.75640644       0.01128166      -0.00659414      -0.00288728
C        2.52920857       9.97487090       3.59193967       0.00140263       0.00257187      -0.00582172
C        9.91793842       1.41740366       3.75845895      -0.00833694      -0.00223938       0.01481984
C        8.68781553       3.54729285       3.84666362      -0.00419851      -0.00666306       0.00913216
C        7.44708385       5.67884042       3.78254985       0.00613332       0.00094257      -0.00282773
C        6.21887587       7.81738482       3.65612512       0.01084595       0.00475971       0.00279672
C        4.97312507       9.94492007       3.61814627       0.00235194       0.00328575       0.00983785
Ta       1.90222684       5.40301403       5.05569144      -0.00975107      -0.01066847       0.00141107
O        1.45999379       5.41510826       6.79954571      -0.00379156       0.00063828      -0.00302771
O        1.13086958       5.39306238       8.16096900       0.00985672       0.01169006      -0.01090155
H        2.00897362       5.40933767       8.59622971      -0.01619897       0.00270180      -0.00805790
