52
Lattice="12.336457 0.0 0.0 -6.168228499999997 10.683685154694365 0.0 0.0 0.0 15.0" Properties=species:S:1:pos:R:3:forces:R:3 energy=-458.69394551555234 free_energy=-458.69394551555234 stress="-0.004906792260435113 -0.0005721094361762016 5.393588959105283e-08 -0.0005721094361762016 -0.0028066454000038234 1.8600868585499418e-05 5.393588959105283e-08 1.8600868585499418e-05 3.113917442981409e-05" pbc="T T T"
C       -0.01792590      -0.01380782       3.64769730       0.00108136      -0.00744566       0.00390966
C       -1.26244390       2.12056477       3.65513328       0.00322284      -0.00673404      -0.00588141
C       -2.48613173       4.26849210       3.68377325      -0.00711246       0.00282149       0.00774546
C       -3.71038980       6.40453337       3.67838470      -0.00090638       0.00261035       0.00264783
C       -4.94867001       8.54117593       3.68895073       0.00001470       0.00561744       0.00179989
C        2.44632695       0.00747478       3.65294363       0.00019158       0.00607321       0.00378753
C        1.18954430       2.08619656       3.65739794       0.00084251       0.00285614      -0.00681859
C       -0.06369491       4.24811264       3.84316229      -0.00570309       0.00047123       0.01168312
C       -1.25248477       6.40207785       3.68223330       0.00010349       0.00223259      -0.00420835
C       -2.48307157       8.54650296       3.63807423      -0.00462314      -0.00549388      -0.00540175
C        4.91514697       0.00432005       3.65238142      -0.00304541       0.00167469       0.00562050
C        3.68251341       2.16438010       3.83559368      -0.00566728      -0.00148535       0.00325990
C        1.19904107       6.41726986       3.95338323      -0.00115712       0.00360899      -0.00156630
C       -0.01857981       8.54201497       3.68570738       0.00196927      -0.00096057      -0.00006839
C        7.38242795      -0.00596944       3.64748332       0.00375083      -0.00535636       0.00410812
C        6.15879983       2.12615809       3.70624396       0.00354845       0.00282988      -0.00052780
C        4.95824879       4.24953103       3.97398927      -0.00533220      -0.00148725      -0.00069507
B        3.65680833       6.39415106       4.17135242       0.00009607       0.00897831       0.00823309
C        2.44711208       8.55628939       3.80678529       0.00028645      -0.00068590      -0.00541750
C        9.85085000      -0.01025049       3.66037991      -0.00085350       0.00877369       0.00942206
C        8.61738931       2.12778813       3.64277146      -0.00384952      -0.00167079      -0.00330717
C        7.39888233       4.26484321       3.72134622       0.00869280      -0.00271259       0.00258832
C        6.17107488       6.40512972       3.84512813       0.00769442      -0.00565422      -0.00802379
C        4.92211596       8.54054151       3.79755392       0.00053308       0.00082939       0.00163210
C       -0.02943540       1.41117289       3.62847142       0.00728826      -0.00928611      -0.00464570
C       -1.26498705       3.53918753       3.72499044      -0.00737889      -0.00315573       0.00929255
C       -2.47350662       5.69067556       3.67005040      -0.00316397       0.00548954       0.00151030
C       -3.71319404       7.83111647       3.66259755      -0.00558049      -0.00111495      -0.00636108
C       -4.94888943       9.97110503       3.65306582       0.00592859       0.00258481       0.00265187
C        2.43586584       1.44368859       3.70710549      -0.00416125       0.00259806       0.00358736
O        1.14104569       3.50449761       3.60388463       0.00778385      -0.00094152      -0.00521977
C       -0.01000676       5.67457361       3.81677227      -0.00217782       0.00332008       0.00603457
C       -1.24908974       7.82618803       3.65739767       0.00171805       0.00153227       0.00060226
C       -2.48763586       9.97432196       3.64356153      -0.00380868      -0.00196785       0.00115326
C        4.91545248       1.42582952       3.71717632      -0.00260746       0.00572231       0.00142038
C        3.74052787       3.54283874       4.09390993      -0.00891910      -0.00447666      -0.00168490
C        1.22008956       7.82757949       3.80799731       0.00169273       0.00017752      -0.00396011
C       -0.01967050       9.96497196       3.64983690       0.00015362      -0.00185124       0.00305763
C        7.38767863       1.41400277       3.64604618       0.00107112      -0.00629760       0.00247406
C        6.18407491       3.54054436       3.78071381       0.00580899       0.00316331       0.00084828
C        4.96861529       5.66822841       4.01433880      -0.00015887      -0.00063763      -0.00499928
C        3.67825360       7.86205554       3.91657600      -0.00022304       0.00346978       0.00210538
C        2.44625417       9.97205141       3.68646527       0.00484689      -0.00161279       0.00628738
C        9.85287606       1.41494687       3.63661203      -0.00251387       0.00850948      -0.00575264
C        8.62489104       3.55338981       3.66579551       0.00084163      -0.00411275      -0.00510332
C        7.40211291       5.69269175       3.74340273       0.00563108      -0.00584284      -0.00443978
C        6.15927866       7.82915111       3.78427772       0.00276197      -0.00058175      -0.00186499
C        4.91774110       9.96109985       3.69056872      -0.00559925       0.00278051      -0.00044060
Ta       2.17864278       4.82013387       4.84734944       0.00755916       0.00535028      -0.00880617
O        2.28595308       5.00359182       6.60994518      -0.00106330      -0.00554936      -0.00068992
O        2.32891434       5.17056518       8.00956286       0.00958656      -0.00419202      -0.00084679
H        3.15866442       4.70930050       8.25382345      -0.00909430      -0.00276794      -0.01073166
