51
Lattice="12.336457 0.0 0.0 -6.168228499999997 10.683685154694365 0.0 0.0 0.0 15.0" Properties=species:S:1:pos:R:3:initial_magmoms:R:1:forces:R:3 energy=-451.3450386587673 free_energy=-451.3450386587673 stress="-0.00814345740851534 0.004712534147123391 2.8203034226388804e-06 0.004712534147123391 -0.005225873193444791 -1.4181844644455963e-06 2.8203034226388804e-06 -1.4181844644455963e-06 1.0870223883442522e-05" pbc="T T T"
C       -0.00884430      -0.02002049       3.68497638       0.00000000       0.00043074      -0.00070580      -0.00079303
C       -1.21198769       2.14713511       3.71085088       0.00000000       0.00359709      -0.00635151      -0.00057442
C       -2.44597158       4.27514075       3.69727628       0.00000000       0.00186818      -0.00359598      -0.00473552
C       -3.70325195       6.40342222       3.68215996       0.00000000       0.00059093       0.00498845       0.00060221
C       -4.96402048       8.52459605       3.65654254       0.00000000       0.00227596       0.00330455       0.00507588
C        2.46175098      -0.02986258       3.81940603       0.00000000      -0.00089756       0.00146115      -0.00161501
C        1.25047013       2.08297346       3.93511314       0.00000000       0.00521196       0.00292705       0.00571986
C        0.00129469       4.36228681       3.79977220       0.00000000      -0.00801221      -0.00096258      -0.00713865
C       -1.28854175       6.45342378       3.52515029       0.00000000      -0.00427613      -0.00143097       0.00147411
C       -2.49427775       8.54925083       3.58651398       0.00000000       0.00293321      -0.00091529      -0.00007229
C        4.93118705      -0.01168841       3.77218648       0.00000000      -0.00236604      -0.00231199      -0.00150181
C        3.72394016       2.04394836       4.25979570       0.00000000      -0.00037060       0.00384005       0.00202917
O        1.08205866       6.49123862       3.26512116       0.00000000      -0.00287677       0.00006038       0.00289029
C       -0.04331143       8.57581498       3.36852498       0.00000000       0.00153338       0.00193448       0.00331077
C        7.40106096      -0.00401881       3.60635773       0.00000000       0.00763320      -0.00433799       0.00537724
C        6.21160846       2.09511237       4.02794268       0.00000000      -0.00289387       0.00203790       0.00701352
C        5.06366207       4.23339629       4.31619316       0.00000000      -0.00536207       0.00099540       0.00249649
S        3.60415862       6.12573429       3.21957359       0.00000000      -0.00382180      -0.00221042      -0.00159356
C        2.42643743       8.54562548       3.32717791       0.00000000      -0.00030450      -0.00035447      -0.00380547
C        9.87045565      -0.00494878       3.56851998       0.00000000       0.00320120       0.00058802      -0.00115864
C        8.66088595       2.12494386       3.74425727       0.00000000      -0.00064253      -0.00132265       0.00354044
C        7.45272030       4.25270452       3.91203557       0.00000000       0.00485047       0.00251830       0.00117403
C        6.19930213       6.39027711       3.81044843       0.00000000       0.00278548      -0.00136177      -0.00447065
C        4.90834386       8.51361402       3.53787319       0.00000000      -0.00233210       0.00123045       0.00006462
C        0.00803952       1.40626152       3.76149046       0.00000000       0.00623195      -0.00341074       0.00211316
C       -1.21980389       3.57634324       3.71921347       0.00000000       0.00006804      -0.00681280      -0.00199534
C       -2.48090606       5.69756226       3.63781996       0.00000000      -0.00443060      -0.00101408       0.00148506
C       -3.72419979       7.82518988       3.63799708       0.00000000       0.00311023       0.00360454      -0.00051420
C       -4.94816359       9.95054345       3.70745446       0.00000000      -0.00061652       0.00221146       0.00076346
C        2.49055989       1.37834446       4.02181354       0.00000000       0.00428326       0.00310268      -0.00369041
B        1.22073773       3.54582810       4.02034527       0.00000000      -0.00953849      -0.00072724      -0.00437492
C       -0.08223128       5.77575801       3.62289252       0.00000000      -0.00674224       0.00283469       0.00445493
C       -1.27902754       7.86224375       3.46210959       0.00000000       0.00184450      -0.00136262      -0.00273770
C       -2.47725289       9.96413065       3.72029816       0.00000000      -0.00329209      -0.00133501      -0.00369697
C        4.95235361       1.39018111       4.04080711       0.00000000      -0.00347781      -0.00063067       0.00410118
B        3.81263773       3.47725760       4.76191333       0.00000000      -0.00616583       0.00060285       0.00268814
C        1.16268301       7.91070778       3.24988004       0.00000000      -0.00161768       0.00351125       0.00377096
C       -0.01326432       9.98649835       3.57058051       0.00000000       0.00321171       0.00255094      -0.00390139
C        7.42303867       1.40875491       3.79255204       0.00000000      -0.00199604      -0.00171823       0.00187580
C        6.25384180       3.51555032       4.12359726       0.00000000      -0.00153520       0.00502693      -0.00064559
C        5.04686074       5.58910734       3.96349728       0.00000000       0.00053470      -0.00106582      -0.00214121
C        3.66449339       7.85235227       3.39466136       0.00000000      -0.00283925      -0.00019634      -0.00031363
C        2.45705952       9.97771006       3.48169675       0.00000000       0.00767045      -0.00367362       0.00607110
C        9.88973221       1.42428010       3.65934682       0.00000000       0.00084305      -0.00079402      -0.00259558
C        8.67008325       3.54760652       3.78283195       0.00000000       0.00376081      -0.00119360       0.00219439
C        7.42882596       5.67567645       3.82318580       0.00000000       0.00424011       0.00270416      -0.00029737
C        6.14260524       7.80032303       3.64413050       0.00000000       0.00144956       0.00139198      -0.00556644
C        4.92534205       9.95463205       3.58070876       0.00000000       0.00008929       0.00120938      -0.00115690
Ta       2.01143369       5.39770129       4.92921033       0.00000000       0.00008481      -0.00767988       0.00687397
O        1.40318271       6.62035426       6.03529400       1.00000000       0.00039892      -0.00141209       0.00121750
O        3.01731270       4.04165819       5.81390127       1.00000000       0.00167471       0.00425117      -0.01729161
