51
Lattice="12.336457 0.0 0.0 -6.168228499999997 10.683685154694365 0.0 0.0 0.0 15.0" Properties=species:S:1:pos:R:3:initial_magmoms:R:1:forces:R:3 energy=-454.1360752978284 free_energy=-454.1360752978284 stress="-0.004646493769629762 -0.004020236112712036 5.9766903624885655e-06 -0.004020236112712036 -0.006550261340979266 -5.960263743415075e-06 5.9766903624885655e-06 -5.960263743415075e-06 6.372179810707399e-07" pbc="T T T"
C       -0.01072674      -0.02919556       3.68148132       0.00000000      -0.00245403       0.00181417       0.00568335
C       -1.26863388       2.11330811       3.83951871       0.00000000       0.00535758       0.00083101      -0.00746043
C       -2.48644374       4.26467730       3.70628155       0.00000000      -0.00160973       0.00754536      -0.00042246
C       -3.67827463       6.40838350       3.53642417       0.00000000       0.00194795      -0.00179440      -0.00910517
C       -4.91412355       8.54430694       3.52275427       0.00000000       0.00401841       0.00458989      -0.00522208
C        2.46334774      -0.04355749       3.77431981       0.00000000       0.00389461      -0.00068311      -0.00234857
C        1.19694533       2.02864961       4.09297192       0.00000000       0.00486193       0.00237395      -0.00225437
C       -0.09129364       4.25603000       4.19901405       0.00000000      -0.00565184       0.00298386       0.00182681
C       -1.24034786       6.39783134       3.88086015       0.00000000       0.00490037       0.00300731       0.00609077
C       -2.44950391       8.52921120       3.69767590       0.00000000      -0.00112322      -0.00910653       0.00638700
C        4.92850865      -0.00574678       3.71095710       0.00000000       0.00042860      -0.00044951       0.00015300
C        3.64614202       2.07352299       3.69407465       0.00000000      -0.00150735       0.00287105      -0.00785528
B        1.23401352       6.42970647       4.41254258       0.00000000       0.00100599      -0.00390177      -0.00144788
C        0.00773012       8.54268410       3.86678462       0.00000000      -0.00331300      -0.00464617      -0.00005654
C        7.39078837      -0.00111837       3.66036718       0.00000000      -0.00450722      -0.00062852       0.00263995
C        6.13636918       2.15083145       3.53989445       0.00000000      -0.00756417       0.00758274      -0.00099371
C        4.98575304       4.36623266       3.44554625       0.00000000      -0.00079707      -0.00434049       0.01208100
N        3.80569192       6.45422766       3.66251419       0.00000000       0.00583345      -0.00595746       0.00576768
C        2.48412800       8.53670581       3.77666122       0.00000000       0.00045601      -0.00297603       0.00138266
C        9.85580348      -0.00876774       3.62261295       0.00000000      -0.00252103      -0.00045489      -0.00261686
C        8.61356898       2.13447040       3.59800106       0.00000000      -0.00074275      -0.00628564      -0.00050240
C        7.40512652       4.28163119       3.46171044       0.00000000       0.00189443      -0.00131316      -0.00019425
C        6.22209032       6.45569014       3.33716123       0.00000000      -0.00071631       0.00153774      -0.00508926
C        4.94913850       8.54862966       3.49297220       0.00000000       0.00304146       0.00577282      -0.00729899
C       -0.02476672       1.38461398       3.88378806       0.00000000       0.00563778       0.00151158      -0.00256995
C       -1.27637124       3.53969393       3.91450220       0.00000000      -0.00527171       0.00309388       0.00140668
C       -2.46487716       5.68860436       3.69483437       0.00000000       0.00501100       0.00736660       0.00373784
C       -3.67856665       7.82814677       3.57348004       0.00000000      -0.00032693      -0.00367328      -0.00421128
C       -4.93861498       9.95086502       3.66387789       0.00000000       0.00021528       0.00455358       0.00041055
C        2.43208165       1.36924842       3.90806282       0.00000000       0.00377899       0.00033610       0.00036911
B        1.10070320       3.41481147       4.67022203       0.00000000      -0.00138836       0.00447228      -0.00224886
C       -0.05050553       5.65720073       4.16068206       0.00000000      -0.00068781       0.00152226       0.00956611
C       -1.21997292       7.81920846       3.82321359       0.00000000      -0.00067720      -0.00251253       0.00479607
C       -2.46097836       9.95145574       3.72598112       0.00000000       0.00289165      -0.00756466       0.00186282
C        4.90440840       1.43326884       3.63535737       0.00000000      -0.00257749       0.00445696      -0.00127908
S        3.41285700       3.72371279       3.19513575       0.00000000      -0.00131047      -0.00336025       0.00715127
C        1.25658801       7.85623339       4.00132518       0.00000000      -0.00262979      -0.00297679       0.00189705
C       -0.00377958       9.96903268       3.73406785       0.00000000      -0.00220329      -0.00466844       0.00384479
C        7.37265763       1.43021016       3.58045119       0.00000000      -0.00850746       0.00167557       0.00166168
C        6.16241936       3.57388091       3.45789654       0.00000000      -0.00070146       0.00422230      -0.00153032
C        4.99128546       5.78249496       3.40484022       0.00000000       0.00021324      -0.00693827      -0.00696555
C        3.73262699       7.82530079       3.63938438       0.00000000       0.00429075      -0.00079002      -0.00702629
C        2.46295161       9.96537429       3.66095136       0.00000000      -0.00281900      -0.00203255      -0.00020936
C        9.84766937       1.41623220       3.66924313       0.00000000       0.00390435      -0.00276155       0.00376341
C        8.62446682       3.55797594       3.57097778       0.00000000       0.00067800      -0.00295346       0.00137351
C        7.42869636       5.70639101       3.41305753       0.00000000       0.00021080      -0.00143077      -0.00052015
C        6.19271245       7.86060169       3.41286311       0.00000000       0.00410866       0.00440301       0.00679469
C        4.92606947       9.96185021       3.58373711       0.00000000      -0.00302158       0.00382212      -0.00467417
Ta       3.03499164       5.19199062       5.21909762       0.00000000      -0.00151716       0.00330154      -0.01485235
O        4.15918559       5.67287933       6.47390122       1.00000000      -0.00643093       0.00807090       0.00080173
O        1.86167459       3.78994298       5.80291313       1.00000000       0.00399706      -0.00951829       0.00750608
