51
Lattice="12.336457 0.0 0.0 -6.168228499999997 10.683685154694365 0.0 0.0 0.0 15.0" Properties=species:S:1:pos:R:3:initial_magmoms:R:1:forces:R:3 energy=-455.2410218019433 free_energy=-455.2410218019433 stress="-0.002852573486676593 0.002565395485580163 -0.00012967572307875667 0.002565395485580163 -0.004478230283909893 -0.00017270898591100148 -0.00012967572307875667 -0.00017270898591100148 -0.00019699070359868918" pbc="T T T"
C       -0.07375820      -0.04678332       3.74364625       0.00000000      -0.00098418      -0.00917257       0.03545143
C       -1.28688161       2.12220574       3.87242217       0.00000000      -0.01419750      -0.05219478       0.01852743
C       -2.51830921       4.25515781       3.85183981       0.00000000      -0.04867364      -0.06669249      -0.02632276
C       -3.76029214       6.37783312       3.74584510       0.00000000       0.00076498       0.01300677      -0.03092555
C       -5.01068217       8.50186586       3.64410236       0.00000000       0.02730458       0.05823115       0.00995427
C        2.39191531      -0.06900874       3.87214073       0.00000000      -0.01674683      -0.02540376       0.03069254
C        1.16858466       2.04335857       4.11514611       0.00000000       0.02164517       0.03428177      -0.01291591
C       -0.05218278       4.30272950       4.04758351       0.00000000      -0.03421667       0.03710570       0.10535032
C       -1.29616366       6.39785771       3.78189426       0.00000000       0.02884832       0.02159737       0.04300798
C       -2.54220023       8.50570780       3.74259108       0.00000000      -0.05491767       0.02932948      -0.04989693
C        4.86514963      -0.04981620       3.85294183       0.00000000      -0.01191864       0.02903950      -0.02456946
C        3.63294944       2.01872600       4.17479677       0.00000000      -0.00842393       0.01723725      -0.07026753
N        1.11311133       6.47195803       3.95801321       0.00000000       0.09961329      -0.00846532      -0.08213222
C       -0.09533661       8.52561547       3.65195068       0.00000000      -0.01352655      -0.02234665       0.04653348
C        7.32892685      -0.02374649       3.70642363       0.00000000       0.00506825       0.05057851       0.00486308
C        6.10615872       2.09848401       3.95446243       0.00000000       0.03101392      -0.02275341      -0.00285923
C        4.87360966       4.24084983       3.92450934       0.00000000       0.02871046       0.00672694       0.00241773
S        3.71495888       6.26667130       2.18324758       0.00000000      -0.13342470      -0.02220477      -0.06004016
C        2.35856923       8.52932732       3.46548583       0.00000000      -0.04961766      -0.01759399       0.05234245
C        9.80011167      -0.01778245       3.64339308       0.00000000       0.00436311      -0.01956608       0.00206319
C        8.57640662       2.11312692       3.81319295       0.00000000      -0.00186095      -0.00466705       0.00961945
C        7.34719776       4.24015264       3.84400800       0.00000000       0.01054199      -0.04550525       0.00065030
C        6.12993780       6.38098417       3.55212098       0.00000000       0.02564069      -0.01102497      -0.02297661
C        4.86272985       8.51228294       3.46164146       0.00000000       0.07274549      -0.03413200      -0.05284805
C       -0.06130235       1.38094512       3.90877884       0.00000000       0.00104081      -0.02898294       0.01822864
C       -1.27468720       3.55902782       3.92307031       0.00000000       0.01508302      -0.03943191       0.03864120
C       -2.52115831       5.67478202       3.80049806       0.00000000      -0.01950087      -0.02895537      -0.00201523
C       -3.77627731       7.79526292       3.70764716       0.00000000      -0.01880657       0.01698366      -0.02029269
C       -5.01380569       9.91750972       3.73843870       0.00000000      -0.00566809       0.01156885       0.03762131
C        2.39403814       1.33494976       4.07076202       0.00000000      -0.01019068      -0.02733307      -0.00071595
B        1.18130748       3.52592216       4.35255526       0.00000000       0.07643449      -0.05654173       0.06951278
C       -0.05326628       5.72174392       3.92538489       0.00000000       0.05453391       0.09237090       0.03613922
C       -1.30887859       7.80632594       3.71794662       0.00000000      -0.07192855       0.02646366      -0.01035424
C       -2.53782466       9.92109660       3.81862603       0.00000000      -0.00232402       0.01701192      -0.00732771
C        4.86986170       1.36404075       4.00599011       0.00000000       0.00157093       0.04954834      -0.02207214
B        3.62519445       3.48847709       4.34673256       0.00000000      -0.02089769       0.02848564      -0.05852971
C        1.12253893       7.81146008       3.64401416       0.00000000      -0.00313769      -0.02211827       0.00957190
C       -0.07367229       9.94271366       3.71464454       0.00000000       0.00347784       0.02436577       0.01302713
C        7.33550878       1.39799305       3.82310597       0.00000000       0.03008998       0.00337189       0.01233252
C        6.11612332       3.52409390       3.93772665       0.00000000       0.04158251      -0.06891084      -0.02694235
C        4.93328775       5.59433595       3.38425241       0.00000000      -0.00782563       0.00768461      -0.00366825
C        3.60139755       7.82118791       3.24887015       0.00000000      -0.00400019       0.01861644       0.02902550
C        2.38942719       9.95953598       3.57957167       0.00000000      -0.01476956       0.01313602       0.04327785
C        9.81486853       1.40844796       3.76797562       0.00000000      -0.01405287      -0.00442757       0.01250035
C        8.58354327       3.53666245       3.84604882       0.00000000      -0.01084910      -0.04145882      -0.00009545
C        7.34921928       5.66315998       3.73815984       0.00000000      -0.00613901      -0.00303493      -0.01894531
C        6.08495985       7.79185301       3.51524837       0.00000000       0.07125525       0.00265926      -0.00601392
C        4.86036593       9.93901966       3.61472633       0.00000000      -0.00177161      -0.01813655      -0.03000545
Ta       3.15217289       6.03516208       4.54005428       0.00000000      -0.06318058      -0.07374561       0.12091608
O        3.99450394       6.75339480       5.90091433       1.00000000       0.03413856       0.19177528       0.41044703
O        2.40497339       4.12370018       4.91028397       1.00000000      -0.02191591      -0.02637603      -0.56998233
