51
Lattice="12.336457 0.0 0.0 -6.168228499999997 10.683685154694365 0.0 0.0 0.0 15.0" Properties=species:S:1:pos:R:3:initial_magmoms:R:1:forces:R:3 energy=-451.4787572588085 free_energy=-451.4787572588085 stress="-0.0036144062469494484 -0.004173861900001809 -5.449682225088173e-05 -0.004173861900001809 -0.004605909590684768 2.8709597620732597e-05 -5.449682225088173e-05 2.8709597620732597e-05 2.7352124964374337e-05" pbc="T T T"
C       -0.06212296      -0.01652414       3.76195830       0.00000000       0.01243154       0.00425720       0.00276394
C       -1.32141880       2.12077488       3.93609405       0.00000000      -0.00290820      -0.01026874      -0.00134342
C       -2.54538624       4.27013896       3.81986691       0.00000000      -0.00102360       0.00111624      -0.00406373
C       -3.73028129       6.41458081       3.62573305       0.00000000       0.00352793       0.01077560      -0.00599915
C       -4.96620701       8.55293312       3.59146727       0.00000000      -0.01101963      -0.00513958       0.01719701
C        2.41529016      -0.02902559       3.81397900       0.00000000       0.00408864      -0.00061006       0.01127388
C        1.15324484       2.04727996       4.13917526       0.00000000       0.01484766       0.00596763       0.00053062
C       -0.14620187       4.26319281       4.29790218       0.00000000       0.00631277       0.00063805      -0.01696639
C       -1.29718390       6.40585436       3.96665675       0.00000000      -0.00496497       0.00378095      -0.00434185
C       -2.49924402       8.53829020       3.75908812       0.00000000      -0.00456075       0.01239958       0.00193984
C        4.87815930       0.00554374       3.70692284       0.00000000       0.00183204      -0.00651231       0.01316977
C        3.59090292       2.09365419       3.64408143       0.00000000       0.00085289       0.00707071      -0.00505276
B        1.19770289       6.41949826       4.36197689       0.00000000       0.00341165       0.00448903      -0.00561922
C       -0.03655679       8.54638213       3.86740666       0.00000000       0.00617328      -0.01610028      -0.00376871
C        7.34262018       0.00364486       3.65775997       0.00000000      -0.00437536       0.00429418      -0.00386773
C        6.08618912       2.16104628       3.51238919       0.00000000      -0.00766872      -0.00750714       0.00376913
C        4.92941166       4.38060738       3.30668236       0.00000000      -0.00427571       0.02090160      -0.00101145
O        3.73987648       6.46768843       3.38094239       0.00000000      -0.00166615      -0.01251053      -0.00231364
C        2.44046760       8.53173572       3.71893830       0.00000000       0.00280974       0.00646106      -0.00653227
C        9.80657319      -0.00317415       3.67045463       0.00000000      -0.00328061      -0.00155803      -0.00975666
C        8.56182298       2.14075598       3.65528468       0.00000000       0.00353838       0.00748041      -0.00429922
C        7.35103987       4.28894931       3.48869467       0.00000000      -0.01019920      -0.00284187       0.01499085
C        6.18521625       6.46723132       3.31193506       0.00000000       0.00100959      -0.00421358       0.01014636
C        4.90308157       8.55960436       3.50824705       0.00000000      -0.01433843      -0.00445672      -0.00316669
C       -0.07481280       1.39831211       3.96256564       0.00000000       0.01292823       0.00193739       0.02192812
C       -1.33493553       3.54498789       4.02941286       0.00000000      -0.00432995      -0.00762834       0.00682158
C       -2.52064924       5.69458776       3.80313120       0.00000000      -0.00063959       0.00601230       0.00873188
C       -3.72795326       7.83596167       3.65020308       0.00000000      -0.00275162       0.01154640       0.01728903
C       -4.98772560       9.96409406       3.73482553       0.00000000       0.01073683      -0.00002933       0.00055175
C        2.38562575       1.38947832       3.91559730       0.00000000       0.01028515       0.00252706       0.00528711
B        1.08269664       3.43942374       4.70316060       0.00000000       0.00586678       0.00042078      -0.00743897
C       -0.10518480       5.66233175       4.22390954       0.00000000      -0.00017643       0.01670166       0.00455362
C       -1.26941712       7.82657065       3.87481208       0.00000000      -0.00635137      -0.00141745      -0.00981315
C       -2.51045357       9.96236682       3.75689452       0.00000000      -0.00118276       0.00698861       0.00052261
C        4.85061192       1.44461059       3.59969051       0.00000000      -0.00304560      -0.00774830      -0.00729894
S        3.34514029       3.72092231       3.01576326       0.00000000      -0.00977110      -0.01327518       0.00913081
C        1.20912988       7.84762583       3.95736410       0.00000000       0.01063840      -0.00250267      -0.01309412
C       -0.05394184       9.97584152       3.72869993       0.00000000       0.00155282      -0.01162035       0.00263425
C        7.32221671       1.43717890       3.59140516       0.00000000       0.00185055       0.00527124      -0.00091989
C        6.11513482       3.58247281       3.41055356       0.00000000      -0.01437798      -0.00339312      -0.00153093
C        4.98999778       5.77697065       3.23436841       0.00000000      -0.00056439       0.01440630       0.00051036
C        3.68823255       7.87345270       3.57879119       0.00000000      -0.00892922      -0.00977461       0.00130913
C        2.41612938       9.96923050       3.65659824       0.00000000      -0.00457425       0.00851713      -0.01208665
C        9.79650686       1.42441720       3.74574903       0.00000000      -0.00509509      -0.00364784       0.00359905
C        8.57048037       3.56402501       3.64691763       0.00000000       0.00025997       0.00437160       0.00171905
C        7.38432848       5.71167191       3.45954587       0.00000000       0.00579911       0.00000703      -0.02432682
C        6.15314575       7.87234687       3.44267460       0.00000000      -0.01664042      -0.00555784      -0.00086309
C        4.87591261       9.97468517       3.64449139       0.00000000       0.00240806       0.00486159      -0.00916941
Ta       3.02006651       5.17583157       5.00537773       0.00000000       0.00000605      -0.01260579       0.05095439
O        4.19780399       5.82026865       6.13358269       1.00000000       0.01657856      -0.02316343      -0.00848403
O        1.93729081       3.83072572       5.78533757       1.00000000       0.00896449       0.00088176      -0.03819522
