53
Lattice="12.336457 0.0 0.0 -6.168228499999997 10.683685154694365 0.0 0.0 0.0 15.0" Properties=species:S:1:pos:R:3:forces:R:3 energy=-465.1136097211473 free_energy=-465.1136097211473 stress="-0.005513245944234268 0.004013403119093504 2.2602717905480715e-06 0.004013403119093504 -0.003050391276140824 3.097373650818669e-05 2.2602717905480715e-06 3.097373650818669e-05 -5.462799711295926e-06" pbc="T T T"
C        0.01220780       0.01370374       3.77851717       0.00572642      -0.00441986      -0.00477380
C       -1.20503641       2.16071955       3.83121634       0.00030267      -0.00601073      -0.01290535
C       -2.43540048       4.28805284       3.72404686      -0.00705744      -0.00701894       0.00407390
C       -3.69140191       6.42453623       3.59782936      -0.00541202       0.00733860       0.00717944
C       -4.95215775       8.55115545       3.68011453      -0.00140730       0.00312536       0.00967103
C        2.46762926       0.01929634       3.56547673      -0.00252037      -0.00039847       0.00069725
C        1.26736065       2.15094884       3.79159981      -0.00319941       0.01165446       0.00648521
C       -0.00149797       4.32083055       4.14328059      -0.00545063       0.00013441      -0.00061159
C       -1.27803440       6.45758228       3.86414618       0.00329896      -0.00391392      -0.00681548
C       -2.48206893       8.57377656       3.60548518      -0.00558806       0.00153724      -0.00605612
C        4.94746396       0.00859633       3.43928245       0.00010723       0.01081301       0.00443760
C        3.73994816       2.12942566       3.36093066      -0.00404940      -0.00275715      -0.00032549
B        2.65329195       4.31559059       3.76273905       0.00228235      -0.00076817      -0.00857376
C        1.04143726       6.61121853       4.48436400       0.01286016      -0.01218609       0.00565029
C       -0.02216074       8.59500178       3.78296661       0.00633207       0.00264386       0.00096188
C        7.42445932       0.00980777       3.59060168       0.00848924      -0.00107349      -0.01302855
C        6.22687090       2.11592453       3.29271533       0.00500527      -0.00708975       0.00357161
C        5.04306376       4.23431575       3.37589807      -0.00032697      -0.00024568       0.00170809
S        3.59640669       6.15761626       4.45506031      -0.00233242       0.00850864       0.00418163
C        2.45673581       8.58824306       4.01019296       0.00262880      -0.00135992       0.00837143
C        9.89150357       0.01291551       3.78169983       0.00213094       0.00668911      -0.00112900
C        8.68228869       2.14105805       3.55722600      -0.00771575      -0.00429515      -0.00521328
C        7.47021764       4.27343714       3.41551848      -0.00478714      -0.00394294       0.00302748
C        6.19447991       6.40013730       3.67096774      -0.00073884       0.00440134       0.00529489
C        4.92492739       8.53273931       3.91339816       0.00568214       0.00477467       0.00176548
C        0.03159671       1.44566556       3.81925475       0.00296307      -0.00343691      -0.00028159
C       -1.22114083       3.58173417       3.89965319      -0.00458479      -0.00665182       0.00710703
C       -2.46406006       5.71808276       3.71002023      -0.00518144      -0.00039170       0.00051368
C       -3.71095965       7.85043568       3.61900638      -0.00818364       0.00665423      -0.00391876
C       -4.93311234       9.98442882       3.68369807       0.00140731      -0.00336605      -0.01090710
C        2.48172775       1.44810439       3.55961825      -0.00577271       0.00301732       0.01848497
C        1.27059164       3.61222803       4.01673466       0.00180961       0.01423271       0.00590948
C       -0.06339570       5.76944235       4.20805336       0.00116761      -0.00767575      -0.00108799
C       -1.25534515       7.87014434       3.73914074       0.00061731       0.00183600      -0.00969252
C       -2.46926166       9.99258063       3.51664076      -0.00130382       0.00255575      -0.00922096
C        4.97481599       1.41469046       3.31409990       0.00163784       0.00527372       0.00186576
C        3.81994990       3.53927515       3.36030202       0.00144094      -0.00533512       0.00228172
C        1.19019671       7.92596192       4.08456403       0.00587867      -0.01135024       0.00020743
C        0.00799609       9.99371378       3.57453131       0.00447507       0.00835354      -0.01114826
C        7.44966802       1.41967904       3.44854524       0.00219817      -0.00689863       0.00296161
C        6.26560959       3.53843523       3.27665501      -0.00150653      -0.00821072       0.01332817
C        5.04164960       5.59691930       3.73497382      -0.00388690       0.00528805       0.00758015
C        3.67157928       7.87950052       4.10479242       0.00548723       0.00572451       0.00169027
C        2.48196512       9.99530941       3.78261877       0.00621572       0.00056239      -0.00485512
C        9.90421634       1.43952148       3.72189823      -0.00408227       0.00284845      -0.01320167
C        8.69158268       3.56568853       3.53968115      -0.00695159      -0.00684200      -0.00224075
C        7.43582108       5.69745527       3.52922195      -0.00232026       0.00364150      -0.00832503
C        6.15706773       7.82470268       3.78173650       0.00379755       0.00448424       0.00251221
C        4.94513074       9.97444807       3.83834308       0.00370090       0.00331058       0.00305903
Ta       1.67881048       5.02198636       5.57248550       0.00229418      -0.00192746      -0.00028890
O        1.60100818       4.93742624       7.39095191      -0.00093502      -0.00230614      -0.00459548
O        1.51699690       4.90194940       8.78658764      -0.00015740      -0.00609183      -0.00166432
H        2.45453052       4.95224422       9.06175698      -0.00448529      -0.00343905       0.00628214
