51
Lattice="12.336457 0.0 0.0 -6.168228499999997 10.683685154694365 0.0 0.0 0.0 15.0" Properties=species:S:1:pos:R:3:initial_magmoms:R:1:forces:R:3 energy=-459.3564048606547 free_energy=-459.3564048606547 stress="-0.003688425476587518 0.001057247072483301 -4.479409814422386e-06 0.001057247072483301 0.0007663372866931015 -2.0304303828419245e-06 -4.479409814422386e-06 -2.0304303828419245e-06 1.514709342846056e-06" pbc="T T T"
C        0.00005138       0.00856070       3.59820607       0.00000000      -0.00302734      -0.00226900      -0.00115575
C       -1.24892774       2.12262038       3.47802507       0.00000000       0.00077668      -0.00000014      -0.00305538
C       -2.49649156       4.26306436       3.45493562       0.00000000       0.00148363       0.00031681      -0.00248564
C       -3.71546015       6.40738532       3.51742619       0.00000000       0.00087665       0.00003172      -0.00252437
C       -4.94216031       8.55040993       3.62644025       0.00000000      -0.00510925      -0.00150281       0.00171793
C        2.47237427       0.02221556       3.69464773       0.00000000      -0.00028229      -0.00125166       0.00074667
C        1.23709746       2.16418796       3.63175624       0.00000000       0.00433531       0.00403917       0.00457613
C       -0.05352989       4.26352808       3.60772826       0.00000000       0.00135347      -0.00091381      -0.00555868
C       -1.27357488       6.41428092       3.61396908       0.00000000       0.00284373      -0.00556344       0.00346601
C       -2.47999805       8.54805157       3.65112597       0.00000000      -0.00216576      -0.00133671      -0.00578627
C        4.92843412      -0.01063663       3.76719155       0.00000000       0.00266984      -0.00039394       0.00156760
C        3.73132120       2.12037903       3.93714871       0.00000000       0.00340885       0.00156972       0.00188763
C        1.14396494       6.36130565       4.09821605       0.00000000      -0.00074593       0.00360432      -0.00243837
C       -0.00418575       8.51851421       3.81917240       0.00000000      -0.00405953      -0.00145234       0.00402151
C        7.39822132      -0.02720812       3.73585112       0.00000000      -0.00015185       0.00236253       0.00040030
C        6.17133378       2.11241804       3.71034988       0.00000000      -0.00093409      -0.00196246       0.00054715
C        4.98855247       4.23642675       3.89295522       0.00000000       0.00636990       0.00201154       0.00057013
B        3.86735789       6.45237801       4.50041372       0.00000000      -0.00668627       0.00107733       0.00198287
C        2.46977361       8.52569036       3.95635835       0.00000000      -0.00097519       0.00052487       0.00143861
C        9.85972561      -0.01580040       3.64966899       0.00000000      -0.00295761      -0.00112717      -0.00456040
C        8.62363539       2.11581622       3.53775570       0.00000000      -0.00217091       0.00364358      -0.00830062
C        7.38987060       4.25874086       3.53647376       0.00000000      -0.00025308       0.00119200      -0.00097665
C        6.17195865       6.38842827       3.69240419       0.00000000       0.00268723       0.00284863      -0.00391265
C        4.93472785       8.55564880       3.80078281       0.00000000       0.00070266       0.00070788       0.00076901
C        0.00038707       1.42930465       3.53529119       0.00000000       0.00277159      -0.00117123       0.00347256
C       -1.28027172       3.54246915       3.45208457       0.00000000       0.00308417       0.00104131      -0.00251560
C       -2.49107554       5.69464226       3.50200400       0.00000000       0.00119072      -0.00044331       0.00137890
C       -3.70975647       7.83510257       3.58493366       0.00000000      -0.00358846      -0.00147102       0.00115503
C       -4.93091068       9.98469696       3.63634375       0.00000000      -0.00394832      -0.00263120      -0.00001064
C        2.49186296       1.46187464       3.76763949       0.00000000       0.00396246       0.00095172       0.00750947
C        1.16442496       3.56832618       3.67869477       0.00000000      -0.00056780      -0.00285595      -0.00032868
C       -0.04897891       5.69048395       3.76523629       0.00000000       0.00114477      -0.00060894      -0.00396113
C       -1.25075372       7.82940767       3.69683432       0.00000000      -0.00356842      -0.00528711       0.00223073
C       -2.47531189       9.97812579       3.71476150       0.00000000       0.00139042       0.00022490       0.00561823
C        4.93600954       1.42093227       3.81277879       0.00000000       0.00179830      -0.00082108       0.00606223
O        3.81918687       3.51262539       4.26498603       0.00000000      -0.00020662      -0.00930682      -0.00549725
C        1.22374623       7.78701422       3.98450124       0.00000000      -0.00238588      -0.00172270       0.00043326
C       -0.00469463       9.94548326       3.78072060       0.00000000       0.00124689       0.00075923       0.00176322
C        7.39195538       1.40118297       3.64654662       0.00000000      -0.00160655       0.00179640       0.00053866
C        6.16856373       3.52732533       3.66764150       0.00000000       0.00251520      -0.00284618      -0.00580715
C        4.98391609       5.63052305       3.89780015       0.00000000       0.00502644       0.00255719      -0.00395814
C        3.71763191       7.88473125       4.03431478       0.00000000       0.00104976       0.00180050      -0.00189634
C        2.46147795       9.94878155       3.76812366       0.00000000      -0.00142896       0.00190618       0.00255260
C        9.85541614       1.40510865       3.53138571       0.00000000      -0.00178622       0.00136083       0.00257908
C        8.61654753       3.54323725       3.47933198       0.00000000       0.00093722       0.00407259      -0.00199994
C        7.39492102       5.68172248       3.53983739       0.00000000       0.00103221       0.00203071       0.00210415
C        6.16804791       7.82698067       3.71176178       0.00000000      -0.00211586       0.00135762       0.00254399
C        4.93362063       9.97784674       3.66146376       0.00000000      -0.00311741      -0.00027077       0.00282292
Ta       2.05568118       4.75115121       5.17277057       0.00000000      -0.00807303       0.00368678       0.00523680
O        3.39455890       6.00439868       5.76007988       1.00000000      -0.00453105      -0.00229097      -0.00161556
O        1.12108210       4.27180677       6.57294450       1.00000000       0.01178556       0.00202469      -0.00334815
