52
Lattice="12.336457 0.0 0.0 -6.168228499999997 10.683685154694365 0.0 0.0 0.0 15.0" Properties=species:S:1:pos:R:3:forces:R:3 energy=-458.64000918906714 free_energy=-458.64000918906714 stress="-0.005495920467963038 -0.0005277643276756245 4.5134094445718273e-05 -0.0005277643276756245 -0.0026215608955967628 3.612843392953549e-05 4.5134094445718273e-05 3.612843392953549e-05 2.4654771087789568e-05" pbc="T T T"
C        0.01395472       0.03132815       3.72608390       0.00359901       0.00053715       0.00048385
C       -1.23113065       2.14627399       3.74134958      -0.00830271      -0.00393748       0.00107731
C       -2.47204792       4.28246078       3.67316224       0.01109544       0.00642310      -0.00656792
C       -3.69791804       6.42832223       3.61632550       0.00590914      -0.00125318       0.00112313
C       -4.92475257       8.57309168       3.64791946       0.00311725      -0.01084186       0.00212701
C        2.47779471       0.02726503       3.71739419       0.00053471      -0.01057072       0.00369283
C        1.24743408       2.17163777       3.93134083      -0.00434421      -0.00388080      -0.00687987
C       -0.03382870       4.26998146       3.99215855      -0.00222779      -0.00172068       0.00144673
C       -1.25977752       6.43015963       3.80103665      -0.00675400       0.00393042       0.00331577
C       -2.45929978       8.57043085       3.67139130       0.00282329       0.00658149      -0.00540989
C        4.94549083       0.01953980       3.64378398       0.00055293       0.00205714       0.00015660
C        3.71503122       2.15118328       3.76253131       0.00144882       0.00814628       0.00256387
B        1.17671041       6.44694294       4.19325996      -0.00770135       0.00599856      -0.00669141
C        0.00556892       8.56816407       3.77118119      -0.00528231      -0.00476440      -0.00379751
C        7.41927787       0.00679643       3.63180563      -0.00337572       0.00096300       0.00192171
C        6.18308611       2.14959098       3.57949641      -0.00013007      -0.00139906      -0.01117820
C        4.96022924       4.30284856       3.72497897      -0.00387417       0.01094023       0.00193135
O        3.77490175       6.45522081       3.90677489       0.00245642      -0.01673194       0.00422416
C        2.50352125       8.55064449       3.80544364       0.01000174       0.00699499      -0.01324331
C        9.88297085       0.00888878       3.66943879      -0.00181587       0.00016032      -0.00078110
C        8.64617478       2.14588633       3.58599529       0.01057349       0.00373037       0.00892147
C        7.41008036       4.29121336       3.56280272      -0.00432913      -0.01030724       0.00188163
C        6.18738638       6.44330372       3.62962260      -0.00009635       0.00309239       0.00815903
C        4.95626117       8.56233461       3.71149325      -0.00301551       0.01054238       0.00503665
C        0.00976363       1.44963727       3.79956888      -0.00766148       0.00228664      -0.00537840
C       -1.25461485       3.56004837       3.78359748       0.00013331      -0.00409968       0.00398141
C       -2.47772225       5.71196550       3.68263674       0.00405552       0.00257426       0.00072173
C       -3.69075585       7.85696043       3.63622738       0.00752357       0.00175169       0.01136065
C       -4.92094986      10.00175798       3.70011839      -0.00109900      -0.01053160       0.00181956
C        2.47614322       1.44763545       3.81876509       0.00141236      -0.00329937      -0.00780662
C        1.20203892       3.57963653       4.13975794       0.00680833       0.00377098      -0.00178184
C       -0.07074116       5.68872164       4.00181145      -0.01166700       0.00035660       0.00681643
C       -1.23096733       7.85424770       3.75165764      -0.00767382      -0.00209068      -0.00977136
C       -2.45938569       9.99538557       3.66872366       0.00393342       0.00160746       0.01226302
C        4.95228595       1.43626806       3.63551027       0.00061778       0.00102291       0.00600336
C        3.76488151       3.55234553       3.86635332       0.00531328       0.00522077      -0.00199701
C        1.24705162       7.87715907       3.90265632       0.00651684       0.00930183      -0.00571612
C        0.00982669       9.98847504       3.66324968      -0.00461410      -0.00417985       0.00041446
C        7.41606299       1.43107712       3.57474762       0.00743388       0.00528695       0.00552490
C        6.19486147       3.57460598       3.57813533      -0.01450383      -0.00146770      -0.00685489
C        5.00014616       5.72318532       3.74999265      -0.00070418       0.00538794       0.00982954
C        3.73987764       7.88111502       3.81716838       0.00490508      -0.00156301      -0.01569733
C        2.49038084       9.97876169       3.68340050      -0.00108647       0.00632461       0.00235133
C        9.87703484       1.43468618       3.64811800      -0.00079454      -0.01006176       0.00447013
C        8.64129124       3.57188571       3.58394961       0.01070110       0.00374661       0.00030776
C        7.41204348       5.71461833       3.58739651       0.00571437      -0.00494131       0.00157815
C        6.19115553       7.86369598       3.65664815      -0.00421378       0.00249780      -0.00177001
C        4.94858617       9.99143046       3.69887677       0.00293391       0.00862550      -0.00107582
Ta       2.67166031       4.92525555       4.90148192       0.01026842      -0.01014641       0.00974407
O        2.69091151       4.57677752       6.65062483      -0.01172492       0.00685503      -0.00372123
O        2.71932282       4.34825532       8.04096287      -0.00605859      -0.01327054      -0.00975095
H        3.48691830       4.88547319       8.33032467      -0.00733254      -0.00565616       0.00062119
