52
Lattice="12.336457 0.0 0.0 -6.168228499999997 10.683685154694365 0.0 0.0 0.0 15.0" Properties=species:S:1:pos:R:3:forces:R:3 energy=-454.5281207220948 free_energy=-454.5281207220948 stress="-0.003523764934298551 -0.0016321180280718154 4.025684218942942e-07 -0.0016321180280718154 -0.007475381865322758 -4.3201316900315595e-05 4.025684218942942e-07 -4.3201316900315595e-05 -1.399794243909963e-05" pbc="T T T"
C       -0.01253883      -0.02964954       3.51567746       0.00260238       0.00006610       0.00228562
C       -1.25344824       2.11227036       3.72003986       0.00450752       0.00530423       0.00016319
C       -2.50021206       4.25100367       3.67255428      -0.00325986       0.00528410       0.00291676
C       -3.71565716       6.38465038       3.51638027      -0.01246541      -0.00871899      -0.00419907
C       -4.94132148       8.51509658       3.40129071      -0.00057207      -0.00364554      -0.00109309
C        2.46199776      -0.06847337       3.46711998      -0.00687117       0.00278438       0.00356361
C        1.23600361       1.99859524       3.89212609       0.00799828      -0.00910807      -0.00650692
C       -0.08693499       4.28762821       4.00599661      -0.00691293      -0.00826569       0.00842513
C       -1.26941118       6.40233941       3.74461782      -0.00258931      -0.00868095       0.00445192
C       -2.46506610       8.51118120       3.48347923       0.00029811       0.00436003       0.00441580
C        4.93181583      -0.03326283       3.56525334       0.00088150       0.00223636       0.00486081
C        3.67597490       2.04853141       3.76936503       0.00307976      -0.00846007       0.00268097
B        1.19158604       6.42271593       4.38660237      -0.00718038       0.00927485      -0.00178312
C       -0.00462319       8.52780727       3.75362406       0.00141094       0.00503491      -0.00200871
C        7.38877147      -0.00969897       3.65597538       0.00697754       0.00130265      -0.00223299
C        6.14282709       2.13295036       3.72345325       0.00001785      -0.00225131      -0.00551789
C        4.89595977       4.31742004       4.01486933       0.01510345      -0.00880791       0.00671570
N        3.81729319       6.51900260       4.10335177       0.00199208       0.00539046      -0.00287452
C        2.47489694       8.54287699       3.82398874      -0.00052173      -0.00336948      -0.00227381
C        9.85583933      -0.01170603       3.59794170      -0.00011237       0.00361239      -0.00812695
C        8.61179693       2.12389719       3.64977431      -0.00455240       0.01040490       0.00508557
C        7.36269321       4.26067761       3.67702508       0.00946799      -0.00208859      -0.00900948
C        6.16381680       6.41364174       3.59216665      -0.00315466      -0.00321262      -0.00832117
C        4.93625986       8.53742209       3.53769453       0.00088381       0.00404417       0.00492237
C       -0.01856445       1.38350283       3.70784765       0.00658296       0.00216913      -0.00239367
C       -1.27104898       3.53097057       3.79005209      -0.00740891       0.00351644       0.00246902
C       -2.49318513       5.67533277       3.62399873      -0.00998663      -0.00384626      -0.00039306
C       -3.70430710       7.80387352       3.43782941      -0.00115844      -0.00418151       0.00710687
C       -4.94905494       9.93216695       3.42892430      -0.00326950      -0.00023894      -0.00005500
C        2.46145699       1.32271354       3.67680187       0.00684088      -0.00304359      -0.00552342
P        1.46542556       3.62433615       4.44513366       0.00306387      -0.00763226      -0.01187647
C       -0.07790638       5.69603372       4.01847278       0.00095728      -0.00912232       0.00341714
C       -1.23870077       7.81488638       3.65948853       0.00215571      -0.00322816       0.00079913
C       -2.46323195       9.92638696       3.46946594      -0.00630002       0.00816397       0.00998990
C        4.92413668       1.39175888       3.67026940       0.00193628      -0.00485633      -0.00629025
B        3.58058732       3.49647030       4.15413218      -0.01724432      -0.00681022       0.00146622
C        1.23955807       7.85354442       3.98067099      -0.00270476       0.00049369      -0.01523339
C       -0.00703750       9.95014344       3.64019970       0.00643318       0.00485364      -0.00592894
C        7.37688877       1.41848762       3.66063078      -0.00273732       0.00490604      -0.00734337
C        6.12483895       3.56396693       3.80322029       0.01660867      -0.00339204       0.00859583
C        4.95715338       5.75423316       3.89275578       0.00202791      -0.00491427       0.00011486
C        3.72940960       7.84504689       3.79110667      -0.00102702       0.00864143       0.00316481
C        2.46036217       9.96511723       3.66936832       0.00295736      -0.00544583       0.00484146
C        9.85174997       1.41104292       3.63526875      -0.00237642       0.00722805       0.00744432
C        8.60016680       3.54615682       3.65060206       0.00388357       0.00714703       0.00505246
C        7.38378569       5.68066264       3.57820074      -0.00699354      -0.00813435      -0.00447236
C        6.16130735       7.82203624       3.47772119      -0.00176935      -0.00323234      -0.00662840
C        4.92183667       9.95722808       3.52039684       0.00303807       0.00155363       0.00382078
Ta       2.90924783       5.22979136       5.38136053      -0.00100677       0.01080741       0.00245354
O        3.05247319       5.26151055       7.16960480       0.00232983      -0.00025231       0.00560631
O        3.14951273       5.27446838       8.56569602       0.00175311       0.01524833      -0.00256023
H        4.10459492       5.12221484       8.72154221      -0.00361461       0.00111164       0.00581618
