52
Lattice="12.336457 0.0 0.0 -6.168228499999997 10.683685154694365 0.0 0.0 0.0 15.0" Properties=species:S:1:pos:R:3:forces:R:3 energy=-447.31434357052024 free_energy=-447.31434357052024 stress="-0.0046625037875189556 0.00016437393185119454 -6.2211064515925066e-06 0.00016437393185119454 -0.009084496942303944 -6.3635340080511005e-06 -6.2211064515925066e-06 -6.3635340080511005e-06 2.256085276126389e-05" pbc="T T T"
C        0.08278766       0.01594920       3.47273204      -0.00188068       0.00404308      -0.00764679
C       -1.13930715       2.18847729       3.45840022      -0.00307194       0.00331254      -0.00218331
C       -2.36213406       4.31399412       3.73933583       0.00607108       0.00083688      -0.00223268
C       -3.60116175       6.45044490       3.82893509       0.00457797       0.00002152      -0.00211460
C       -4.85924595       8.56726048       3.73495316       0.00276890      -0.00017291       0.00549066
C        2.54782289      -0.04226913       3.31974921      -0.00569499      -0.00167441      -0.00044083
C        1.31343800       2.07174405       3.04935081       0.00184772      -0.00337193      -0.00214627
C        0.11132804       4.31737367       3.85078342       0.00918258      -0.00236275       0.00638027
C       -1.16538426       6.47101621       3.99823424      -0.00248031      -0.00100236      -0.00492181
C       -2.37462757       8.57305548       3.68035326       0.00472642       0.00955150       0.01361520
C        5.02332387       0.02831411       3.47816934      -0.00389884      -0.00019497      -0.00125434
C        3.76137485       2.07318416       3.34646147      -0.00062874      -0.00443362      -0.00074189
B        1.28102299       6.62001183       4.44071893       0.00108453      -0.00468764      -0.01085886
C        0.08085769       8.63733404       3.85717310      -0.00012194      -0.00398204       0.00173858
C        7.48812758       0.07713305       3.61267881       0.00025440      -0.00092582      -0.00409592
C        6.24831689       2.19371773       3.57086678      -0.00300925      -0.00014084      -0.00414812
C        5.09079922       4.35943052       4.01942213       0.00060613      -0.00007913      -0.00412332
S        3.73641008       6.46861139       5.12662815      -0.00269806       0.00412295       0.00286375
C        2.57181919       8.70124385       4.06883926      -0.00142576      -0.00390324       0.00482252
C        9.96916087       0.07478151       3.63491401       0.00087491      -0.00478428       0.00310192
C        8.72824508       2.19944432       3.56959658       0.00405018       0.00364325       0.00221932
C        7.50435665       4.32436436       3.76043592      -0.00155654       0.00013388      -0.00108053
C        6.28772324       6.47352918       4.09539075      -0.00778499       0.00118116      -0.00710919
C        5.02847756       8.62306970       4.02453016      -0.00714452       0.00096327      -0.00199898
C        0.08329080       1.44062718       3.29256192      -0.00267099       0.00662651      -0.00313470
C       -1.14619928       3.58576752       3.65425083       0.00459083       0.00179034      -0.00111230
C       -2.36993594       5.74133064       3.85367008       0.00143459      -0.00287565      -0.00079671
C       -3.61168339       7.86577362       3.75206576       0.00838884       0.00364491      -0.00342490
C       -4.86078101       9.96689739       3.48822839      -0.00526204       0.00015770      -0.00033623
C        2.53842206       1.35917723       3.15134726      -0.00049206      -0.00425343       0.00548969
P        1.46511914       3.83421104       2.71591972       0.00191568       0.00314112      -0.00196655
C        0.05464226       5.73950781       4.20759031      -0.00227366       0.00108319      -0.00038939
C       -1.14219761       7.88660086       3.86059776      -0.00118272      -0.00116688       0.00227294
C       -2.37393955       9.97571511       3.47689840      -0.00401501       0.00475098      -0.00774721
C        5.02712250       1.45091877       3.44947189      -0.00166668      -0.00316673      -0.00525888
P        3.52003127       3.61489231       4.05827173       0.01227789      -0.00317942       0.00699029
C        1.33036411       8.01765426       4.12150841       0.00049679      -0.00379956      -0.00250993
C        0.08582939      10.03677972       3.62991262      -0.00251529      -0.00229619       0.00145500
C        7.48529022       1.49358078       3.55492429       0.00126071       0.00411993      -0.00090610
C        6.27215945       3.60984702       3.74473195      -0.00484060      -0.00117222      -0.00187313
C        5.12588250       5.72144254       4.36044114      -0.00281541      -0.00141492       0.00914408
C        3.78694656       8.02585650       4.34847598      -0.00417737      -0.00275920       0.00777646
C        2.56592493      10.07858772       3.74615037       0.00054123      -0.00421189       0.00474575
C        9.96344393       1.49014087       3.52622300       0.00006879      -0.00488348      -0.00135013
C        8.73581857       3.61556059       3.66388131       0.00314185       0.00367581       0.00609958
C        7.50548936       5.74462750       3.88151000       0.00126207       0.00061938       0.00131632
C        6.25684041       7.88833040       3.99166213      -0.00402699       0.00352123       0.00718326
C        5.02597625      10.02515430       3.70207394       0.00231782       0.00140706       0.00722646
Ta       1.73943381       4.69794611       5.22523714      -0.00617386       0.00189343       0.00608340
O        0.99549140       3.97313908       6.70339754       0.00732769      -0.00261661      -0.01059208
O        0.41471858       3.37915149       7.83792288       0.01023437       0.00417349       0.00104433
H        0.86187983       3.84356582       8.57664984      -0.00779471       0.00109698      -0.00856408
