52
Lattice="12.336457 0.0 0.0 -6.168228499999997 10.683685154694365 0.0 0.0 0.0 15.0" Properties=species:S:1:pos:R:3:forces:R:3 energy=-447.5736744022277 free_energy=-447.5736744022277 stress="-0.004068617560654973 -0.0013453010635810963 -7.097340660793245e-06 -0.0013453010635810963 -0.010791533377188432 2.1805814564591605e-05 -7.097340660793245e-06 2.1805814564591605e-05 -2.5335884516260617e-05" pbc="T T T"
C       -0.09557772       0.00206571       3.54669155      -0.00141928      -0.00652419       0.00215207
C       -1.33351873       2.14397129       3.80620476       0.00634667       0.00014957       0.01030595
C       -2.57950652       4.28418454       3.87862062      -0.00594676      -0.00199282       0.00389726
C       -3.79808558       6.41572022       3.81515546      -0.00670116       0.00187615      -0.00499936
C       -5.02826931       8.53814415       3.64289370       0.00989720      -0.00349676       0.00640479
C        2.37218377      -0.04696246       3.55081596      -0.00423596      -0.01179419       0.00027344
C        1.14479645       2.01268892       3.98659099       0.00155108      -0.00515489       0.00174020
C       -0.22167328       4.25328219       4.45534740       0.00856182       0.00481935      -0.01368812
C       -1.33082399       6.41864672       4.06751284      -0.00033179      -0.00051835      -0.01196839
C       -2.54571792       8.53207435       3.73383934      -0.00278708      -0.00332368      -0.01073261
C        4.83931974      -0.00284525       3.53995208       0.00708174      -0.00644272      -0.01074264
C        3.57347171       2.07454260       3.39473783       0.00087599       0.00812933       0.00703066
P        1.47392766       6.33710344       4.59352387      -0.00219431      -0.00204972       0.01163974
C       -0.08801323       8.58184636       3.87836466      -0.00114302      -0.00173764      -0.00854644
C        7.29376289       0.04891285       3.53046928      -0.00070139      -0.00154974      -0.00895709
C        6.06094282       2.16193297       3.45511634      -0.00045682      -0.00031504      -0.00278955
C        4.83845826       4.30575956       3.67665228       0.00323824      -0.00377718       0.01876990
B        3.49220776       6.52029237       4.08540677      -0.01320607      -0.00445289      -0.00820516
C        2.37628867       8.66733187       3.72441878       0.00111800       0.00810843      -0.00322729
C        9.78161212       0.05133760       3.48528639      -0.00426850       0.00431106       0.01017650
C        8.53496817       2.17174537       3.56996020      -0.00564213      -0.00525196       0.00334977
C        7.29639227       4.28953896       3.69449006      -0.00630712       0.00615613       0.00191928
C        6.07649861       6.44139958       3.85332442      -0.00059138       0.01137973      -0.00185846
C        4.84573935       8.58853705       3.60060879       0.00840101       0.00515021       0.00072325
C       -0.10802789       1.41345366       3.74560240       0.00342788      -0.00514909       0.00276054
C       -1.36680211       3.54366800       4.03988311       0.00694960       0.00437670      -0.01140044
C       -2.56408254       5.70825517       3.92265539      -0.00783365      -0.00031498       0.00343388
C       -3.78996732       7.83124467       3.73581070       0.00106539      -0.00103496      -0.00465848
C       -5.03324632       9.95281423       3.56057690      -0.00556794      -0.00883931       0.00969501
C        2.35699614       1.36894485       3.60055702       0.00425727      -0.00635528       0.00894836
S        1.14635515       3.35773424       5.05576131      -0.00113410       0.01085440       0.00863405
C       -0.14886342       5.65418008       4.36683368       0.00378862       0.00320748      -0.00684242
C       -1.31279597       7.83773553       3.90820543      -0.00665955       0.00054055       0.01198228
C       -2.55203189       9.94577117       3.58450871       0.00057273      -0.00481669       0.01053532
C        4.83012739       1.42310726       3.42144438       0.00335536      -0.00294397       0.00801649
P        3.40825091       3.72777748       2.75204957       0.00052974       0.00726410      -0.00749779
C        1.17740882       7.97091844       4.04151121      -0.00029051       0.00143158      -0.01663434
C       -0.09595716       9.99593105       3.63586287       0.00686370      -0.00323668      -0.00138260
C        7.29866813       1.46365089       3.48506305      -0.00524403      -0.00342710       0.00488761
C        6.08513101       3.56472758       3.57323246      -0.00043807       0.00318132      -0.01013185
C        4.83080505       5.72661429       4.00353802       0.00028085       0.00457267      -0.00162314
C        3.59454718       7.95455995       3.72123828       0.00344072       0.00515325      -0.01126086
C        2.36835181      10.05433337       3.52801508      -0.00303354       0.00785677      -0.00555425
C        9.78061284       1.46567553       3.58291515       0.00305395       0.00188962      -0.00660352
C        8.53067297       3.58387876       3.69301344      -0.01013408      -0.00405500       0.00495279
C        7.29650319       5.71541763       3.79421463      -0.00443621       0.00811620       0.00114428
C        6.07218316       7.85008805       3.70325242       0.01165719       0.00560177      -0.01057776
C        4.84053530      10.00306948       3.49786154      -0.00227618       0.00222953       0.00588571
Ta       3.27656165       4.62036475       5.14608903       0.00581689      -0.00553748       0.01375290
O        4.21604700       4.58648333       6.69817101      -0.00316072       0.00149515      -0.00606484
O        4.76560116       4.62479640       7.99450955      -0.00023435       0.00532270       0.01698340
H        5.68733592       4.32558703       7.85040806       0.00424407      -0.01908145      -0.00404802
