52
Lattice="12.336457 0.0 0.0 -6.168228499999997 10.683685154694365 0.0 0.0 0.0 15.0" Properties=species:S:1:pos:R:3:forces:R:3 energy=-456.10366323330385 free_energy=-456.10366323330385 stress="0.0004176628499988929 0.0018971753552189754 1.2665752753909239e-05 0.0018971753552189754 -0.006115667396013403 4.887152156165211e-05 1.2665752753909239e-05 4.887152156165211e-05 5.10631143386881e-05" pbc="T T T"
C       -0.00476155      -0.00103816       3.61967038      -0.00546081       0.00574060       0.00786351
C       -1.22841481       2.15410462       3.69105410      -0.00637742      -0.00384797      -0.01194173
C       -2.47959210       4.28816374       3.72165264       0.00440076       0.00154739      -0.00065833
C       -3.72024767       6.40856078       3.73495524       0.00471919       0.00684016       0.00188959
C       -4.95434605       8.53263575       3.67093664       0.00534196       0.00405917      -0.00387621
C        2.47103349      -0.01908355       3.69896719       0.00752265      -0.01011576       0.00313160
C        1.24487439       2.08464332       3.91918235       0.00167964      -0.00434340      -0.00435077
C       -0.04593380       4.30533435       3.98637007      -0.00279621      -0.00420177      -0.00529246
C       -1.22034489       6.42310764       3.81738564      -0.00974026       0.01455053       0.00220846
C       -2.47192797       8.53800640       3.68282808      -0.00446306      -0.00095694      -0.00289723
C        4.93392057      -0.00265754       3.61223915       0.00230585      -0.00893666       0.00432716
C        3.73008524       2.11397581       3.87431468       0.00400875      -0.00479019      -0.00902968
B        1.44213208       6.42224699       4.07530465       0.01395579      -0.00537580       0.00235715
C        0.00197741       8.55670045       3.66378779      -0.01115821       0.00299144       0.00303658
C        7.39188505       0.03053368       3.48849602       0.00390017       0.00811028       0.00162186
C        6.16580829       2.13964910       3.62428788       0.00407858       0.00155057      -0.00503467
C        4.93868519       4.21915739       3.93008414      -0.01095234      -0.00391613       0.00131490
B        3.48532361       6.45150690       3.94849150       0.00340727      -0.00690315       0.00607391
C        2.45618211       8.62358549       3.56254663      -0.00046310       0.00065522       0.01750130
C        9.87439282       0.03575252       3.48262360       0.00096343       0.01221142       0.00272365
C        8.63553002       2.16065080       3.55369637       0.00970425       0.00080551      -0.00156451
C        7.38590523       4.28000460       3.69850385       0.00391694       0.00035233       0.00099065
C        6.11179107       6.39540498       3.79932765      -0.00621990      -0.00354750       0.00763318
C        4.92176921       8.55883642       3.59031564       0.00093341       0.00339081      -0.00461880
C       -0.00386940       1.42103163       3.72987306      -0.00603983      -0.00047124      -0.00009416
C       -1.24803182       3.57311992       3.78650885      -0.00484145      -0.00876054      -0.00026823
C       -2.47158902       5.71047099       3.76156335       0.00282041       0.00865245       0.00213062
C       -3.71423712       7.82847923       3.70307967       0.00397090       0.00040198      -0.00505829
C       -4.94176445       9.95907633       3.65462766       0.00208103       0.00051447       0.00707335
C        2.48720312       1.40200997       3.83847113       0.00231110      -0.01005437      -0.00080023
B        1.19753755       3.50938577       4.24182499       0.01251448      -0.00235918       0.00351605
C        0.02469641       5.71127128       3.96827630      -0.01531346      -0.00262989       0.00322035
C       -1.23414722       7.83767365       3.72861711      -0.01086254       0.01194179      -0.00788265
C       -2.46773398       9.95956939       3.65606832       0.00522640      -0.01018003       0.00492854
C        4.94501107       1.41853365       3.66919990       0.00614339      -0.00614175      -0.00119797
N        3.79921452       3.45585052       4.14211618      -0.00977171      -0.00187549      -0.00548111
C        1.25169717       7.89396028       3.72904341      -0.00729757      -0.00210535      -0.00013258
C       -0.00158041       9.98185135       3.56129506       0.00111281      -0.00004816      -0.00267887
C        7.39874220       1.44816482       3.52391766       0.00920122       0.00550847       0.00208047
C        6.16300730       3.54899942       3.71620677      -0.00466550       0.00337651      -0.01566542
C        4.85694017       5.65650652       3.95447494      -0.00995189      -0.00525962       0.00164853
C        3.66865046       7.90373388       3.62331067       0.00312111      -0.00913466       0.00144258
C        2.46315268      10.02937876       3.45537655       0.00502439       0.00881183       0.01319826
C        9.87535728       1.45391309       3.54893818       0.00124641       0.00730428      -0.00506769
C        8.62675655       3.57849564       3.64227632       0.00918678      -0.00133528       0.00615089
C        7.36656539       5.70057975       3.75317231      -0.00234865       0.00373085       0.00785779
C        6.13988359       7.82106986       3.69225716       0.00102448       0.00342266       0.00027437
C        4.93214354       9.98708505       3.53494701      -0.00692779       0.01200803       0.00165502
Ta       2.71580852       4.84673858       5.15941319       0.00280637       0.01166948      -0.00301154
O        2.89125604       4.78050021       6.94837323       0.00459180      -0.00973010      -0.00712507
O        3.01746402       4.72332765       8.34076107      -0.00260139      -0.01224375      -0.00377955
H        3.97413008       4.87751571       8.48525066      -0.00496861      -0.00088354      -0.01034255
