52
Lattice="12.336457 0.0 0.0 -6.168228499999997 10.683685154694365 0.0 0.0 0.0 15.0" Properties=species:S:1:pos:R:3:forces:R:3 energy=-452.80565292971977 free_energy=-452.80565292971977 stress="-0.0024616301113187613 0.00120930565306229 -5.894916078888229e-06 0.00120930565306229 -0.007359734714215908 1.158842055258362e-05 -5.894916078888229e-06 1.158842055258362e-05 1.132667983902726e-05" pbc="T T T"
C       -0.04486319      -0.00271766       3.60135806      -0.00461439       0.00262219       0.00866681
C       -1.28987198       2.12773432       3.79388702      -0.00438644      -0.00039436      -0.00186039
C       -2.54017600       4.27400127       3.74687385       0.00047182      -0.01085306      -0.00173928
C       -3.76877967       6.40353211       3.67797948       0.01004479       0.00369435      -0.00334964
C       -4.99333775       8.52948781       3.59324646       0.00188452      -0.00795029      -0.00710258
C        2.42336969      -0.02093530       3.66192755       0.00322920      -0.00681451      -0.00265271
C        1.19049936       2.02269697       4.18492333      -0.00462484       0.00201775      -0.00138443
C       -0.17807185       4.26885017       4.31543592      -0.00270786      -0.00094893      -0.00731176
C       -1.29323793       6.41172290       3.84013352       0.00609642       0.00257600      -0.01387962
C       -2.51418825       8.53104302       3.60553558       0.00089272       0.00227432       0.00164853
C        4.88426527      -0.01030233       3.51326108       0.00067017      -0.00746367      -0.00281498
C        3.68897441       2.09532402       3.87910360      -0.00040722       0.00824814       0.00118034
P        1.50531118       6.34533902       4.36331528      -0.00298690       0.00606259      -0.00907096
C       -0.04661184       8.55958927       3.62101208      -0.00934348      -0.00106699      -0.00238521
C        7.34583088       0.02545640       3.37065996      -0.00524197       0.00781029      -0.01693797
C        6.11699968       2.12756971       3.52299213       0.00221965       0.00073330      -0.00627287
C        4.91484789       4.18496492       3.94538964       0.00189111       0.00822376       0.00785791
B        3.51523201       6.47157723       3.86203409      -0.01321240      -0.00071896       0.01296582
C        2.42423165       8.63252908       3.44112236      -0.00116786       0.00121402      -0.00291042
C        9.83560727       0.03513037       3.38433650       0.00179666       0.00013397      -0.00099822
C        8.58783747       2.15167887       3.48678556       0.01220289      -0.00789162       0.00430370
C        7.34052726       4.27225746       3.63355748       0.00521557       0.00768528      -0.00606103
C        6.08684066       6.39731027       3.77185070      -0.01327316      -0.00542410      -0.00158539
C        4.88952409       8.56354967       3.46783615       0.00601161      -0.00598384      -0.00448536
C       -0.05098426       1.40346841       3.85117510      -0.00835298       0.00165402       0.00620601
C       -1.33304756       3.54013222       3.95028736      -0.00097097      -0.00528377      -0.00659350
C       -2.53237196       5.69857444       3.74844856       0.00876917      -0.00356847       0.00034176
C       -3.75754407       7.82276973       3.62731771       0.00811200      -0.00013984       0.00087424
C       -4.98403035       9.95592762       3.60315600      -0.00012679      -0.00764467       0.00016598
C        2.43298707       1.38531032       3.90551602      -0.00198794      -0.00342785       0.00730409
P        1.16058812       3.48591942       5.14313340       0.00070728       0.00989473      -0.01073845
C       -0.10717082       5.66375157       4.11948649       0.00197244       0.00168583      -0.00446585
C       -1.27953045       7.82817245       3.68915917      -0.00577309       0.00654405       0.01586811
C       -2.51539193       9.95432327       3.57080816       0.00479342      -0.00460924       0.01286534
C        4.89104319       1.41104971       3.58775059      -0.00126700      -0.00101945      -0.00406738
N        3.77258777       3.42562191       4.18478919      -0.00268879       0.00938819       0.01391175
C        1.21743372       7.94143358       3.72446149      -0.00620974       0.00823468       0.01184905
C       -0.04971873       9.97917870       3.46014680      -0.00227726      -0.00275872       0.00170306
C        7.35130862       1.44104877       3.41569050       0.00697414       0.00398844      -0.00036573
C        6.12136669       3.53612040       3.64409744       0.00477481       0.00399978       0.00742668
C        4.83873221       5.64470035       3.99407435      -0.01237286       0.00108062      -0.00773890
C        3.63953379       7.90871587       3.46477572       0.00376662      -0.00579454       0.00723314
C        2.42305479      10.03185234       3.32632372      -0.00254514       0.00609593      -0.00988489
C        9.83068944       1.44580568       3.51881903       0.00612987      -0.00338876       0.01085743
C        8.57533590       3.56772356       3.59717955       0.00355303      -0.00876078      -0.00380206
C        7.32251414       5.69511491       3.70200184      -0.00417775       0.01047509       0.00853033
C        6.10418114       7.81815995       3.61451678      -0.00138580      -0.00721582       0.00177234
C        4.89626590       9.99085601       3.44215073      -0.00147103       0.00102264       0.00375599
Ta       3.20404236       4.95386922       5.42015562       0.00596617       0.00606477      -0.00843748
O        3.62682967       5.10588486       7.15387069       0.00359168      -0.00518639      -0.00024641
O        3.90139401       5.23939879       8.52279674       0.00825321      -0.00919454       0.01308730
H        4.79549250       4.84699691       8.60842315      -0.00641734       0.00007844      -0.01123220
