51
Lattice="12.336457 0.0 0.0 -6.168228499999997 10.683685154694365 0.0 0.0 0.0 15.0" Properties=species:S:1:pos:R:3:initial_magmoms:R:1:forces:R:3 energy=-455.31888844992574 free_energy=-455.31888844992574 stress="-0.0016324181566155314 -0.0022906407789783875 7.4609867826083e-05 -0.0022906407789783875 -0.00677668988349331 -9.392504681073954e-06 7.4609867826083e-05 -9.392504681073954e-06 0.00012090987577197073" pbc="T T T"
C       -0.06213625      -0.00923947       3.67079118       0.00000000      -0.00517329      -0.03163102       0.06025990
C       -1.30365664       2.14597803       3.67693156       0.00000000       0.05081366      -0.00042459       0.04010653
C       -2.52771728       4.27647447       3.74040576       0.00000000      -0.01061331      -0.00701312      -0.05105789
C       -3.74818829       6.41195975       3.70695138       0.00000000       0.01918003      -0.02320924       0.02375892
C       -4.97837187       8.54327127       3.67535482       0.00000000       0.01051661       0.02163526       0.01981329
C        2.41459564      -0.05651448       3.78560421       0.00000000      -0.00015505      -0.00653326      -0.07042863
C        1.17560340       2.06800524       3.75751038       0.00000000      -0.03396998       0.01520762       0.01389469
C       -0.03940932       4.30117351       3.86427682       0.00000000      -0.01041082      -0.00086706      -0.00342915
C       -1.29144374       6.40444835       3.96114285       0.00000000       0.02133376       0.03879578      -0.00163952
C       -2.50363625       8.52886590       3.83027277       0.00000000      -0.01095526       0.03969686       0.01617338
C        4.87841107      -0.00083126       3.72916719       0.00000000       0.00370895       0.02864826      -0.00992147
C        3.59298925       2.05932306       3.49497171       0.00000000      -0.02310795       0.04523073      -0.03922973
B        1.12486862       6.47211671       4.61561129       0.00000000      -0.05987026       0.06169911      -0.03325306
C       -0.03762457       8.56670497       3.96924571       0.00000000      -0.03780157      -0.02063835      -0.00822643
C        7.34478971       0.02032678       3.69553495       0.00000000      -0.07871168      -0.00666737       0.00269569
C        6.08389990       2.16285562       3.56501371       0.00000000       0.03447323       0.01640091       0.00516316
C        4.82844013       4.36627895       3.59347253       0.00000000      -0.02801187      -0.06209444      -0.07370997
N        3.74144427       6.47467488       3.91524878       0.00000000       0.00572051       0.02252788      -0.01726488
C        2.41916325       8.55831545       3.89743138       0.00000000      -0.00167711      -0.02207388       0.04162888
C        9.80672377       0.01353776       3.63648939       0.00000000      -0.02865035       0.01324488       0.03389218
C        8.56121158       2.15405034       3.60709804       0.00000000       0.03287501      -0.01205555       0.04602265
C        7.32022234       4.28707794       3.62691039       0.00000000       0.03804610      -0.04579459      -0.06175787
C        6.14340235       6.45841794       3.57737418       0.00000000       0.00930943       0.00597307       0.03089204
C        4.88399329       8.55855336       3.67389100       0.00000000      -0.01767595      -0.04489588      -0.00189111
C       -0.07219769       1.41414420       3.70786750       0.00000000       0.03548821      -0.01836342       0.00622659
C       -1.28214296       3.56937299       3.75134517       0.00000000      -0.04838235      -0.00740897      -0.07303395
C       -2.52587961       5.69656768       3.80289323       0.00000000       0.03771495      -0.01045520      -0.04750876
C       -3.74228115       7.82879495       3.73700306       0.00000000       0.00531042       0.01022374       0.00601301
C       -4.99508726       9.95256576       3.72068461       0.00000000       0.00746892       0.02138003       0.02505599
C        2.39584626       1.34738522       3.72629030       0.00000000      -0.05248945      -0.01077088      -0.08226663
B        1.32795266       3.56563390       3.82487071       0.00000000       0.02786477       0.06521514       0.01606506
C       -0.08799920       5.68150500       4.08025887       0.00000000       0.02891961       0.00893030      -0.01883354
C       -1.27542778       7.83192954       3.95546197       0.00000000       0.00609732       0.03869244      -0.02759092
C       -2.50991415       9.94765128       3.79387491       0.00000000       0.01084752       0.01047018      -0.02097635
C        4.85592180       1.42390134       3.57440467       0.00000000       0.01590162       0.02649442       0.00479904
P        3.20892337       3.70285170       2.82352900       0.00000000       0.12262254       0.05913516       0.05298634
C        1.19756104       7.90007966       4.11257938       0.00000000      -0.04373448      -0.01381889       0.05050343
C       -0.05115938       9.99132382       3.79477945       0.00000000      -0.06954983      -0.03184027      -0.03099672
C        7.32468099       1.44763915       3.59923370       0.00000000       0.01992971       0.00703464       0.04594140
C        6.07913687       3.58599483       3.57863361       0.00000000       0.00185792      -0.02676938      -0.03096694
C        4.91184708       5.80419066       3.66581431       0.00000000       0.01581168      -0.01931424      -0.01218514
C        3.67317169       7.84188163       3.83962612       0.00000000      -0.02365809      -0.03861534       0.02693939
C        2.41299930       9.98496303       3.71925355       0.00000000      -0.05589719       0.00981596       0.02454091
C        9.80004203       1.43978387       3.61985239       0.00000000       0.03264875       0.02782059       0.03440957
C        8.56299694       3.57509909       3.65440613       0.00000000       0.00769382      -0.02595211      -0.03570451
C        7.35213251       5.71411795       3.61261996       0.00000000       0.02401147      -0.04796836       0.07790583
C        6.12370171       7.85999054       3.61797517       0.00000000       0.00087656       0.00086294       0.04624958
C        4.87383436       9.98000332       3.64405342       0.00000000      -0.02253849      -0.04641301       0.03640583
Ta       3.16948578       4.78978622       5.07366332       0.00000000       0.04757381       0.00296027       0.09742501
O        4.15933717       4.04362471       6.32654364       1.00000000       0.00809351       0.03503099      -0.01246538
O        1.81437184       6.00806807       5.74814879       1.00000000      -0.01967601      -0.05153876      -0.12142974
