52
Lattice="12.336457 0.0 0.0 -6.168228499999997 10.683685154694365 0.0 0.0 0.0 15.0" Properties=species:S:1:pos:R:3:forces:R:3 energy=-454.0674490200803 free_energy=-454.0674490200803 stress="-0.0022519864227980167 -0.0013746127366272309 3.103062195637104e-05 -0.0013746127366272309 -0.007473666073986715 -2.264119427755972e-05 3.103062195637104e-05 -2.264119427755972e-05 2.113941137908225e-05" pbc="T T T"
C        0.02874738      -0.05581328       3.61157183      -0.00692612      -0.00771535       0.00067804
C       -1.19598692       2.10521577       3.84203724       0.01012359       0.00143182       0.00895739
C       -2.41602570       4.24252607       3.87190468      -0.00217861       0.00256026       0.00426173
C       -3.66362804       6.37324589       3.67710452       0.00785085      -0.01232015       0.00160276
C       -4.89655052       8.49567697       3.54942664      -0.00000374      -0.00254826       0.00239936
C        2.50539456      -0.09670272       3.54104589       0.00701238       0.00662893       0.00003354
C        1.27663566       2.00267934       3.81701937      -0.00856064      -0.00750996       0.00715551
C        0.06738342       4.25199315       4.12081621      -0.00922083       0.00451563       0.00409512
C       -1.20821940       6.38855854       3.64501823       0.00167830       0.01312432       0.00062805
C       -2.42060007       8.49385073       3.46454504      -0.00346265      -0.00648958       0.01103282
C        4.97396708      -0.03611096       3.57175536      -0.00260998      -0.00709563      -0.00323405
C        3.70981005       1.98563997       3.96534284      -0.00564250       0.00164488      -0.01067954
B        1.19359772       6.44178185       3.29984005      -0.00183451      -0.00013573      -0.00220139
C        0.03982681       8.54175180       3.36807302       0.00556011       0.00510071       0.01552113
C        7.44087254      -0.00657849       3.58720735      -0.00113058      -0.00363478      -0.00410476
C        6.19267743       2.12052109       3.84751129      -0.00242454       0.00212523      -0.00102362
C        4.99839446       4.33086124       4.10788153       0.00352866      -0.00476660       0.00044058
N        3.77666156       6.46167133       4.15495834       0.00663960       0.00998658      -0.00008833
C        2.53323384       8.53959629       3.54182439       0.00350129       0.00441613      -0.00413561
C        9.91003564      -0.01528601       3.66099864      -0.00602867      -0.00267470       0.01832284
C        8.67066028       2.11889212       3.79681205       0.01359785      -0.00467162       0.00699171
C        7.43657288       4.25333532       3.86965532       0.00692581       0.00912921       0.00295076
C        6.20823896       6.40893007       3.81166222      -0.00544695      -0.00192753      -0.00134611
C        4.97655688       8.50885026       3.67202082      -0.00592484       0.00385513       0.00142245
C        0.02540232       1.36078257       3.74227751      -0.00372286      -0.00620066      -0.00471828
C       -1.18316776       3.52408585       3.97463917      -0.00536705       0.00263088      -0.00150491
C       -2.42776932       5.66847254       3.74314878       0.00869238      -0.00180383      -0.00720004
C       -3.65778265       7.78687374       3.54357826      -0.00040158      -0.01172262       0.00874599
C       -4.90749087       9.90619520       3.53036048       0.00354034       0.00550126      -0.00656037
C        2.49511929       1.28907997       3.74009778      -0.00430305       0.00595871      -0.00404491
B        1.39598008       3.45460989       4.13441853       0.00619034       0.00021664      -0.01305960
C        0.02311989       5.67122303       3.82577203      -0.00534294       0.00274641      -0.01201241
C       -1.17956884       7.79223259       3.45739133       0.00189268       0.01036960       0.00677838
C       -2.41777626       9.91014181       3.49322483      -0.00038750      -0.00794613       0.01071135
C        4.97217890       1.37618883       3.79791796      -0.00653371      -0.00861074       0.00544599
P        3.43432380       3.63066409       4.43126984      -0.00091823       0.00205767      -0.01371278
C        1.29986410       7.88107061       3.32695132       0.00448532       0.00458445       0.00424141
C        0.03838771       9.96120596       3.48142197       0.00040427      -0.00268836       0.01554940
C        7.42955181       1.41313063       3.73932312       0.00356809      -0.00052706       0.00218309
C        6.19460424       3.55137693       3.95266472       0.00560357       0.00969098      -0.01503026
C        4.96736055       5.75872915       4.03228822      -0.00442461      -0.00445553      -0.00915253
C        3.74858609       7.78896330       3.78085689       0.00054316       0.00830275      -0.00487436
C        2.51668115       9.96848076       3.58520558      -0.00423524      -0.00133107      -0.00012286
C        9.90663651       1.40668262       3.76092699       0.01606681      -0.00503257      -0.00173850
C        8.67676684       3.54074797       3.85239998       0.00205238      -0.00074205      -0.00435972
C        7.43386855       5.67481764       3.79160443       0.00296020       0.00238200      -0.00937677
C        6.20618525       7.80658576       3.66966882      -0.00698603      -0.00292642      -0.00661632
C        4.96591340       9.92981464       3.63025313      -0.01018330      -0.00278739      -0.00773072
Ta       1.94279013       5.40638310       5.01595089       0.00999740      -0.01448089       0.00842431
O        1.59422476       5.56087817       6.77014472      -0.00680837       0.00555626       0.00784360
O        1.33804401       5.66577161       8.14320488      -0.00509535       0.00388965       0.00125945
H        2.21051902       5.47045690       8.54431615      -0.00631042       0.00433913      -0.00904800
