51
Lattice="12.336457 0.0 0.0 -6.168228499999997 10.683685154694365 0.0 0.0 0.0 15.0" Properties=species:S:1:pos:R:3:initial_magmoms:R:1:forces:R:3 energy=-457.00641261212235 free_energy=-457.00641261212235 stress="-0.00402894694303913 -0.0022317138733402714 -1.752228764162347e-05 -0.0022317138733402714 -0.0010897244083928604 8.517922774825806e-06 -1.752228764162347e-05 8.517922774825806e-06 -6.725365312952101e-06" pbc="T T T"
C       -0.04527179       0.00203468       3.81162383       0.00000000      -0.00017872      -0.00366489      -0.00592500
C       -1.29227974       2.12577612       3.81418870       0.00000000       0.01099354      -0.00150505      -0.01645310
C       -2.50499630       4.26539395       3.73430497       0.00000000       0.00882304       0.00113069      -0.00045485
C       -3.71774959       6.41529077       3.67654739       0.00000000      -0.01069721       0.00526851      -0.00034004
C       -4.95860424       8.55951341       3.74087490       0.00000000      -0.00859582      -0.00449305       0.00424939
C        2.42265077       0.00767272       3.78733457       0.00000000      -0.00308495      -0.00258683       0.00337813
C        1.16014383       2.15970015       3.89748165       0.00000000      -0.00001946       0.00335007       0.00510013
C       -0.06309006       4.22934372       4.05429685       0.00000000      -0.00997208      -0.00564519      -0.00239686
C       -1.27811134       6.39641378       3.95599795       0.00000000       0.00219468      -0.00508558      -0.00499578
C       -2.49673652       8.55063549       3.82744215       0.00000000       0.00498538       0.00591749       0.00746375
C        4.88862234       0.01343894       3.69739084       0.00000000      -0.00344992       0.00700238       0.00504193
C        3.61907958       2.09110880       3.39110222       0.00000000      -0.00038247      -0.00547629       0.00858669
B        1.09872212       6.45081208       4.62181508       0.00000000       0.00212619       0.01149165       0.00339700
C       -0.04089917       8.56725282       3.98641027       0.00000000      -0.00443873       0.00914333      -0.00054421
C        7.35567441       0.00360735       3.72884287       0.00000000      -0.00930431      -0.00255349       0.00158145
C        6.11808854       2.14147275       3.42394214       0.00000000      -0.00023664       0.00425424       0.00169126
C        4.98107711       4.33420986       3.15534833       0.00000000      -0.00547818       0.00812136       0.00338905
C        3.74156834       6.38434094       3.78374547       0.00000000       0.00918028      -0.00125946       0.00071928
C        2.42159954       8.54062757       3.96352426       0.00000000       0.00026213      -0.00341877       0.01075532
C        9.82037302      -0.00943974       3.76934153       0.00000000       0.00143476       0.00030559       0.00557304
C        8.58760058       2.13273620       3.61929786       0.00000000       0.00175407       0.00201359       0.00843578
C        7.38619725       4.27923808       3.47579273       0.00000000       0.00224478       0.00065459      -0.00243291
C        6.18772548       6.44567240       3.51693374       0.00000000      -0.00301782      -0.00703728       0.01033071
C        4.89815800       8.54082699       3.76957787       0.00000000       0.00399873      -0.01059987       0.00023877
C       -0.05793797       1.42810836       3.85278574       0.00000000       0.00547996      -0.00216567      -0.01013153
C       -1.29053329       3.53580178       3.85311827       0.00000000       0.00832802      -0.00437017      -0.01230239
C       -2.50329927       5.68982506       3.77216416       0.00000000      -0.00501400       0.00408405      -0.00448438
C       -3.72735680       7.84083415       3.74741553       0.00000000      -0.00259356       0.00539239       0.00152486
C       -4.97414205       9.98016092       3.80281664       0.00000000      -0.00320229      -0.00660212       0.00851778
C        2.40410541       1.44218741       3.73017508       0.00000000      -0.00606623      -0.00103356       0.00012359
N        1.12683645       3.51519430       4.15246236       0.00000000      -0.00500614       0.00309978       0.00369081
C       -0.09023433       5.64937840       4.13706098       0.00000000      -0.00157365      -0.00434630      -0.00117661
C       -1.27265305       7.83732036       3.94843707       0.00000000       0.00640515      -0.00004688      -0.01796591
C       -2.50785315       9.98206234       3.77699624       0.00000000       0.00113419       0.00647236      -0.00004550
C        4.87994962       1.43387767       3.48749867       0.00000000      -0.00006898       0.00015484      -0.00801758
S        3.51367755       3.62587306       2.47667453       0.00000000       0.00135541       0.00582045      -0.00568813
C        1.18737220       7.89502393       4.15988503       0.00000000      -0.00593020      -0.00262174      -0.01020298
C       -0.04563778       9.98904617       3.79728586       0.00000000      -0.01188475       0.00800896      -0.00046482
C        7.34740506       1.42802443       3.57769654       0.00000000      -0.00265728      -0.00344576      -0.00611335
C        6.15652970       3.56219892       3.32252687       0.00000000      -0.00063654       0.00331044      -0.00846282
C        4.94538964       5.73643619       3.44754326       0.00000000       0.00724707       0.00336524      -0.00307677
C        3.66624649       7.80297150       3.86188468       0.00000000       0.00463866      -0.00558648      -0.00122267
C        2.42073615       9.96659582       3.80975453       0.00000000      -0.00278621      -0.00029625       0.00508778
C        9.81514039       1.41453601       3.72668667       0.00000000       0.00723115       0.00578417       0.01181003
C        8.60080684       3.55682101       3.59378033       0.00000000       0.00779751       0.00405196       0.01564709
C        7.39540996       5.70986359       3.52983265       0.00000000      -0.00809692      -0.00078165       0.00688500
C        6.14879410       7.85125331       3.67897763       0.00000000      -0.00428680      -0.00867830      -0.01255534
C        4.88984841       9.96387439       3.79443629       0.00000000       0.00109729      -0.00661711      -0.00595505
Ta       2.90374137       4.67105536       4.75496116       0.00000000       0.00607707      -0.00506918       0.00087559
O        3.92766966       3.86142258       5.91872345       1.00000000       0.01111766       0.00767188       0.00209825
O        1.84900003       5.94068526       5.72815356       1.00000000       0.00275313      -0.01088307       0.00521609
