52
Lattice="12.336457 0.0 0.0 -6.168228499999997 10.683685154694365 0.0 0.0 0.0 15.0" Properties=species:S:1:pos:R:3:forces:R:3 energy=-456.2378569152226 free_energy=-456.2378569152226 stress="-0.00026761457330622227 0.00058300613931908 -3.7798805455413265e-06 0.00058300613931908 -0.0072927996884010575 4.6449060862489916e-05 -3.7798805455413265e-06 4.6449060862489916e-05 5.46400570501304e-05" pbc="T T T"
C       -0.01048469      -0.00665197       3.58101008       0.00241864      -0.00293903       0.00627044
C       -1.23592360       2.15013840       3.67012159       0.01334086       0.00573616      -0.00178662
C       -2.47479467       4.28584589       3.72005965      -0.00620316       0.00084931      -0.00227322
C       -3.71332281       6.40747730       3.71827924      -0.00922807      -0.00144434       0.00789141
C       -4.95153140       8.53015297       3.63362267      -0.01079611       0.00746899       0.00149602
C        2.46293214      -0.03477530       3.66629158      -0.00434848      -0.00071376      -0.00409716
C        1.23083909       2.06753584       3.88673122       0.00523493      -0.00485029       0.00062244
C       -0.03090119       4.29544356       3.97033802       0.00250006      -0.00085296       0.01055052
C       -1.21884588       6.42007339       3.79551884       0.00551480      -0.01185572      -0.00815967
C       -2.47058170       8.53441533       3.65154046       0.00082159       0.00456897      -0.00412580
C        4.92872532      -0.00009621       3.61333388       0.00020197       0.01381942       0.00872855
C        3.69193778       2.10503410       3.88581533      -0.00599468      -0.00594497      -0.00748037
B        1.42539839       6.42975380       4.07733973      -0.00289883       0.01027798      -0.00024704
C       -0.00224695       8.56016049       3.64547145       0.00937947      -0.00006651       0.00656035
C        7.38654856       0.03637910       3.49507165      -0.00573786      -0.00552087       0.00478903
C        6.15634374       2.14799922       3.66622810      -0.00039528       0.00035991      -0.00752163
C        4.92667654       4.25751872       3.97548062       0.00779542      -0.00418379      -0.01292712
B        3.50662553       6.45153900       3.99015792      -0.00946091       0.00886490      -0.00122581
C        2.45432569       8.62430832       3.56876532       0.00569058       0.00137164       0.00129609
C        9.86784971       0.03608412       3.47078277      -0.00137180      -0.00311104       0.00857040
C        8.62835274       2.16149285       3.56658304      -0.00598760       0.00467126       0.00181683
C        7.38787785       4.28199198       3.72534091      -0.00617266      -0.00467541      -0.00126596
C        6.12798039       6.40865209       3.79847116       0.00768378       0.00266759      -0.00685450
C        4.92007678       8.55894592       3.58010327      -0.00197279      -0.00162655       0.00829911
C       -0.01319828       1.41299297       3.69437989       0.00973338      -0.00090838       0.00532942
C       -1.24262922       3.56893555       3.77406886       0.00335617       0.00732635      -0.00548517
C       -2.46630003       5.70771914       3.74733140      -0.00686939      -0.00471974       0.00592159
C       -3.71069389       7.82598166       3.67072403      -0.01116496       0.00655820      -0.00527114
C       -4.94663188       9.95140542       3.61198794      -0.00507181       0.00498080       0.00745817
C        2.46659522       1.37605441       3.81629899      -0.00226432      -0.00826358      -0.00160417
B        1.24224858       3.50652995       4.21753341      -0.00086098      -0.00335142      -0.00724196
C        0.02261936       5.70291086       3.95279839       0.01121512      -0.00081852       0.00882090
C       -1.23285433       7.83575623       3.70233634       0.00698743      -0.00800094       0.00458924
C       -2.46994808       9.95364124       3.63341615       0.00098116       0.00996523       0.00340509
C        4.93014002       1.41834741       3.70093540      -0.00146608       0.00763422      -0.00619969
C        3.73571871       3.49577850       4.13078946       0.00611062      -0.00580945      -0.00992071
C        1.24787743       7.89529476       3.71998475       0.00904373       0.00691565       0.01198942
C       -0.00705470       9.98642524       3.55661766      -0.00370194       0.00247259       0.00776994
C        7.39136875       1.45251998       3.54803377      -0.00575182      -0.00193989      -0.00358621
C        6.16471380       3.56142371       3.76296299       0.00381716      -0.00542243       0.00445255
C        4.88556842       5.68756507       3.97200616       0.00938867       0.00081146       0.00616311
C        3.66781108       7.90310905       3.64180277       0.00025548       0.00536215       0.00095515
C        2.45780187      10.03149649       3.45597244      -0.00397724      -0.00525651       0.00795513
C        9.86757545       1.45361101       3.54059907       0.00415257       0.00307646      -0.00534841
C        8.62757224       3.57882885       3.65877768      -0.00955220       0.00430326      -0.00627287
C        7.37743073       5.70404524       3.75760947       0.00076756      -0.00747603      -0.00470882
C        6.14427488       7.82762941       3.67338395      -0.00245864       0.00117698      -0.00539975
C        4.92620346       9.98557143       3.50982447       0.00326505      -0.00675690       0.00653738
Ta       2.64651449       4.88079403       5.26189295      -0.00740386       0.01006272      -0.01180037
O        2.91099188       4.75732367       7.04693346      -0.00140279      -0.00975063      -0.00743916
O        3.08525818       4.67792778       8.43212172       0.00943445      -0.01504060      -0.00644771
H        4.03296661       4.89584535       8.55090107      -0.00657639      -0.00000193      -0.00354724
