52
Lattice="12.336457 0.0 0.0 -6.168228499999997 10.683685154694365 0.0 0.0 0.0 15.0" Properties=species:S:1:pos:R:3:forces:R:3 energy=-456.2613925246969 free_energy=-456.2613925246969 stress="-0.004333786784679622 -0.002964205590762292 2.5311666120229334e-05 -0.002964205590762292 -0.005239123912744244 2.7359605691383645e-05 2.5311666120229334e-05 2.7359605691383645e-05 8.310803880399245e-06" pbc="T T T"
C       -0.09594984       0.03257137       3.77086927       0.00043818       0.00824245       0.00344252
C       -1.34527602       2.15745629       3.77611652      -0.00363292       0.00070622       0.00224822
C       -2.56489235       4.29615509       3.81219124      -0.00108841      -0.00779730       0.00568000
C       -3.77791129       6.43679474       3.81595157       0.00048067       0.01121608      -0.00784625
C       -5.01471976       8.58227517       3.80420373      -0.00432368       0.00117530      -0.00988412
C        2.36973002       0.02294219       3.75700939       0.00772414       0.00112145      -0.00340169
C        1.10473830       2.17357400       3.77474594      -0.00949497      -0.00762915      -0.00164243
C       -0.11061973       4.24545565       3.93551556       0.00936345      -0.01279996       0.00429350
C       -1.31116919       6.42130967       3.93229794      -0.00169789      -0.00077775       0.00775173
C       -2.54902164       8.56698461       3.85001778       0.00474369       0.00578670      -0.00249619
C        4.83672282       0.02691728       3.74695617       0.00614986      -0.00001022       0.01215095
C        3.58219705       2.10491670       3.40109467      -0.00882199       0.00101280      -0.00305789
B        1.21829078       6.39712322       4.15894257       0.00767792      -0.00903792       0.00331649
C       -0.08939099       8.57596469       3.93947480       0.00327254       0.00316158      -0.00931061
C        7.29731565       0.04097823       3.80111843      -0.00633803      -0.00699459      -0.01018490
C        6.05767750       2.17606332       3.61531691       0.00183929      -0.00124999       0.00372223
C        4.86399133       4.34739291       3.50914205       0.00385594       0.00185729      -0.00960862
C        3.65134217       6.48630048       3.85460555       0.00814971       0.00577248      -0.01265939
C        2.37631892       8.60553884       3.92185055      -0.00553695       0.00171673      -0.00723864
C        9.76956262       0.03599038       3.79112332      -0.01465316       0.00551069      -0.00100487
C        8.52775842       2.17024118       3.74875761      -0.00780797      -0.00169200      -0.01142697
C        7.30731176       4.30616823       3.73359182       0.00317782       0.00865482      -0.01563379
C        6.11279094       6.46830023       3.74046821       0.00568945      -0.01024313      -0.00238187
C        4.85000686       8.59235484       3.80918798       0.00756871       0.00621044      -0.00347890
C       -0.11229414       1.45400487       3.76267753      -0.00840686       0.00324360       0.01254368
C       -1.34669606       3.56337005       3.82286495       0.00403452      -0.00555209       0.00942862
C       -2.55148837       5.71964360       3.85116956      -0.00670929      -0.00360322       0.01038195
C       -3.78252857       7.86160308       3.82518813      -0.00150309       0.01318196       0.01236968
C       -5.02760245      10.00274192       3.79022665       0.00278480       0.00648795      -0.00462153
C        2.35104124       1.45599797       3.65708671      -0.00755373      -0.00046458       0.00173147
N        1.06526670       3.53263863       3.96892069       0.00779334      -0.01204964      -0.00736884
C       -0.09198999       5.67179376       4.01221060       0.00370563      -0.01076838       0.01072347
C       -1.31567256       7.85157374       3.91863547       0.00361244       0.00365850       0.00127263
C       -2.56150278       9.99493510       3.78548901       0.00992547       0.00222864       0.00828913
C        4.82986748       1.45084343       3.58612037      -0.00264203      -0.00155092       0.00850613
S        3.61140655       3.62115054       2.44725562       0.00575685       0.00950331      -0.01175956
C        1.15581087       7.89142422       4.01610898      -0.00074252      -0.00046159       0.00088065
C       -0.09705826      10.00439085       3.83586033       0.00126376      -0.00130746       0.00345513
C        7.28959562       1.46425001       3.72184915      -0.00226270      -0.00771683       0.00456707
C        6.08076461       3.58765675       3.62753466       0.00438621       0.00363464      -0.00238790
C        4.86378350       5.77275508       3.70921284       0.00448401       0.00050261      -0.00047538
C        3.60918915       7.89435267       3.86678706       0.00353905       0.01082667      -0.00674946
C        2.36827499      10.02202695       3.83853459      -0.01223431       0.00066899       0.00666595
C        9.76065204       1.45359571       3.76501219      -0.00780016       0.00207751       0.00895858
C        8.53460711       3.59090566       3.76255352      -0.00626653      -0.00115103      -0.00090598
C        7.32274194       5.73489026       3.75930301       0.01054788       0.00448934      -0.00358902
C        6.08858101       7.88174253       3.78613825       0.00281101      -0.01406579       0.01231495
C        4.83920300      10.00766260       3.79186532      -0.00174870       0.01031627      -0.00090185
Ta       2.78039131       4.72033402       4.47339113      -0.00063867      -0.00716635       0.00635338
O        3.38083166       4.40556750       6.13167257      -0.00050810      -0.00130366      -0.00272664
O        3.86315356       4.06319362       7.41198155      -0.00197930      -0.01125082       0.00041019
H        3.90936315       4.93107313       7.86689568      -0.01038437       0.00367936      -0.00871503
