52
Lattice="12.336457 0.0 0.0 -6.168228499999997 10.683685154694365 0.0 0.0 0.0 15.0" Properties=species:S:1:pos:R:3:forces:R:3 energy=-453.8919659527747 free_energy=-453.8919659527747 stress="0.0026000667447509075 0.0017904971849186373 -1.0176241455852107e-05 0.0017904971849186373 -0.006349473970747335 -2.4054448203496555e-05 -1.0176241455852107e-05 -2.4054448203496555e-05 7.211484475665353e-06" pbc="T T T"
C       -0.09867068      -0.06996618       3.81822411       0.00430995       0.00360963      -0.00217968
C       -1.30779221       2.09465603       3.93116601       0.00329059      -0.00443028      -0.00899611
C       -2.53221270       4.21262505       3.91842848       0.00122668      -0.00163653      -0.00351524
C       -3.79543402       6.33070763       3.79961606      -0.00178791       0.00030106      -0.00022677
C       -5.05015336       8.45422901       3.71176874       0.00323304       0.00154092       0.00556472
C        2.35830073      -0.13244025       3.82282026      -0.00125529       0.00168029      -0.00003297
C        1.16536764       2.03534386       3.95052032       0.00773440       0.01032238      -0.00096090
C       -0.00371476       4.25192990       3.99887786       0.00545197      -0.00144771       0.00926692
C       -1.32122571       6.35510977       3.87211325      -0.00202072      -0.00015116      -0.00138322
C       -2.57176111       8.45663095       3.79694702       0.00937181      -0.00223381      -0.00234691
C        4.83339613      -0.08685536       3.82339638      -0.00691368       0.00464272       0.00250604
C        3.57799518       1.97292388       3.86412262      -0.00347857       0.00552748       0.00891337
N        1.09013719       6.42241884       3.97333739      -0.00606517       0.00215069      -0.00438724
C       -0.11311970       8.48450162       3.80164237       0.01440194      -0.00262756      -0.00448325
C        7.29814363      -0.04629725       3.83187821      -0.00214361      -0.00368732       0.00633149
C        6.05979759       2.07620987       3.88242833       0.00174290       0.00240013       0.00363262
C        4.76560911       4.22225311       3.79410008      -0.00865968      -0.00604565       0.00653051
S        3.62554048       6.37645088       2.31959234      -0.00562452       0.00003309      -0.00718249
C        2.34497858       8.50890811       3.64764203      -0.00530585      -0.00435194      -0.00481057
C        9.77330596      -0.03957694       3.79732878      -0.00560023       0.00063673       0.00618898
C        8.54434770       2.08816792       3.90305096      -0.00429519       0.00672597      -0.00184647
C        7.29192202       4.20286834       3.85424006      -0.01031308      -0.00056017      -0.00072934
C        6.08565768       6.34770259       3.56624339       0.00204795      -0.00956541       0.00079037
C        4.82812081       8.49487468       3.56401467      -0.00202305      -0.00035673      -0.00125706
C       -0.08315302       1.36486484       3.91271984       0.00973033       0.00404680      -0.00135852
C       -1.26690928       3.52254269       3.96021687       0.00636694      -0.00522419       0.00791292
C       -2.54838268       5.63042953       3.87043522      -0.00366974       0.00123870       0.00290750
C       -3.80871795       7.74625102       3.76375067       0.00447217       0.00253654       0.00269796
C       -5.05110026       9.87058396       3.78501581       0.00018796       0.00234142      -0.01019779
C        2.35818250       1.27084547       3.87761743       0.00065670       0.00493421      -0.00458584
B        1.40651244       3.55936660       4.05651950       0.01211202      -0.00396636       0.00532675
C       -0.06755766       5.68075761       3.95013169      -0.00836265      -0.00301748       0.01725750
C       -1.33485015       7.76168029       3.82375461       0.01374168      -0.00109496      -0.00919285
C       -2.56649373       9.87035350       3.80793044      -0.00392713      -0.00173809      -0.01864137
C        4.83427607       1.33306918       3.85007772      -0.00238517       0.00825742       0.01216269
B        3.37463551       3.44372678       3.93942289       0.00142897       0.00240372      -0.01137452
C        1.10826869       7.78137500       3.78915899       0.00635152      -0.01098343      -0.00086601
C       -0.09984178       9.90644130       3.81228965      -0.00418235       0.00164103      -0.00366750
C        7.30079434       1.37694692       3.88084834       0.00027967       0.00019343      -0.00292436
C        6.04424107       3.49676227       3.86833383      -0.00698165      -0.00112654      -0.00040505
C        4.87033016       5.60248915       3.37942071       0.00391594      -0.01340085      -0.00490845
C        3.57458929       7.84984122       3.36687734      -0.00610629      -0.00033550       0.00198777
C        2.36337560       9.93859143       3.76862261      -0.00425098      -0.00393325      -0.00314726
C        9.78703649       1.38583551       3.88757381      -0.00490916       0.00121240      -0.00075552
C        8.54980523       3.50766818       3.90473781      -0.00538679       0.00630484       0.00721544
C        7.30310181       5.62480300       3.76001331       0.00195406      -0.00329624      -0.00035659
C        6.05301329       7.75800698       3.58120720       0.00011462      -0.00466261       0.00353153
C        4.83421867       9.91834885       3.73831016       0.00114417       0.00234820       0.01355184
Ta       2.92865873       5.44670850       4.46282123       0.00168058       0.00580383      -0.00094281
O        3.49945158       5.92624901       6.09226175      -0.00335574      -0.00066740       0.00087115
O        3.97343063       6.33208021       7.35306346      -0.00889108      -0.00184872      -0.00133200
H        3.44161034       5.78456740       7.97026542       0.01094671       0.00955624      -0.00615340
