53
Lattice="12.336457 0.0 0.0 -6.168228499999997 10.683685154694365 0.0 0.0 0.0 15.0" Properties=species:S:1:pos:R:3:forces:R:3 energy=-464.37770412072916 free_energy=-464.37770412072916 stress="-0.004423450044490117 0.0024288980990201108 5.4711770634391185e-06 0.0024288980990201108 -0.00728022582368494 1.3789658514548717e-06 5.4711770634391185e-06 1.3789658514548717e-06 -8.86576499042157e-05" pbc="T T T"
C        0.01909541       0.00096754       3.73951258       0.00766953      -0.01054000       0.00124915
C       -1.20320073       2.14839020       3.73589608      -0.00324671      -0.00657812      -0.00412659
C       -2.43851723       4.28913165       3.73729106      -0.00713672      -0.01084091      -0.00680682
C       -3.68679476       6.42058856       3.74421108      -0.00133447       0.01381377       0.00675235
C       -4.93101247       8.54492701       3.77124917      -0.00686251      -0.00023474       0.01235142
C        2.48457881      -0.00278120       3.62159884      -0.00489617       0.00102525      -0.00269173
C        1.26724202       2.11123681       3.86656691      -0.00245455       0.00826815      -0.01273743
C       -0.00740056       4.26428243       4.07906090       0.00680447       0.00678964      -0.00646538
C       -1.23381391       6.44586314       3.86474257       0.00091800      -0.00509491      -0.00310906
C       -2.45708212       8.55731215       3.62505405      -0.00805903       0.00547096       0.00045735
C        4.95366433       0.00854314       3.39435024       0.00794133      -0.00296374       0.00256659
C        3.74146742       2.11620673       3.51556830       0.00635603      -0.00405639       0.00059379
B        2.61775447       4.27630936       4.06861508      -0.00317773       0.00556896      -0.00277276
B        1.31808048       6.53069008       4.05894484      -0.00255980      -0.00219614       0.00278513
C        0.00544090       8.58856996       3.52458713       0.00293862       0.00851949      -0.00393542
C        7.42969788       0.03107858       3.35338193       0.00747372       0.00774792      -0.00298926
C        6.21136123       2.14233906       3.34747674       0.00225805      -0.00736909      -0.00068320
C        5.02195019       4.24629834       3.63831504       0.00185714      -0.00209791      -0.00177465
P        3.35092896       6.20516651       4.48727773       0.00555179       0.00502102      -0.00108416
C        2.48975593       8.63321220       3.64390040       0.00121375      -0.00507217      -0.00332356
C        9.90821696       0.03195680       3.56746166      -0.00518110      -0.00576415       0.00616062
C        8.67933832       2.15908545       3.46831449      -0.01103960      -0.00780774      -0.00364625
C        7.45187202       4.28634362       3.56973369      -0.00684313       0.00092785       0.00393564
C        6.17588158       6.40099331       3.88004862       0.00376653       0.00812899      -0.00344747
C        4.93354433       8.55230210       3.87651806       0.01103297       0.00509399      -0.00228643
C        0.03068217       1.42601242       3.78485829       0.00137025      -0.00773209      -0.00263347
C       -1.22411267       3.56296810       3.83020162       0.00554030       0.00069047      -0.00205155
C       -2.44649512       5.71870108       3.78623129      -0.00445372      -0.00624191      -0.00079830
C       -3.69151540       7.84333447       3.72428711      -0.00888075       0.01118678      -0.00251815
C       -4.91919638       9.96900514       3.72081931       0.00170634      -0.01084730       0.00142870
C        2.49325440       1.41693570       3.66311753      -0.00110785       0.00254886       0.00796544
C        1.25036452       3.54275305       4.13106041       0.00085799       0.00584946      -0.00330499
C       -0.00159127       5.71460438       4.12363445       0.00411356       0.00380018       0.00858316
C       -1.22318089       7.85552538       3.66862075      -0.00217780       0.00229281      -0.00502352
C       -2.45092455       9.97693060       3.52760219      -0.00317229       0.00431610      -0.01363891
C        4.97002062       1.42313939       3.37058049       0.00772653      -0.00766013       0.00539553
C        3.80884849       3.51874487       3.61894115      -0.00079588      -0.00169936       0.00129516
C        1.25393008       7.94617328       3.62484382      -0.00206094      -0.00588178      -0.00937169
C        0.01838149       9.99924290       3.37887067       0.01254122       0.01047888      -0.00670033
C        7.44377356       1.44633507       3.34650585      -0.00101207      -0.00202244       0.01200987
C        6.23821238       3.55942057       3.46317533      -0.00124583      -0.00989977       0.00768635
C        4.98886777       5.62729375       3.96746541       0.00601156       0.00218811      -0.00697250
C        3.66984374       7.91243549       3.96772811       0.01129001       0.00754558      -0.00431205
C        2.50240031      10.02969687       3.46844586      -0.00393649      -0.00258990       0.00216821
C        9.90912030       1.45018583       3.56708588      -0.01024334      -0.00620922      -0.00009733
C        8.68084590       3.57826554       3.56883876      -0.01469976      -0.00819041      -0.00196348
C        7.42366463       5.70266442       3.73194274       0.00006491       0.01333455      -0.01177238
C        6.17264895       7.83327377       3.88237791       0.00071043       0.00494688      -0.00204025
C        4.95282750       9.98181367       3.72460919       0.00380731       0.00078625       0.00980636
Ta       1.42018057       5.09384151       5.72323470       0.00023382      -0.00340149       0.00793357
O        1.37133581       5.06640995       7.54054012      -0.00428781       0.00159190       0.00968347
O        1.31451463       5.05172132       8.93655639       0.00142004      -0.00427433       0.00480810
H        2.25762320       5.08430700       9.19587140      -0.00231019      -0.00066665       0.01946313
