52
Lattice="12.336457 0.0 0.0 -6.168228499999997 10.683685154694365 0.0 0.0 0.0 15.0" Properties=species:S:1:pos:R:3:forces:R:3 energy=-448.51955249129395 free_energy=-448.51955249129395 stress="-0.002021725963508274 -7.147511168166731e-05 1.308467979471546e-05 -7.147511168166731e-05 -0.009129065564676393 -2.2119887344041093e-05 1.308467979471546e-05 -2.2119887344041093e-05 8.529180346047082e-06" pbc="T T T"
C        0.08233022       0.00825366       3.46658873      -0.00493033       0.00581943       0.00236133
C       -1.13728026       2.18842901       3.44215132       0.00516314      -0.00224357      -0.00065408
C       -2.35860208       4.31094178       3.76770014      -0.00410208      -0.00505647       0.00048961
C       -3.60077038       6.44069211       3.88685403      -0.00259957      -0.00058242       0.00336093
C       -4.85516923       8.55987896       3.76130023      -0.00000567       0.00822883       0.00362011
C        2.54865053      -0.06211462       3.31126329      -0.00168383       0.00227090       0.00652913
C        1.31362498       2.05208956       3.00378534       0.00699777      -0.00669247      -0.00008717
C        0.12125057       4.31866608       3.80943877       0.00419933      -0.00126614      -0.00932408
C       -1.14077901       6.45959007       4.03827487      -0.00017681       0.00274129       0.00058402
C       -2.37066589       8.55947718       3.71025165      -0.00018620      -0.00374072      -0.00032007
C        5.02526038       0.01352896       3.47379486      -0.00121309      -0.00132508      -0.00481545
C        3.75742069       2.05129686       3.33565458      -0.00206043       0.00563657       0.00205864
B        1.41555136       6.56828647       4.40436472      -0.00293397       0.00619377       0.00156122
C        0.08762807       8.62209990       3.83232868       0.00056329       0.00123310       0.00128700
C        7.48453743       0.07858692       3.58743662       0.00085134      -0.00615466       0.00681961
C        6.24305417       2.18861989       3.56428712       0.00142113      -0.00104087      -0.00171968
C        5.06887899       4.34317207       3.97032396       0.00288226      -0.00191646      -0.00226482
P        3.54096507       6.39942980       4.93734758       0.00366324       0.01174057      -0.01417245
C        2.56206309       8.71462715       4.01634935      -0.00587384       0.00094067      -0.00729782
C        9.96922628       0.08020961       3.62217318       0.00409096       0.00098049       0.00544831
C        8.72551710       2.20198246       3.56793703      -0.00518801       0.00013164       0.00121662
C        7.49707171       4.32131313       3.78058713      -0.00546951       0.00411964       0.01527813
C        6.26957173       6.46315172       4.09894650       0.00517693      -0.00385638       0.00133992
C        5.02564273       8.62879867       4.02465244       0.00483930      -0.00646974       0.00486107
C        0.08225737       1.43187907       3.26593738       0.00469339      -0.00089395      -0.00175349
C       -1.13950290       3.58714074       3.64640492       0.00159279      -0.00362961      -0.00638993
C       -2.35854402       5.73550527       3.90866214      -0.00160288      -0.00059403      -0.00110294
C       -3.60983041       7.85598762       3.79480956      -0.00215073      -0.00099267       0.00714871
C       -4.86024125       9.95307536       3.49260157      -0.00478765       0.00904310       0.00103099
C        2.53937304       1.33571287       3.12275477       0.00267245      -0.00073646      -0.00027588
P        1.48663519       3.80844849       2.67801048       0.00501330      -0.01674032       0.00401525
C        0.10347114       5.73052781       4.21602931      -0.00008671       0.00203123      -0.00929827
C       -1.13624750       7.87389317       3.87830597       0.00339355       0.00293115      -0.00380314
C       -2.37177170       9.95868038       3.48230561      -0.00134382      -0.00328734      -0.00209823
C        5.02423931       1.43766114       3.44192298      -0.00248341       0.00470295      -0.00332361
P        3.50211577       3.57773054       4.08201032       0.00052347       0.00186286       0.00357094
C        1.33647258       7.99998087       4.05460383      -0.00257861       0.00041744      -0.00568982
C        0.08870579      10.02557004       3.61230049      -0.00052125      -0.00194169       0.00009042
C        7.48131231       1.49523747       3.54288473      -0.00135409      -0.00752276       0.00177585
C        6.25906784       3.60501015       3.73813609       0.00342810      -0.00121719       0.00252367
C        5.07313555       5.71831223       4.28683045       0.00466954      -0.00325235      -0.00348006
C        3.77546507       8.03395279       4.30944233      -0.00315355       0.00841547       0.00289001
C        2.56070087      10.08770862       3.71474245       0.00262568      -0.00073205      -0.00086402
C        9.96327924       1.49298798       3.51675241       0.00085490       0.00406784      -0.00088449
C        8.73293487       3.61608640       3.68447070      -0.00965835       0.00209599       0.00555835
C        7.49739018       5.73909531       3.92089865      -0.00385779       0.00329176      -0.00097666
C        6.25566809       7.88377167       4.00189315       0.00513546      -0.00400749      -0.00554225
C        5.02647828      10.02802420       3.70264404       0.00001552      -0.00392102       0.00190346
Ta       1.67800231       4.60726360       5.29270561       0.00226178      -0.00009302      -0.00541737
O        0.94476558       4.06487419       6.85592050      -0.00232234       0.00257871      -0.00288515
O        0.36760717       3.62302372       8.05570867      -0.00686080      -0.00609310       0.00858119
H        1.01323471       3.91607530       8.73219519       0.00245673       0.00452462      -0.00146358
