52
Lattice="12.336457 0.0 0.0 -6.168228499999997 10.683685154694365 0.0 0.0 0.0 15.0" Properties=species:S:1:pos:R:3:forces:R:3 energy=-458.26303986813775 free_energy=-458.26303986813775 stress="-0.0008032587190804944 0.0005898453451023338 4.777235893074934e-05 0.0005898453451023338 0.003406972585950943 -1.6700546506776119e-06 4.777235893074934e-05 -1.6700546506776119e-06 -5.9601985566232515e-05" pbc="T T T"
C        0.02456794      -0.00070646       3.66642329       0.00338336      -0.00264218      -0.00839659
C       -1.21318839       2.13664962       3.72392545       0.00030029      -0.00351125      -0.00169560
C       -2.43242447       4.27436467       3.84520454      -0.00775683      -0.00865870      -0.01473084
C       -3.67138821       6.41041634       3.81630455      -0.00735582       0.00821719      -0.00714095
C       -4.90783385       8.55239157       3.73970298       0.00650689      -0.00171900      -0.01191159
C        2.49128865       0.03065484       3.67525206      -0.00946228      -0.01225652       0.00342882
C        1.24331457       2.11556339       3.61026575      -0.00437670      -0.00361447      -0.00804672
C        0.01006646       4.28174526       3.91690259       0.01216522      -0.00336871       0.00396249
C       -1.21473543       6.41954290       3.85661766       0.00034228       0.00279119       0.00854105
C       -2.44093864       8.55342932       3.72399038      -0.00167026      -0.00103409      -0.00597140
C        4.95512248       0.01613779       3.67394227      -0.00053471      -0.00780889      -0.01092303
C        3.74424948       2.18247906       3.77985382       0.00189477       0.00039944      -0.00304583
O        1.19361283       6.41705894       3.50984032      -0.00731675       0.00970809       0.00384014
C        0.01722968       8.53881423       3.63539557      -0.00364818       0.00435851      -0.00151682
C        7.42814800      -0.01535266       3.65474074       0.00658772       0.00847180       0.00719121
C        6.20203733       2.13374808       3.74819344       0.00509366       0.00328387      -0.00737132
C        4.97672395       4.24298695       3.91772186       0.01062042       0.00881464       0.00908566
C        3.74947747       6.39590043       3.98651663      -0.00232431      -0.00638407       0.01097901
C        2.47459472       8.50720447       3.66284531      -0.00671344       0.00158684      -0.00480053
C        9.88895192      -0.01767571       3.67487589       0.00702519       0.01324694       0.00172186
C        8.66514240       2.13097119       3.74113022      -0.00535896      -0.00170010      -0.01795622
C        7.43450555       4.26718313       3.82094023      -0.00528630      -0.00167367       0.00237050
C        6.20912664       6.40560429       3.84255225       0.00444609      -0.00480526      -0.00739275
C        4.95395191       8.53182942       3.74115782       0.01126630      -0.00056885       0.00571101
C        0.02401095       1.43243453       3.64669128      -0.00110631      -0.00642261      -0.00587419
C       -1.20957713       3.55336384       3.84171226       0.00505915      -0.00474737       0.00462221
C       -2.43523385       5.69631044       3.85360446      -0.00822532       0.00235039      -0.00889680
C       -3.67668874       7.83805328       3.76434357       0.00157334       0.00525531       0.00076671
C       -4.90559501       9.98679618       3.68435197      -0.00312649      -0.00903745       0.00504649
C        2.48692528       1.48346542       3.67668298      -0.00575356      -0.00795261       0.00287663
O        1.20809268       3.55477619       3.50908497      -0.00423705       0.00284656       0.00648628
C        0.00645927       5.69240137       3.92355734       0.00552632       0.00046449       0.00093730
C       -1.21922746       7.83583217       3.73425487      -0.00077952       0.00461048      -0.01335829
C       -2.44888378       9.99094106       3.68334383      -0.00636677      -0.00795809       0.00951380
C        4.95868386       1.44645494       3.72073612       0.00565121      -0.00207367       0.00468761
N        3.78511363       3.55064723       3.96824589       0.00828327       0.00885215       0.00836712
C        1.23656023       7.85385147       3.59594786      -0.00950182      -0.00308665       0.00707747
C        0.02239847       9.97070051       3.64479848       0.00612448       0.00238247       0.00686868
C        7.43192498       1.41687322       3.70720080       0.00132764       0.00320557       0.00411611
C        6.20829782       3.54482396       3.81859478       0.00044165       0.00364352      -0.01878598
C        4.96524879       5.67741716       3.94120416       0.00667402       0.00246788      -0.00143670
C        3.71977131       7.80069724       3.79049263      -0.00089937      -0.00105627       0.00532949
C        2.48639589       9.94738741       3.65519858       0.00672290       0.01019364      -0.00391205
C        9.90106071       1.41706426       3.70765282      -0.00281076       0.00944339      -0.00064131
C        8.66883751       3.55750508       3.79886536      -0.01163615      -0.00914791       0.00844182
C        7.43260998       5.69513337       3.83189870      -0.00221154      -0.00333125      -0.00278651
C        6.19737795       7.83036893       3.77833984       0.01320408      -0.00493076      -0.00802268
C        4.95686339       9.95684483       3.68504119       0.00628739       0.00598658      -0.00016034
Ta       2.33880161       4.96904285       4.56281147       0.00830734      -0.00584302       0.01171427
O        2.43661027       4.96020893       6.32600711       0.00160162       0.00088517       0.01392853
O        2.49212957       4.91064277       7.78604922      -0.01382103       0.00171386       0.00670807
H        3.45394078       5.00856930       7.95618760      -0.01413641       0.00015342       0.01045474
