52
Lattice="12.336457 0.0 0.0 -6.168228499999997 10.683685154694365 0.0 0.0 0.0 15.0" Properties=species:S:1:pos:R:3:forces:R:3 energy=-459.35795327202277 free_energy=-459.35795327202277 stress="-0.00532992642724336 0.002060127275495242 1.1085506286421163e-05 0.002060127275495242 -0.0029980323239014615 2.010074866564598e-05 1.1085506286421163e-05 2.010074866564598e-05 -1.3613059926745554e-05" pbc="T T T"
C       -0.07860750      -0.00740318       3.81741755       0.00380269       0.00634196       0.00361130
C       -1.30786558       2.12232452       3.91714145      -0.00141380       0.00016883      -0.00219814
C       -2.53883875       4.25783274       3.88869166       0.00383204      -0.00028571       0.00754515
C       -3.78352625       6.39352017       3.79896284       0.00229200       0.00527120       0.00326224
C       -5.02157959       8.53255479       3.73152954       0.00185827       0.00367830       0.00257050
C        2.38257597      -0.01421412       3.82938318      -0.00337587       0.00311011       0.00415941
C        1.16492288       2.14760110       3.96391164      -0.00602796       0.00078660      -0.00308184
C       -0.07533338       4.27481846       4.02305118      -0.00065211       0.00166760       0.00662015
C       -1.32727695       6.41041819       3.89198393      -0.00123589      -0.00483454      -0.00535210
C       -2.55807847       8.53476092       3.82050298       0.00645090       0.00168954       0.00025516
C        4.85777644      -0.02522110       3.81419450      -0.00124014      -0.00160013      -0.01666185
C        3.63070538       2.09430171       3.76160473      -0.00495501       0.00087736      -0.00012226
N        1.08673657       6.42300779       3.93526612      -0.00440760       0.00236104      -0.00813637
C       -0.09332621       8.51975564       3.81603562      -0.00432812      -0.00006112       0.00162456
C        7.32759999      -0.03142891       3.82035548       0.00089496       0.00172408      -0.00371931
C        6.11026731       2.09778380       3.77819733      -0.00539527       0.00027185       0.00163983
C        4.90322717       4.20689130       3.64937241       0.00191989      -0.00291619      -0.00410338
P        3.59303594       6.32190552       2.48108657      -0.00125834      -0.00780506       0.00606853
C        2.36713738       8.51724120       3.64789993      -0.00332415      -0.00517624       0.00819756
C        9.79008389      -0.02237352       3.79352533      -0.00084224       0.00299600       0.00187301
C        8.56748891       2.11253110       3.85091107      -0.00103700      -0.00038126      -0.00444282
C        7.34521919       4.24763645       3.76913646       0.01080162      -0.00835465      -0.00957503
C        6.11081973       6.39881937       3.60582348       0.00601969      -0.00621602       0.00286214
C        4.85441463       8.53920734       3.56633362       0.00425981       0.01021424       0.00205548
C       -0.07481031       1.41592872       3.91108726      -0.00188600       0.00152800      -0.00322214
C       -1.31494607       3.54772240       3.94839764       0.00092515      -0.00017048       0.00006089
C       -2.54977148       5.68471887       3.86730017      -0.00155315       0.00026993       0.00152670
C       -3.78998926       7.81952651       3.78576206       0.00448859       0.00716666       0.00108904
C       -5.01777421       9.95781911       3.79638231       0.00000772       0.00337800      -0.00355484
C        2.38771054       1.40709537       3.86253307      -0.00632700       0.00218205       0.00210897
C        1.13647737       3.56685109       4.09510057      -0.00864929      -0.00392694       0.00805931
C       -0.09840984       5.71758803       3.97037059      -0.00002998       0.00044845      -0.00654662
C       -1.32778853       7.82397903       3.84614247       0.00175467      -0.00599513       0.00243526
C       -2.55259857       9.95691790       3.81640094      -0.00134035       0.00167234       0.00577847
C        4.87132318       1.38755972       3.77915094      -0.00532166      -0.00075572      -0.00133271
C        3.69285785       3.49269230       3.66585547      -0.00311437       0.00162546      -0.00439202
C        1.12424840       7.79836906       3.77918617      -0.00760146       0.00031963       0.00413177
C       -0.07844595       9.94194321       3.81606069       0.00055005       0.00010859      -0.00288433
C        7.33790721       1.39110338       3.82441501      -0.00375994       0.00288458      -0.00004560
C        6.13879136       3.51212560       3.72274056       0.00307124      -0.00152806       0.01153621
C        4.88648069       5.64241658       3.50779915       0.00217716      -0.00364836       0.00065884
C        3.60191503       7.86601161       3.39086115       0.00417083       0.00696843      -0.00239125
C        2.38499132       9.94529359       3.77269307       0.00004133      -0.00253904      -0.00437136
C        9.79629693       1.40176337       3.86449207      -0.00259489       0.00263449      -0.00287466
C        8.57100040       3.53986365       3.84244493       0.00872097      -0.00399409      -0.00014465
C        7.32990073       5.67963676       3.73769478       0.00885714      -0.00714085      -0.00838627
C        6.08822949       7.81803619       3.60818524       0.00361749      -0.00138434      -0.00399913
C        4.85691098       9.95712247       3.73596809       0.00418986       0.01260191      -0.00028752
Ta       2.62461438       5.07757156       4.44973747      -0.00435590      -0.00237955       0.00548842
O        3.20130768       5.30203449       6.12468600       0.00901026      -0.00733921      -0.00451335
O        3.65929171       5.55973390       7.44118881       0.00150417       0.00748105       0.00978583
H        3.74349951       4.65939733       7.82090723      -0.00919103      -0.01399560       0.00133481
