51
Lattice="12.336457 0.0 0.0 -6.168228499999997 10.683685154694365 0.0 0.0 0.0 15.0" Properties=species:S:1:pos:R:3:initial_magmoms:R:1:forces:R:3 energy=-452.3917097297358 free_energy=-452.3917097297358 stress="-0.004566534183089709 -0.003615347213057967 9.780974411874186e-06 -0.003615347213057967 -0.0024398882280865937 7.641921614642083e-06 9.780974411874186e-06 7.641921614642083e-06 -1.9651442086140967e-06" pbc="T T T"
C       -0.02651722       0.01053505       3.92834856       0.00000000       0.00482492       0.00259091       0.00198829
C       -1.29061535       2.12373075       3.90841065       0.00000000       0.00264656       0.00116802      -0.00099750
C       -2.51140143       4.27205459       3.79012235       0.00000000       0.00140663       0.00283323       0.00088473
C       -3.71112493       6.42379720       3.77087742       0.00000000      -0.00111680      -0.00439639      -0.00129241
C       -4.93725263       8.56835325       3.87505713       0.00000000      -0.00237733      -0.00093392       0.00307660
C        2.44252381       0.02122706       3.82380359       0.00000000      -0.00324714       0.00506326      -0.00188610
C        1.17138235       2.17062858       3.92497631       0.00000000      -0.00310073      -0.00204314      -0.00310408
C       -0.06847520       4.21761291       3.83151913       0.00000000      -0.00128493      -0.00137994       0.00226764
C       -1.25549620       6.39925554       3.62874782       0.00000000       0.00248847       0.00141235      -0.00419905
C       -2.46957245       8.55003327       3.71820353       0.00000000       0.00191364       0.00227999       0.00130145
C        4.90198445       0.01372408       3.63695713       0.00000000       0.00192055      -0.00000983      -0.00043045
C        3.63269246       2.10118569       3.41401838       0.00000000       0.00091498       0.00070688       0.00141197
S        1.36327374       6.25912322       2.81187320       0.00000000      -0.00036286       0.00439746       0.00133810
C       -0.01463957       8.54530374       3.54966884       0.00000000       0.00145590      -0.00386655       0.00016097
C        7.36431985       0.01046917       3.69156099       0.00000000      -0.00491666      -0.00302842       0.00368809
C        6.12259544       2.15808207       3.52054401       0.00000000      -0.00103685       0.00556033      -0.00109621
C        4.98090487       4.35883935       3.36045438       0.00000000       0.00151780       0.00111394       0.00572615
C        3.74211851       6.43538404       3.98996890       0.00000000       0.00137295       0.00292891       0.00682745
C        2.44646660       8.55816314       3.73461404       0.00000000      -0.00155265      -0.00438476       0.00410533
C        9.83153805       0.00223061       3.87790637       0.00000000       0.00006336      -0.00424712      -0.00092073
C        8.58553172       2.14226969       3.76372110       0.00000000      -0.00058322       0.00020930      -0.00301402
C        7.37860862       4.29023009       3.67038295       0.00000000       0.00076814      -0.00108882       0.00358812
C        6.18562893       6.44648189       3.78653125       0.00000000      -0.00065144      -0.00056069       0.00358072
C        4.91932104       8.55861561       3.91339628       0.00000000       0.00079033       0.00516988      -0.00009138
C       -0.04403408       1.43404274       3.93015197       0.00000000       0.00070370       0.00080220       0.00047550
C       -1.30306546       3.53369172       3.85525143       0.00000000       0.00026004       0.00175275      -0.00372079
C       -2.49306858       5.69677019       3.74271302       0.00000000       0.00217658       0.00092756      -0.00308078
C       -3.70731600       7.84812519       3.79513439       0.00000000      -0.00047365      -0.00141790       0.00332258
C       -4.95236487       9.99008915       3.90182822       0.00000000      -0.00000810       0.00075652      -0.00369939
C        2.42281207       1.45531665       3.76399497       0.00000000      -0.00320758       0.00280007      -0.00286488
N        1.10766032       3.53519745       4.05121465       0.00000000       0.00058350      -0.00347632       0.00199176
C       -0.08275335       5.61295888       3.53693115       0.00000000      -0.00171710      -0.00069934       0.00799556
C       -1.24214414       7.82894563       3.59897541       0.00000000       0.00373069       0.00049178      -0.00742561
C       -2.48987497       9.98530066       3.72770930       0.00000000      -0.00144680       0.00487192      -0.00569354
C        4.88829062       1.44512338       3.51820122       0.00000000       0.00118757       0.00073814      -0.00039663
S        3.54061965       3.68712613       2.65670775       0.00000000       0.00317031       0.00034728      -0.00181438
C        1.23929458       7.89173491       3.43189957       0.00000000      -0.00034152      -0.00227236       0.00425526
C       -0.02766315       9.97970640       3.63185014       0.00000000      -0.00061256      -0.00611431      -0.00294786
C        7.34817426       1.44186009       3.66458418       0.00000000      -0.00409879       0.00189969      -0.00186760
C        6.14939299       3.58265671       3.50322518       0.00000000       0.00219186       0.00434661      -0.00050933
C        4.93935959       5.74389103       3.72337943       0.00000000       0.00026299       0.00092952       0.00023771
C        3.68452623       7.83036076       3.87957472       0.00000000       0.00172972       0.00198113      -0.00374069
C        2.43147985       9.98161673       3.78815114       0.00000000      -0.00408210      -0.00618821      -0.00135597
C        9.81663800       1.42161474       3.86465912       0.00000000       0.00222532      -0.00247764      -0.00263848
C        8.59263715       3.56493739       3.75114680       0.00000000       0.00165497       0.00104875      -0.00183032
C        7.39388712       5.71698816       3.74131805       0.00000000      -0.00164380      -0.00368592      -0.00238581
C        6.16859208       7.86056505       3.88640326       0.00000000      -0.00292679       0.00054776      -0.00171409
C        4.90548181       9.97894844       3.91955546       0.00000000       0.00537226       0.00307350       0.00027645
Ta       2.52082830       4.92890574       4.97879635       0.00000000       0.00145257      -0.01260538       0.00722058
O        3.60892966       3.92209258       5.95146920       1.00000000      -0.00504734       0.00087078       0.00304150
O        1.56451879       5.95866018       6.05766497       1.00000000      -0.00294953       0.00125656      -0.00404442
