53
Lattice="12.336457 0.0 0.0 -6.168228499999997 10.683685154694365 0.0 0.0 0.0 15.0" Properties=species:S:1:pos:R:3:forces:R:3 energy=-463.4331158391277 free_energy=-463.4331158391277 stress="-0.0032242565073227697 0.001205981229631817 7.007969383093763e-06 0.001205981229631817 -0.004437626791207202 3.014920011426435e-06 7.007969383093763e-06 3.014920011426435e-06 1.7215385859633986e-05" pbc="T T T"
C        0.11328632      -0.12508854       3.92410238       0.00439189      -0.00222897       0.00010220
C       -1.11272913       2.01718867       3.96986939       0.00468098       0.00316734      -0.00582622
C       -2.33840233       4.15881793       3.91289514      -0.00803274       0.00194364       0.00281388
C       -3.57143594       6.29333914       3.84733353       0.00084331      -0.00288781       0.00487221
C       -4.82972772       8.42160573       3.82399578       0.00071034      -0.00033397      -0.00352877
C        2.57830600      -0.12861363       3.96921004       0.00122653       0.00886682       0.00043692
C        1.35087832       1.99314271       4.03470027       0.00335684       0.00229345      -0.00374047
C        0.13018504       4.12558507       3.84953938       0.00018105       0.00133268       0.00044499
C       -1.11657329       6.30912526       3.69963208      -0.00196133      -0.00106994       0.00700527
C       -2.36198045       8.43487983       3.80772996      -0.00122007       0.00156381       0.01077389
C        5.04223377      -0.10928608       3.90257824       0.00093549       0.00247849      -0.00274627
C        3.81367843       2.01583452       4.04121143      -0.00285859       0.00408183       0.01184096
C        2.58322545       4.13176120       4.13866316      -0.00045066      -0.00507395      -0.00533198
P        1.17959023       6.29216255       2.15325545      -0.00531111      -0.00264129      -0.00036982
C        0.07577368       8.47351956       3.53108005      -0.00040207      -0.00404408       0.01438369
C        7.51166174      -0.09377169       3.80754441       0.00083012       0.00002904      -0.00872776
C        6.28762839       2.01998773       3.99293457      -0.00834553       0.01240338      -0.00883376
C        5.06269799       4.14413355       3.86577489       0.00031459       0.00078659      -0.00075162
S        3.82097373       6.22758950       2.55624754       0.00277889       0.00260355      -0.00182301
C        2.58470280       8.50445165       3.39826080       0.00345718      -0.00356765      -0.00959996
C        9.98643288      -0.10564476       3.82858201       0.00233874       0.00018023      -0.00640070
C        8.75886571       2.02530958       3.96076511       0.00093318      -0.00816624      -0.00237879
C        7.53085737       4.15581213       3.92591098       0.00561388      -0.00158959       0.01038337
C        6.30058516       6.28476227       3.68200169       0.00318376      -0.00251503      -0.00073334
C        5.06498339       8.43875842       3.63420578      -0.00781791      -0.00047468       0.00730690
C        0.11788567       1.29753962       3.98761927       0.00612873      -0.00092177      -0.00735840
C       -1.11015574       3.43873970       3.92488529      -0.00560357       0.00676395       0.00682346
C       -2.33305133       5.58664362       3.84418421      -0.00248222       0.00010548       0.00033677
C       -3.58684636       7.71681665       3.83138625       0.00079250      -0.00274415       0.00090063
C       -4.82506471       9.84557956       3.91238810       0.00564843       0.00055512      -0.00174013
C        2.58195457       1.29422447       4.03752979      -0.00019021       0.00640151       0.00680487
C        1.35822539       3.42839648       4.02148774       0.00151389       0.00011188      -0.01069000
C        0.14367465       5.56133088       3.58250134       0.00324028       0.00256037       0.00598713
C       -1.12395903       7.72718901       3.65951615      -0.00354715      -0.00163712       0.00774905
C       -2.35780804       9.85285759       3.89800757      -0.00098271       0.00637584      -0.00443176
C        5.04641389       1.31109376       3.99153125      -0.00441859       0.00510822       0.01322415
C        3.80837209       3.45286475       4.02154123      -0.00037258      -0.00168293      -0.01256737
C        1.33009750       7.81571436       3.14933179      -0.00309572       0.00588991       0.00023617
C        0.10212747       9.87640487       3.75771776       0.00096031      -0.00196033       0.00161612
C        7.52012165       1.31590590       3.94384464      -0.00715008       0.00176568       0.00148055
C        6.30038218       3.43930664       3.96105000      -0.00002538       0.01019051       0.00835967
C        5.12512595       5.51366701       3.51892013       0.00414578      -0.00337656       0.00171697
C        3.80996046       7.79032227       3.37489642       0.00320843      -0.00809545      -0.00568737
C        2.58067985       9.90320171       3.68529869       0.00414863      -0.00521702       0.00248645
C        9.99113409       1.31200019       3.93983704       0.00606690      -0.00122573      -0.00046683
C        8.76639315       3.44843686       3.95594252      -0.00035357      -0.00820567       0.00115665
C        7.53305697       5.57774026       3.84433547       0.00494203      -0.00550253      -0.00896590
C        6.27671735       7.71199348       3.68660860      -0.00486117       0.00177950      -0.00271918
C        5.05088584       9.85338016       3.81138168      -0.00050101       0.00274250      -0.00503980
Ta       2.12743121       6.26102094       4.35647428      -0.00380749      -0.00622375      -0.00045213
O        1.84894699       7.10787684       5.94485208       0.00206322      -0.01151480       0.00086538
O        1.66724284       7.80981353       7.16571349       0.00300203      -0.01286053      -0.00469469
H        2.33924928       7.40096659       7.75382793      -0.00784647       0.01368022      -0.00450226
