51
Lattice="12.336457 0.0 0.0 -6.168228499999997 10.683685154694365 0.0 0.0 0.0 15.0" Properties=species:S:1:pos:R:3:initial_magmoms:R:1:forces:R:3 energy=-452.37978593429193 free_energy=-452.37978593429193 stress="-0.0031268238318614985 -0.0002484355390697009 -9.789661805774507e-07 -0.0002484355390697009 -0.0016523153686789777 -1.2127679726791293e-05 -9.789661805774507e-07 -1.2127679726791293e-05 -4.232730829735356e-06" pbc="T T T"
C        0.04231177       0.01309746       3.73447502       0.00000000       0.00194365      -0.00486794       0.01252342
C       -1.20878445       2.13036937       3.43578856       0.00000000      -0.00005220      -0.00249060      -0.00391504
C       -2.48402973       4.27452017       3.45994604       0.00000000      -0.00257052      -0.00439972       0.00356804
C       -3.68829639       6.41699774       3.69607279       0.00000000      -0.00027991       0.00514224       0.00070562
C       -4.89017612       8.55873969       3.83180442       0.00000000      -0.00236382      -0.00310963       0.00424267
C        2.51119030       0.01607773       3.83560553       0.00000000      -0.00363870       0.00468354       0.00586114
C        1.29740255       2.07010927       3.36277496       0.00000000       0.00073271      -0.00287373      -0.00486090
C       -0.13876879       4.28310813       2.87961118       0.00000000       0.00193653       0.00373915      -0.01347143
C       -1.25108893       6.42936407       3.38317869       0.00000000      -0.00092601      -0.00404660      -0.00212202
C       -2.42273757       8.55014679       3.74323646       0.00000000      -0.00175052      -0.00460073       0.01099151
C        4.96813104       0.01150533       3.89034875       0.00000000      -0.00271863      -0.00786186      -0.00071189
C        3.74992787       2.17090575       3.99229209       0.00000000       0.00884149      -0.00143334       0.00676006
S        1.48672348       6.30614844       3.05205252       0.00000000       0.00050767      -0.00209480       0.00561417
C        0.03507347       8.55177118       3.70224194       0.00000000      -0.00255624       0.00735026      -0.00541111
C        7.43570973       0.00920384       3.88688987       0.00000000       0.00710955      -0.00024924       0.00292751
C        6.20409745       2.14222104       3.93999144       0.00000000      -0.00022298      -0.00265101      -0.00463091
C        4.96146325       4.24032498       4.08997005       0.00000000       0.00319843       0.00362692      -0.00661301
C        3.78592666       6.45373115       4.12612756       0.00000000      -0.00124428      -0.00197317       0.00508555
C        2.51215577       8.57689443       3.90384200       0.00000000      -0.00075381      -0.00282168       0.00298272
C        9.91497870       0.01779832       3.82688077       0.00000000      -0.00014864       0.00513993      -0.00155417
C        8.66557619       2.14373372       3.74379410       0.00000000      -0.00879855      -0.00008639      -0.00657017
C        7.41550183       4.27685119       3.81300901       0.00000000       0.00005806       0.00506899      -0.00068016
C        6.20648546       6.41945410       3.91339343       0.00000000       0.00210592      -0.00056582       0.00008450
C        4.98503277       8.56090650       3.92991314       0.00000000       0.00201184       0.00045280      -0.00049522
C        0.03762033       1.42750903       3.50207074       0.00000000       0.00215053      -0.00514429       0.01014256
C       -1.27432792       3.53815962       3.23010328       0.00000000       0.00294277       0.00070719      -0.00565614
C       -2.47901330       5.70203922       3.50336551       0.00000000      -0.00474904      -0.00319276      -0.00659671
C       -3.66606473       7.84128492       3.75887057       0.00000000      -0.00256602       0.00193061       0.00043570
C       -4.89204697       9.98597991       3.80536104       0.00000000       0.00065352      -0.00373673      -0.00025182
C        2.51207518       1.44903114       3.78222903       0.00000000       0.00382515       0.00805693       0.00286481
S        1.40853809       3.55470296       2.47664158       0.00000000       0.00122456       0.00057151       0.01018688
C       -0.11844939       5.67098041       3.04335208       0.00000000       0.00466160       0.00326037       0.00061460
C       -1.19950600       7.84065003       3.60398966       0.00000000      -0.00093779       0.00040342      -0.01069152
C       -2.42664567       9.97890478       3.85036304       0.00000000      -0.00726593      -0.00468685       0.00531332
C        4.96821762       1.44143428       3.95929495       0.00000000       0.00350371      -0.00820307      -0.00128878
N        3.79656336       3.52604565       4.24456901       0.00000000       0.00672138      -0.00198468      -0.00035307
C        1.29419755       7.90580182       3.66064567       0.00000000      -0.00688376      -0.00260313       0.01227841
C        0.03588657       9.97920673       3.85299905       0.00000000       0.00433598       0.00632139      -0.00817618
C        7.43707717       1.43436141       3.87311223       0.00000000      -0.00245947      -0.00287316      -0.00880246
C        6.19662520       3.55571232       3.94731238       0.00000000      -0.00030578       0.00282787      -0.00930293
C        4.94914528       5.70172385       4.04589959       0.00000000       0.00001187       0.00825580       0.00289401
C        3.74589322       7.83422213       3.98287010       0.00000000       0.00232907      -0.00014911      -0.00330288
C        2.50852283       9.99507849       3.90183247       0.00000000       0.00486195      -0.00289734       0.00167516
C        9.91160662       1.43520896       3.67555859       0.00000000      -0.00624174       0.00482888      -0.00063755
C        8.64228700       3.56411882       3.67705000       0.00000000      -0.00654819      -0.00231571      -0.00565759
C        7.41804097       5.70373002       3.80622484       0.00000000       0.00378988       0.00441984       0.00256974
C        6.21289053       7.84332889       3.89298040       0.00000000       0.00066189      -0.00348477       0.00558864
C        4.97859529       9.98414844       3.83623761       0.00000000      -0.00022076       0.00173930      -0.00120041
Ta       2.34133741       4.90236045       5.10605369       0.00000000      -0.01060229      -0.00379676      -0.01341947
O        0.90547271       3.95307688       5.55242833       1.00000000       0.00586688       0.00616802       0.00267851
O        2.99324013       5.60411579       6.59244770       1.00000000       0.00081896       0.00649968       0.00778428
