51
Lattice="12.336457 0.0 0.0 -6.168228499999997 10.683685154694365 0.0 0.0 0.0 15.0" Properties=species:S:1:pos:R:3:initial_magmoms:R:1:forces:R:3 energy=-457.9369114566694 free_energy=-457.9369114566694 stress="-0.004422738275703403 0.0023636701691876275 1.7500786996745678e-06 0.0023636701691876275 0.00031241112611310196 2.0565905816366166e-05 1.7500786996745678e-06 2.0565905816366166e-05 7.865173741223558e-06" pbc="T T T"
C       -0.02892191      -0.00858970       3.65448013       0.00000000       0.00178041       0.00946426      -0.00162915
C       -1.25946318       2.12061830       3.70582267       0.00000000       0.00191953       0.00030573       0.00572309
C       -2.48189667       4.25922226       3.66511576       0.00000000       0.00378538      -0.00748479       0.00381406
C       -3.71960750       6.39992618       3.57741830       0.00000000      -0.00317203      -0.00289243       0.00183698
C       -4.96651392       8.54127681       3.54305889       0.00000000      -0.00521452       0.00432834       0.00575013
C        2.43856366       0.00804225       3.77636928       0.00000000       0.00279137      -0.00404481       0.00315435
C        1.20512097       2.15285712       3.88078551       0.00000000      -0.00150470       0.00305821      -0.01133889
C       -0.02203114       4.26801362       3.90312242       0.00000000       0.00102897       0.00417153      -0.00187204
C       -1.27220624       6.41595344       3.79005725       0.00000000      -0.00326082       0.00180769       0.00248511
C       -2.50409768       8.54766759       3.72253043       0.00000000      -0.00532181      -0.00084506       0.00200807
C        4.90850627      -0.00487066       3.84387821       0.00000000       0.00187918       0.00480258       0.00237993
C        3.68934742       2.15048204       3.95753608       0.00000000       0.00212709      -0.00206207      -0.00184145
N        1.11142498       6.43435924       4.17961024       0.00000000       0.00066713      -0.00892400      -0.00367803
C       -0.03984695       8.52868172       3.86422249       0.00000000      -0.00320271       0.00333152       0.00113528
C        7.38250144      -0.02786433       3.82060956       0.00000000      -0.00521308       0.00073334      -0.00269659
C        6.16672430       2.10936864       3.79963374       0.00000000       0.00521197      -0.00155405      -0.00313637
C        4.94764599       4.22529046       3.68736755       0.00000000       0.00707086       0.00084866       0.00094394
P        3.45292737       6.22413060       2.71487658       0.00000000      -0.00744185      -0.00380973       0.00162306
C        2.42445330       8.50613149       3.72367509       0.00000000      -0.00046621      -0.00106047       0.00294646
C        9.84199228      -0.02889348       3.68181740       0.00000000       0.00075322      -0.00067798       0.00031050
C        8.62070411       2.11166281       3.70502632       0.00000000      -0.00074245       0.00054693      -0.00151180
C        7.40212487       4.24812439       3.59520572       0.00000000      -0.00551856       0.00149107       0.00462404
C        6.16881674       6.38956824       3.37601642       0.00000000       0.00236555       0.00165565      -0.00352247
C        4.89889506       8.52597226       3.43831679       0.00000000       0.00897967      -0.00075367       0.00140656
C       -0.03035223       1.41382650       3.74081382       0.00000000      -0.00024242       0.00693314       0.00486911
C       -1.26291081       3.54768501       3.73623769       0.00000000       0.00618262      -0.00333668      -0.00069267
C       -2.48744038       5.68996798       3.66808634       0.00000000       0.00018438      -0.00607427       0.00238556
C       -3.73081570       7.82983060       3.60406948       0.00000000      -0.00811446       0.00126533      -0.00046702
C       -4.96103763       9.96796528       3.65276496       0.00000000      -0.00190321       0.00561352      -0.00143478
C        2.44739012       1.42463568       3.89955353       0.00000000      -0.00044695      -0.00250836      -0.00481204
C        1.15016353       3.54288397       4.02514972       0.00000000      -0.00518348       0.00423294      -0.00704534
C       -0.04235402       5.73131242       3.96490499       0.00000000      -0.00474497      -0.00080379       0.00744070
C       -1.27645747       7.83385188       3.79778105       0.00000000      -0.00339628       0.00332365       0.00485809
C       -2.49841321       9.97293142       3.78360274       0.00000000       0.00462069      -0.00218893       0.00658981
C        4.92213925       1.41395434       3.87605388       0.00000000       0.00570952       0.00173450      -0.00111213
C        3.75786499       3.55641624       4.05181329       0.00000000       0.00557117       0.00269249      -0.00302181
C        1.17614189       7.78981468       3.93157381       0.00000000      -0.00302846      -0.00232188       0.00233603
C       -0.02681681       9.95320162       3.84524492       0.00000000      -0.00396019       0.00346271      -0.00245663
C        7.39235748       1.39434441       3.77741507       0.00000000       0.00182854      -0.00115879       0.00012671
C        6.18562821       3.52303304       3.69191988       0.00000000       0.00113370      -0.00197971      -0.00304037
C        4.98155454       5.62086656       3.32062520       0.00000000       0.00563469       0.00026067      -0.00153382
C        3.63953058       7.84644524       3.38350839       0.00000000       0.00358123       0.00280552       0.00082510
C        2.43784764       9.93538974       3.76114314       0.00000000      -0.00535015       0.00097154      -0.00097053
C        9.84589553       1.39709623       3.69373082       0.00000000      -0.00001057      -0.00002151      -0.00112656
C        8.62737829       3.53872451       3.64453010       0.00000000      -0.00415627       0.00126640       0.00462515
C        7.39998728       5.67820074       3.50561777       0.00000000      -0.00326514      -0.00022542       0.00188248
C        6.14282996       7.82138389       3.40736661       0.00000000       0.00518582      -0.00076422      -0.00734243
C        4.90629043       9.95053995       3.58952209       0.00000000       0.00682466       0.00107250       0.00417826
Ta       2.52153283       5.01897257       5.19934331       0.00000000      -0.00271174      -0.00213854      -0.01743111
O        3.72276802       6.17267557       5.84088419       1.00000000       0.00313256      -0.00462698      -0.00892689
O        1.72755601       4.30650107       6.61826021       1.00000000      -0.00237690      -0.00992232       0.01238235
