51
Lattice="12.336457 0.0 0.0 -6.168228499999997 10.683685154694365 0.0 0.0 0.0 15.0" Properties=species:S:1:pos:R:3:initial_magmoms:R:1:forces:R:3 energy=-457.2980415627069 free_energy=-457.2980415627069 stress="-0.0005261027501949045 0.00017465876345753892 -1.0683048787099622e-05 0.00017465876345753892 0.005237215886011632 1.1851927719095995e-05 -1.0683048787099622e-05 1.1851927719095995e-05 2.8182193618886356e-06" pbc="T T T"
C       -0.01969635      -0.00060376       3.79178178       0.00000000       0.00210692      -0.00182211       0.00065197
C       -1.25433955       2.12793888       3.72129360       0.00000000       0.00539351       0.00450705       0.00760857
C       -2.47643965       4.25955167       3.58372304       0.00000000       0.00140628       0.00797730      -0.00622529
C       -3.71788878       6.40147369       3.59436081       0.00000000      -0.00055604      -0.00067461       0.00549134
C       -4.95533881       8.54655668       3.71937262       0.00000000      -0.00599373      -0.00866469      -0.00118368
C        2.44922788       0.01783685       3.76821207       0.00000000      -0.00055438       0.00678459       0.01035757
C        1.20816530       2.16857306       3.95862819       0.00000000       0.00475305       0.00508887       0.00123747
C       -0.00509071       4.29106599       3.78691702       0.00000000      -0.00416004      -0.00770965      -0.01143857
C       -1.26172389       6.41051938       3.52922896       0.00000000       0.00231082      -0.00861912       0.00154374
C       -2.48363255       8.54931498       3.60581573       0.00000000      -0.00545915       0.00046046      -0.00429493
C        4.92128218       0.00024305       3.63822038       0.00000000       0.00240274      -0.00111017       0.00465494
C        3.69375845       2.16638716       3.82265623       0.00000000      -0.00528660      -0.00414493      -0.00792037
O        1.12528071       6.42295066       3.46348789       0.00000000       0.00376021       0.00400784      -0.00401460
C       -0.01583660       8.52225132       3.54361913       0.00000000       0.00239256       0.01015833       0.00157444
C        7.39829315      -0.04282477       3.61214741       0.00000000       0.00888516       0.00241099      -0.00069154
C        6.16624629       2.11979323       3.61137774       0.00000000      -0.00904315      -0.00205530      -0.01038222
C        4.92955851       4.27539578       3.77513547       0.00000000      -0.00385741      -0.00038401       0.00497700
O        3.79486947       6.40876274       4.14322320       0.00000000      -0.00876970      -0.00078698       0.00291270
C        2.45195276       8.44032908       3.70789855       0.00000000       0.00687619      -0.00599334       0.00622170
C        9.84496594      -0.04096849       3.70495774       0.00000000      -0.00873178      -0.00445971       0.00337282
C        8.62573724       2.11143651       3.59771716       0.00000000       0.00372143       0.00143605       0.00526707
C        7.39326387       4.25858947       3.58485787       0.00000000       0.00555863       0.00247258      -0.00034854
C        6.16238758       6.40987909       3.72979258       0.00000000       0.00181858       0.00360047      -0.00698818
C        4.90995514       8.51429604       3.81121604       0.00000000      -0.00749262       0.00384871      -0.00470760
C       -0.02270799       1.42565986       3.82250658       0.00000000       0.00742442       0.00305401       0.00870658
C       -1.24860024       3.55716574       3.67070003       0.00000000      -0.00280140       0.00556399       0.00230165
C       -2.48702384       5.68478765       3.56272909       0.00000000      -0.00153148       0.00204111      -0.00920815
C       -3.71935559       7.83252705       3.63620686       0.00000000      -0.00539202      -0.00575660       0.00358694
C       -4.95040471       9.97857970       3.77111181       0.00000000       0.00184087      -0.00494708      -0.01088587
C        2.44735351       1.44050618       3.87625267       0.00000000      -0.00049687       0.00450787      -0.00249123
C        1.15551093       3.57711640       4.13054372       0.00000000       0.00211246      -0.00508817      -0.00194253
C       -0.04708712       5.71503474       3.58039967       0.00000000       0.00385594      -0.00926852      -0.00130682
C       -1.26213536       7.83171479       3.53700226       0.00000000      -0.00026763      -0.00133595      -0.00720141
C       -2.48740971       9.98035533       3.66811279       0.00000000      -0.00187113       0.00492803       0.00742041
C        4.93016357       1.42098570       3.67631066       0.00000000      -0.00856983      -0.00572889      -0.00143077
C        3.74326906       3.55862700       3.94061814       0.00000000      -0.00435630      -0.00630753       0.00728238
C        1.18039572       7.80313376       3.55278173       0.00000000       0.00582177       0.00699239       0.00469587
C       -0.01198190       9.95324484       3.59226835       0.00000000       0.00857423       0.00935721       0.00361561
C        7.39803091       1.39338791       3.59537908       0.00000000      -0.00145977       0.00277279      -0.00528261
C        6.17337928       3.54658959       3.61716238       0.00000000       0.00085060      -0.00006523       0.00219388
C        4.97369291       5.69832907       3.86252752       0.00000000       0.00130637       0.00178510       0.00116176
C        3.71053509       7.81355976       3.88425834       0.00000000       0.00039981      -0.00409165       0.00350850
C        2.45375041       9.90113941       3.66740395       0.00000000      -0.00122663      -0.00846758       0.00325652
C        9.85185445       1.39800975       3.66474875       0.00000000       0.00361669      -0.00238817      -0.00533597
C        8.62743407       3.54098189       3.57205891       0.00000000       0.00687149       0.00321355       0.00550541
C        7.39154102       5.68409937       3.62519418       0.00000000       0.00294839       0.00235409      -0.00175938
C        6.16047412       7.82967268       3.76408125       0.00000000      -0.00979584       0.00216523       0.00199761
C        4.91282054       9.95072700       3.76642191       0.00000000      -0.00704596       0.00183665       0.00036450
Ta       2.47062428       4.94820948       5.24462259       0.00000000      -0.00751521       0.00718186      -0.00222571
O        3.18063384       4.05861623       6.59240601       1.00000000       0.01200339      -0.00638127       0.00563692
O        1.42689148       6.19880230       5.98972402       1.00000000       0.00322217      -0.00425586      -0.00983989
