51
Lattice="12.336457 0.0 0.0 -6.168228499999997 10.683685154694365 0.0 0.0 0.0 15.0" Properties=species:S:1:pos:R:3:initial_magmoms:R:1:forces:R:3 energy=-450.40033419854797 free_energy=-450.40033419854797 stress="-0.002766717269105638 -0.0019224437527077835 5.528253801296197e-07 -0.0019224437527077835 -0.0034464766881664756 -7.883622101796142e-06 5.528253801296197e-07 -7.883622101796142e-06 1.0340480913890753e-05" pbc="T T T"
C       -0.00939299       0.02108508       3.74364693       0.00000000      -0.00106555       0.00095475      -0.00051290
C       -1.27071917       2.14888123       3.49734071       0.00000000      -0.00224117       0.00160531      -0.00012094
C       -2.51508372       4.30006136       3.65429577       0.00000000       0.00178134       0.00085462       0.00080650
C       -3.69468512       6.44466897       3.94078631       0.00000000      -0.00146868       0.00273434      -0.00074199
C       -4.91887949       8.58379253       3.96764863       0.00000000       0.00149774      -0.00204590       0.00129353
C        2.46431337      -0.00319973       3.67716382       0.00000000       0.00080989      -0.00199548      -0.00024912
C        1.20712706       2.04264926       3.14159718       0.00000000      -0.00044291      -0.00435713      -0.00368392
C       -0.23059737       4.31622898       2.88289229       0.00000000       0.00107694      -0.00166692       0.00133320
C       -1.28637717       6.45109378       3.43834590       0.00000000       0.00130137      -0.00084469       0.00133823
C       -2.45019989       8.56959247       3.77060251       0.00000000       0.00138932       0.00084039       0.00060067
C        4.93243562       0.04118359       3.79266219       0.00000000      -0.00009509      -0.00344132       0.00264474
C        3.69650585       2.08920413       3.40614365       0.00000000       0.00177365       0.00040533       0.00135461
S        1.39936415       6.41477713       2.71848845       0.00000000       0.00220716      -0.00589480       0.00053187
C        0.00747239       8.57801775       3.65829133       0.00000000      -0.00227027       0.00180443       0.00131523
C        7.38951537       0.04101523       3.92707613       0.00000000      -0.00067938       0.00096093      -0.00081203
C        6.14048730       2.19496155       4.06331034       0.00000000      -0.00259058      -0.00052719       0.00147705
C        5.08351880       4.38124956       4.79095780       0.00000000      -0.00088551       0.00409682      -0.00099166
C        3.77128218       6.47802978       4.35908305       0.00000000       0.00255511       0.00254784       0.00500399
C        2.47410502       8.58872994       3.91067953       0.00000000      -0.00038203       0.00077315       0.00027918
C        9.86505125       0.03713997       3.91253915       0.00000000      -0.00035496       0.00139198      -0.00187492
C        8.61797606       2.17259532       3.91569219       0.00000000      -0.00055631      -0.00221367       0.00001730
C        7.41100439       4.30998719       4.17028213       0.00000000       0.00142623      -0.00043357       0.00080392
C        6.23182421       6.48190918       4.29673702       0.00000000      -0.00158753      -0.00000931      -0.00222732
C        4.94335356       8.58855367       4.08743236       0.00000000       0.00206834      -0.00017540      -0.00046516
C       -0.02989438       1.42630383       3.44806544       0.00000000      -0.00220703       0.00168534      -0.00052463
C       -1.33233762       3.56221450       3.33082445       0.00000000      -0.00009667       0.00025404      -0.00037502
C       -2.49780500       5.72628232       3.68399803       0.00000000      -0.00098766       0.00111867      -0.00056546
C       -3.68861593       7.86722508       3.90293095       0.00000000       0.00224517       0.00241381      -0.00075883
C       -4.93959443       9.99353477       3.79663230       0.00000000      -0.00032152      -0.00128707       0.00055846
C        2.44872662       1.38926065       3.39915836       0.00000000       0.00186100      -0.00096326      -0.00050283
S        1.23874694       3.58056275       2.29548611       0.00000000      -0.00248375       0.00399794       0.00150608
C       -0.17998312       5.70222489       2.99424586       0.00000000       0.00246406      -0.00225838       0.00119980
C       -1.22670011       7.86431782       3.60875718       0.00000000      -0.00141747       0.00047285      -0.00201675
C       -2.46010284       9.99769019       3.75401829       0.00000000       0.00045016      -0.00191719       0.00157720
C        4.92555410       1.46754729       3.79780289       0.00000000       0.00011265      -0.00433467      -0.00233340
O        3.70733363       3.33450990       3.01186548       0.00000000      -0.00187056       0.00027735       0.00045336
C        1.26816967       7.93000646       3.55578926       0.00000000      -0.00218620       0.00072594       0.00139072
C       -0.00016309      10.00513921       3.83289132       0.00000000      -0.00003569       0.00064420      -0.00407856
C        7.37294657       1.47398890       3.99333686       0.00000000      -0.00188669      -0.00033248      -0.00166599
C        6.20437746       3.59574731       4.34856347       0.00000000       0.00002419       0.00112770      -0.00027991
C        5.00458432       5.78763228       4.48397795       0.00000000      -0.00033266       0.00250395      -0.00009328
C        3.70822280       7.86782851       4.10944298       0.00000000       0.00183962       0.00121390      -0.00350450
C        2.46165426      10.01514421       3.95545185       0.00000000      -0.00060243       0.00190202      -0.00015455
C        9.85860947       1.45790117       3.78569472       0.00000000      -0.00074813      -0.00000166       0.00080220
C        8.61861220       3.59352214       3.92099229       0.00000000       0.00197298      -0.00211001      -0.00199533
C        7.42751271       5.74077486       4.17143704       0.00000000      -0.00114717       0.00115499      -0.00143582
C        6.19182196       7.88926685       4.13357768       0.00000000       0.00144105      -0.00215382       0.00148661
C        4.93093277      10.00488858       3.92179640       0.00000000       0.00021785       0.00066477       0.00137951
Ta       2.72546331       4.65699257       4.26201186       0.00000000       0.00252430      -0.00231331       0.01827862
O        4.09384397       3.85239753       5.50192730       1.00000000       0.00009254      -0.00013432       0.00326623
O        1.39848424       4.63426006       5.39798533       1.00000000      -0.00218906       0.00228418      -0.01873400
