52
Lattice="12.336457 0.0 0.0 -6.168228499999997 10.683685154694365 0.0 0.0 0.0 15.0" Properties=species:S:1:pos:R:3:forces:R:3 energy=-459.4321835786853 free_energy=-459.4321835786853 stress="-0.005301519716013085 -0.0022170575720987197 -1.2783062920525863e-05 -0.0022170575720987197 -0.003651420879758371 -3.089284045020538e-05 -1.2783062920525863e-05 -3.089284045020538e-05 1.8220550200928185e-05" pbc="T T T"
C       -0.04219711       0.03242025       3.76451552       0.00865814       0.00130498      -0.00295117
C       -1.29136946       2.15245648       3.79954487       0.00623183      -0.00026583      -0.00069915
C       -2.52508684       4.28746049       3.84777386       0.00365908       0.00268163      -0.00635340
C       -3.73941246       6.43384269       3.83204267      -0.00115542       0.00032517      -0.00227459
C       -4.96382929       8.58237935       3.79804437      -0.00315047       0.00213025      -0.00303478
C        2.42630992       0.01257690       3.68357626       0.00717497      -0.00735267       0.00362135
C        1.18643408       2.16176432       3.68567335      -0.00387475       0.00368666      -0.01327625
C       -0.06395622       4.28325556       3.91557800      -0.00276144       0.00387613      -0.00231534
C       -1.29887091       6.43411220       3.91495580      -0.00050384       0.00141637       0.00241156
C       -2.50506609       8.56839480       3.80318504      -0.00177569      -0.00202763       0.00576036
C        4.89715503       0.00902834       3.66962063       0.00416661      -0.00078500       0.01310371
C        3.64797006       2.08706283       3.32749141      -0.00785929      -0.00689874       0.01204957
C        1.14391563       6.42418854       4.12078750      -0.00427759       0.00237352      -0.00293097
C       -0.03609588       8.55659516       3.88186026      -0.00445564      -0.00314704      -0.00092194
C        7.35808246       0.01226499       3.77303433      -0.00199927      -0.00317220      -0.00033169
C        6.11812750       2.16255241       3.60622211       0.00023849       0.00101762       0.00729897
C        4.87833888       4.35952173       3.62277818      -0.01124548       0.00044090      -0.00752699
N        3.75975272       6.49878461       3.86167600      -0.00803898      -0.00296334      -0.00792473
C        2.43705716       8.55005958       3.90718844       0.00203812      -0.00538165       0.00379606
C        9.81998523       0.01605945       3.80450390       0.00086972       0.00386222       0.00122906
C        8.57927523       2.15398345       3.77202972       0.00551228       0.00327502       0.00215061
C        7.34695652       4.29623051       3.76965175      -0.00162173      -0.00680862      -0.00879378
C        6.15927160       6.46993811       3.79064703      -0.00215510      -0.00566795      -0.00402679
C        4.91383182       8.58506481       3.82206262       0.00071791       0.00218846      -0.00892169
C       -0.05203242       1.44892305       3.75085537       0.00469912      -0.00082656      -0.00393718
C       -1.30175696       3.57067208       3.84966098       0.00099378      -0.00067718       0.00228543
C       -2.51713756       5.71642827       3.86665735       0.00184719       0.00353133      -0.00513588
C       -3.73461877       7.85952031       3.81378808      -0.00445265       0.00121571       0.00476491
C       -4.97311866      10.00174423       3.75755206       0.00691457      -0.00066447       0.00476266
C        2.41528174       1.42776525       3.55533885      -0.00681145      -0.00834461       0.00837544
C        1.15978327       3.57310340       3.81858403      -0.00371424       0.00613315      -0.00074599
C       -0.06744883       5.71638847       4.00158348      -0.00122554       0.00332080      -0.00304311
C       -1.27562664       7.85343202       3.87244239      -0.00350069      -0.00159351       0.00082800
C       -2.50579911       9.98750736       3.71508010       0.00749837      -0.00375148      -0.00649249
C        4.89590748       1.42813896       3.51866496      -0.00143985      -0.00213644      -0.00167739
P        3.57827188       3.69184424       2.55676462       0.00234221       0.00600232      -0.00270733
C        1.20349384       7.82491469       3.98158763      -0.00248333       0.00109733      -0.00146323
C       -0.03868752       9.97718906       3.77553236      -0.00184481      -0.00494640       0.00728982
C        7.34759178       1.44190005       3.71652275       0.00403230       0.00033496       0.00062913
C        6.11781633       3.58743115       3.66096003      -0.00533855      -0.00142653      -0.00109100
C        4.93901099       5.79521898       3.76688675      -0.00520322      -0.00239091      -0.00241213
C        3.69404800       7.86471712       3.86943028       0.00204513      -0.00423805       0.01142306
C        2.42357965       9.97815759       3.83078113      -0.00026113      -0.00397886       0.00023753
C        9.81241626       1.43907307       3.79274098       0.00572948       0.00564711       0.00306165
C        8.57719455       3.58012841       3.79636751       0.00419061       0.00095126       0.00716613
C        7.36996221       5.72594516       3.80032361      -0.00058890      -0.00729988       0.00327624
C        6.14565290       7.88245406       3.81004246      -0.00175935      -0.00104843       0.00086904
C        4.89372475      10.00149857       3.80176116       0.00386545       0.00652610       0.00180270
Ta       2.61986375       4.94631324       4.51655050       0.00224342       0.00556095       0.00314218
O        2.85518339       4.52833156       6.23826385       0.00292625       0.01150762      -0.00604020
O        3.04567238       4.17769776       7.59972847       0.00958178       0.00709577      -0.00056024
H        3.15506021       5.05067532       8.03374050      -0.00467844       0.00029065      -0.00374577
