52
Lattice="12.336457 0.0 0.0 -6.168228499999997 10.683685154694365 0.0 0.0 0.0 15.0" Properties=species:S:1:pos:R:3:forces:R:3 energy=-459.368900162178 free_energy=-459.368900162178 stress="-0.004910148366317787 -0.001276299852546722 -2.2028578940296876e-05 -0.001276299852546722 -0.001353801887021827 -1.5727932449687135e-05 -2.2028578940296876e-05 -1.5727932449687135e-05 -1.908737755660086e-05" pbc="T T T"
C       -0.01728858      -0.03323224       3.61813972      -0.00188934      -0.00663656      -0.00110403
C       -1.27356524       2.09256065       3.79671676       0.01036436       0.00705349       0.00091269
C       -2.50963655       4.24240375       3.62322101      -0.00683248       0.00137680       0.00367223
C       -3.71266713       6.38565598       3.46066803      -0.00346125      -0.00074071       0.00912532
C       -4.93874920       8.52944520       3.45196916      -0.00115681       0.00755291      -0.00222938
C        2.45855047      -0.02655160       3.67914762       0.00510484       0.00553568      -0.00393485
C        1.19988610       1.99657711       4.14640929       0.00061765      -0.00275851      -0.00280844
C       -0.16018786       4.28283478       4.17428385      -0.00201671       0.00055175      -0.00035809
C       -1.27891966       6.39532207       3.71653109      -0.00056779      -0.00142080       0.01031277
C       -2.47789066       8.52755830       3.55367340       0.00487352      -0.00330922      -0.00501098
C        4.92261896      -0.02409069       3.69060149      -0.00306722       0.00152821       0.00152746
C        3.68992743       2.12355673       3.97269419      -0.00304237      -0.00439518      -0.00276775
C        1.14907613       6.39044058       4.26082633      -0.00072430       0.00088953       0.00378271
C       -0.01063214       8.50667403       3.75042432       0.00341366       0.00710873      -0.00606074
C        7.38680717      -0.04264685       3.65841882       0.00095570      -0.00924931      -0.00254583
C        6.14935599       2.11036481       3.68473967      -0.00937669       0.00220793      -0.00119393
C        4.93257998       4.27167090       3.87946721       0.00499540      -0.00233328      -0.00374744
N        3.80212425       6.45529260       3.83427755       0.00426168       0.00687112      -0.00102025
C        2.46271472       8.48736912       3.75129615      -0.00025853      -0.00805430       0.00329425
C        9.84583821      -0.04477514       3.59555272      -0.00038233      -0.00121332       0.00844838
C        8.60849344       2.09981529       3.59584910      -0.00712849      -0.00263220      -0.00365037
C        7.37575249       4.24462976       3.53756066       0.00121131       0.00415652       0.00333934
C        6.17385219       6.39967235       3.49518927      -0.00167872      -0.00038129      -0.00704441
C        4.93631141       8.52314125       3.49082364      -0.00213649      -0.00296865       0.00014928
C       -0.03837381       1.36956675       3.85200766       0.00572459      -0.00401644      -0.00622731
C       -1.30485190       3.52053374       3.84696694      -0.00403433       0.00718506       0.00579890
C       -2.49142951       5.67150599       3.57569989      -0.00334422      -0.00144496       0.00490643
C       -3.70597684       7.81353865       3.46550025      -0.00159091       0.00242486      -0.00851657
C       -4.94374283       9.95095945       3.56521669       0.00209098       0.00934011      -0.00313848
C        2.45872995       1.37420944       3.93650721       0.00175954      -0.00171030       0.00721114
P        1.18812672       3.52437448       4.96519497      -0.00710606       0.00007972       0.00939202
C       -0.07377301       5.69805789       4.04926388      -0.00211465       0.00010859       0.00975776
C       -1.25119895       7.81136866       3.65742574       0.00726045      -0.00070471       0.00561476
C       -2.47713005       9.94842427       3.62643970       0.00187613      -0.00130142      -0.00702973
C        4.91798280       1.40213693       3.77339475      -0.00758679      -0.00241756       0.00207614
C        3.74933399       3.54248274       4.17352536       0.00763720      -0.00678794      -0.00961758
C        1.22633160       7.76449036       3.93061638      -0.00285722       0.00097583       0.00348233
C       -0.01250994       9.92919855       3.68849520      -0.00094609       0.00422649      -0.00552850
C        7.38056747       1.38595533       3.62357762      -0.01081409      -0.00523645       0.00236145
C        6.15494565       3.53681258       3.66779601       0.00371947       0.00327390      -0.00603919
C        4.97222179       5.71521703       3.75079482      -0.00032852      -0.00100088      -0.00294781
C        3.72221096       7.81253805       3.65193856      -0.00083609       0.00293885      -0.00072005
C        2.45071056       9.91729035       3.64656522       0.00148273      -0.01146202      -0.00103338
C        9.84290553       1.38331235       3.64188250       0.00665758       0.00523885      -0.01158112
C        8.60542939       3.52782782       3.55463201      -0.00566045      -0.00069044      -0.00271443
C        7.39414497       5.67160641       3.47046572      -0.00074921       0.00156815       0.00488477
C        6.16771842       7.81887005       3.44234860      -0.00042296       0.00002933      -0.00028538
C        4.91867620       9.94155920       3.53970957      -0.00283773      -0.00706940       0.00150263
Ta       2.84262251       5.23487262       5.09147360       0.01087667       0.00449636       0.00080105
O        3.12044114       5.53974058       6.82588853       0.00973265      -0.00862196       0.00401467
O        3.32948408       5.78821581       8.20273579       0.00899037       0.00096450       0.00711340
H        4.04719994       5.15921293       8.42815951      -0.00865765       0.01087456      -0.00462585
