51
Lattice="12.336457 0.0 0.0 -6.168228499999997 10.683685154694365 0.0 0.0 0.0 15.0" Properties=species:S:1:pos:R:3:initial_magmoms:R:1:forces:R:3 energy=-458.01306987706874 free_energy=-458.01306987706874 stress="-0.003998880674671101 -0.0027093044986359555 8.966116684446304e-06 -0.0027093044986359555 -0.001287285756424287 2.025727276762096e-05 8.966116684446304e-06 2.025727276762096e-05 1.3220974306258858e-05" pbc="T T T"
C       -0.01525728       0.00169892       3.84504670       0.00000000       0.00099798       0.00055618      -0.00095646
C       -1.26433794       2.12670114       3.81952956       0.00000000      -0.00239611       0.00396662       0.00377608
C       -2.48409271       4.26509228       3.67027258       0.00000000       0.00295227      -0.00171970       0.01281509
C       -3.70661958       6.41607996       3.63455483       0.00000000      -0.00401960       0.00322129      -0.00116789
C       -4.93531309       8.55835842       3.75773527       0.00000000      -0.00028161       0.00553357      -0.00518368
C        2.45368091      -0.00388286       3.71016932       0.00000000       0.00120890       0.00225732       0.00593539
C        1.21385750       2.14060669       3.87283153       0.00000000      -0.00413817      -0.00353864      -0.00441254
C       -0.02070660       4.25621761       3.87654319       0.00000000       0.00285459       0.00860229       0.00572342
C       -1.26729354       6.41606364       3.64472078       0.00000000      -0.00456317       0.00270583       0.01012028
C       -2.47904957       8.55274996       3.62754329       0.00000000       0.00183270       0.00164226       0.00179588
C        4.92013730       0.00156283       3.55681253       0.00000000      -0.00691687      -0.00261866       0.00058773
C        3.65030980       2.09564624       3.38453715       0.00000000       0.00283793       0.00020478       0.00245852
C        1.14158648       6.42685509       3.92481192       0.00000000       0.00490464      -0.00617076       0.00772623
C       -0.01343685       8.54226653       3.67330121       0.00000000       0.00122835       0.00290875      -0.00469120
C        7.38892594      -0.01250910       3.66034385       0.00000000       0.00065302       0.00244762       0.01054346
C        6.14554610       2.14433810       3.47045684       0.00000000      -0.00344031      -0.00372706      -0.00420844
C        4.95394327       4.36126385       3.47093362       0.00000000       0.00485970      -0.00087428      -0.00775087
N        3.81138136       6.42986531       4.16529252       0.00000000       0.00785097       0.00456536      -0.00226490
C        2.47409315       8.51835818       3.89961538       0.00000000      -0.00381024      -0.00228646       0.00675277
C        9.84843338      -0.01320153       3.81271977       0.00000000       0.00590261       0.00189757       0.00816337
C        8.61168732       2.12897421       3.65687084       0.00000000      -0.00251009       0.00379868      -0.00316060
C        7.39257140       4.28094237       3.57809252       0.00000000      -0.00038740      -0.00338085       0.00698691
C        6.18949124       6.44359893       3.74216199       0.00000000       0.00089736      -0.00558207       0.01010831
C        4.93688382       8.54418957       3.88967854       0.00000000       0.00540662      -0.00392880       0.01148109
C       -0.02156293       1.42372330       3.87007411       0.00000000      -0.00514322      -0.00094565      -0.00894591
C       -1.26218553       3.54775104       3.78006590       0.00000000       0.00475000       0.00301058      -0.00352158
C       -2.48280616       5.69681970       3.62994339       0.00000000      -0.00448679      -0.00153131      -0.00620664
C       -3.70661330       7.84075628       3.66795603       0.00000000       0.00028302       0.00660448      -0.00118376
C       -4.94507707       9.97685191       3.79124366       0.00000000       0.00111753       0.00622253      -0.00537575
C        2.44324255       1.41351625       3.68115680       0.00000000       0.00189349       0.00051713       0.00033576
C        1.19598269       3.55423695       4.02707449       0.00000000      -0.00857366      -0.00339394      -0.00825930
C       -0.03388991       5.70536858       3.79220280       0.00000000       0.00388794       0.00737160      -0.00160267
C       -1.24878212       7.83723324       3.62332486       0.00000000       0.00100492       0.00199914      -0.00653139
C       -2.47832610       9.97406543       3.62372251       0.00000000      -0.00381229      -0.00149475       0.00777057
C        4.90950080       1.43060644       3.45052966       0.00000000      -0.00226461      -0.00505734      -0.00509799
P        3.39139963       3.76477100       2.87179023       0.00000000       0.00594570       0.00401849       0.00294900
C        1.22562542       7.80405020       3.82143093       0.00000000      -0.00179736      -0.00576956      -0.01736810
C       -0.01369833       9.96363542       3.62148409       0.00000000      -0.00251670       0.00427083      -0.00222252
C        7.37546100       1.41930463       3.58976621       0.00000000      -0.00101277       0.00180129      -0.00758184
C        6.14855569       3.58285003       3.48430859       0.00000000      -0.00021275      -0.00492643       0.00416676
C        4.95650217       5.76294353       3.79580039       0.00000000       0.00069558      -0.00174954      -0.00083295
C        3.72541604       7.79513688       4.00950373       0.00000000       0.00204397       0.00110117      -0.00418006
C        2.45530150       9.94230596       3.79000574       0.00000000       0.00317602      -0.00115034       0.00234941
C        9.84025638       1.41229598       3.76333902       0.00000000      -0.00186917       0.00440773      -0.00398271
C        8.61669890       3.55841914       3.62477539       0.00000000       0.00092746       0.00096713       0.00956038
C        7.40207861       5.70771146       3.64172841       0.00000000      -0.00190867      -0.00293840      -0.01480314
C        6.17544478       7.85251169       3.81212247       0.00000000       0.00355354      -0.00528747       0.00160391
C        4.91891688       9.96485917       3.85712769       0.00000000       0.00605256      -0.00250621       0.00792677
Ta       2.41608230       5.02095481       5.21812334       0.00000000      -0.01580298      -0.00147429      -0.00131490
O        3.52610229       3.79648209       5.89769693       1.00000000       0.00165717      -0.00672542      -0.00494157
O        1.59275341       5.78793025       6.59504562       1.00000000       0.00048797      -0.00782229      -0.00388772
