52
Lattice="12.336457 0.0 0.0 -6.168228499999997 10.683685154694365 0.0 0.0 0.0 15.0" Properties=species:S:1:pos:R:3:forces:R:3 energy=-450.04485772705357 free_energy=-450.04485772705357 stress="-0.004885125889072214 -0.0006904159684140034 2.4651439992656138e-05 -0.0006904159684140034 -0.0032984487369466203 4.448997846001468e-05 2.4651439992656138e-05 4.448997846001468e-05 1.821567239085443e-05" pbc="T T T"
C       -0.01278717       0.02589326       3.79536850      -0.00687434       0.00073869      -0.01073782
C       -1.24754201       2.17089560       3.74812126      -0.00129228      -0.00626246      -0.00905139
C       -2.47466084       4.30594013       3.95683086       0.00575462      -0.00824777       0.00019643
C       -3.70510140       6.45563695       4.03567827       0.00517196      -0.01247472      -0.00576467
C       -4.93904688       8.59075031       3.97496979      -0.00303209      -0.00404586      -0.00378352
C        2.45731035       0.01852413       3.65217212       0.00189843       0.00214341       0.00319572
C        1.18692531       2.06894935       3.21263088       0.00799781       0.01101299       0.00445035
C       -0.02932998       4.32818591       3.65933675      -0.00584366       0.00808850       0.00192716
C       -1.28348585       6.47398435       3.89809862       0.00283115       0.00579394       0.00342935
C       -2.47728604       8.59809988       3.89573622      -0.00849174      -0.00651526      -0.00387641
C        4.92401448       0.04928906       3.71600113       0.00418318       0.00161285      -0.01353251
C        3.69281723       2.11170259       3.25062824       0.00723212       0.00312488      -0.01306884
C        1.15194628       6.52040339       3.82439641      -0.00097064       0.00818396      -0.01126248
C       -0.01030091       8.60487470       3.85471443       0.00014176       0.00283062       0.00202647
C        7.39810038       0.03818970       3.84174556      -0.00496390      -0.00233432      -0.01203380
C        6.15493780       2.19156673       3.71109049       0.01000115      -0.00662115      -0.00684115
C        4.98961141       4.39887305       3.71055363      -0.00552810      -0.00232762       0.01109653
O        3.77348786       6.46723525       3.96326549       0.01000310       0.00879264       0.00042701
C        2.48750682       8.56646545       3.91070156      -0.00303286       0.01089904       0.00440205
C        9.86167230       0.02740990       3.89314772      -0.01077998      -0.00063529      -0.00500489
C        8.62460039       2.17560107       3.89886389      -0.00172979      -0.00598215      -0.00354100
C        7.39878990       4.31794487       3.98548794      -0.00212601      -0.00194226      -0.00937886
C        6.18955638       6.47579292       4.08482353       0.00374479       0.00482091       0.00648114
C        4.93061465       8.57133064       3.99573264      -0.00320496       0.00145684      -0.01348665
C       -0.02296689       1.44216318       3.60253323       0.00434402       0.00368257       0.00621607
C       -1.26410591       3.57558535       3.82031878       0.00515033      -0.00603963       0.00272685
C       -2.48233403       5.73929277       3.97631890       0.01062248      -0.00673989       0.00156231
C       -3.70256268       7.88123746       3.98435840      -0.00593927      -0.01418993      -0.00333977
C       -4.94051540      10.00751382       3.81141892      -0.00160898      -0.00039991       0.01081128
C        2.45439513       1.42318479       3.33033484       0.00519102       0.00586673      -0.00303171
S        0.96915671       3.56179994       2.26023759       0.00795232       0.00464079       0.01469260
C       -0.04005936       5.77483617       3.80388097      -0.00194817       0.00709963      -0.01093020
C       -1.24857210       7.89059753       3.88903695      -0.00172530       0.00530213       0.01817033
C       -2.47478401      10.01510162       3.76171501       0.00263086      -0.00268059      -0.00552612
C        4.92556574       1.47410275       3.55819950       0.00434760       0.00573820       0.00595373
S        3.72764438       3.76890860       2.63963790      -0.00341307       0.00074634       0.00878518
C        1.22496117       7.90272027       3.86095748       0.00218384       0.00663605       0.00908395
C       -0.00927063      10.02371949       3.81432647      -0.00156300      -0.00000298       0.00481381
C        7.38305908       1.46912190       3.83007822       0.00370933      -0.01060936      -0.00216855
C        6.17423711       3.61234570       3.81507916      -0.00075757      -0.00742253       0.00218357
C        4.99400323       5.77932143       3.96105883       0.00683437       0.00284141      -0.00046438
C        3.72099101       7.87118710       3.96492312      -0.00204796       0.00629459       0.00829085
C        2.46927567       9.99583190       3.89504450      -0.00989788       0.00602978       0.00246919
C        9.86012029       1.46027319       3.86444673      -0.00417297      -0.00308649       0.00230546
C        8.62991252       3.59651895       3.96451857       0.00046251      -0.00511335       0.01185849
C        7.40721244       5.73919413       4.06026552      -0.00001852      -0.00081131       0.00526043
C        6.17618448       7.88851111       4.04957708      -0.00280356       0.00315361      -0.00249623
C        4.92017765       9.99799418       3.91387351      -0.01172832       0.00023463      -0.00295617
Ta       2.03839671       4.71645224       4.16982055       0.00311540       0.00559340       0.00380068
O        2.20998429       4.00284293       5.80268727      -0.00282302      -0.00504655      -0.00609317
O        2.42384195       3.34921206       7.04392744      -0.00886315       0.00218986       0.00594032
H        2.29622400       4.07715379       7.68994782       0.00167694      -0.01601760      -0.00418701
