51
Lattice="12.336457 0.0 0.0 -6.168228499999997 10.683685154694365 0.0 0.0 0.0 15.0" Properties=species:S:1:pos:R:3:initial_magmoms:R:1:forces:R:3 energy=-449.68926595636674 free_energy=-449.68926595636674 stress="-0.004532759849656038 -0.003514264821341221 4.824129966247917e-06 -0.003514264821341221 -0.002440394462548103 -1.959384911698973e-05 4.824129966247917e-06 -1.959384911698973e-05 -5.641767226516009e-06" pbc="T T T"
C        0.01870321      -0.01709333       3.94597878       0.00000000      -0.00059722       0.00052567      -0.00523504
C       -1.24820842       2.10187678       3.92405727       0.00000000      -0.00928636       0.00129708      -0.00462155
C       -2.47471295       4.25425964       3.78917587       0.00000000       0.00304676      -0.00303825      -0.00143406
C       -3.66854901       6.40191193       3.77492705       0.00000000       0.00642272       0.00083554      -0.00246930
C       -4.89350819       8.54289940       3.88803035       0.00000000      -0.00372659       0.00150677      -0.00336854
C        2.48324891      -0.00400482       3.79995249       0.00000000       0.00314390      -0.00307098      -0.00150844
C        1.21003732       2.09055447       3.88753626       0.00000000       0.00042498       0.00409008      -0.00323437
C       -0.07623550       4.21802484       3.75276751       0.00000000       0.00595385      -0.00401682       0.00121615
C       -1.21855251       6.37470093       3.56126259       0.00000000      -0.00155214      -0.00456239       0.00134163
C       -2.42595966       8.52480303       3.69183320       0.00000000      -0.00477298       0.00173843       0.00061174
C        4.94626407      -0.01181439       3.62982699       0.00000000      -0.00241423      -0.00108696      -0.00454504
C        3.68530456       2.08350182       3.39862681       0.00000000       0.00298184      -0.00524941       0.00084935
S        1.41765781       6.25087741       2.74719262       0.00000000       0.00465751      -0.00504131       0.00500376
C        0.03089694       8.52181673       3.52669389       0.00000000      -0.00270389      -0.00246833       0.00283913
C        7.40732913      -0.01257393       3.71882010       0.00000000      -0.00198746       0.00102265       0.00075740
C        6.16673737       2.13709880       3.55223712       0.00000000       0.00135902      -0.00598952      -0.00250820
C        5.02546602       4.33920467       3.41321555       0.00000000       0.00472263       0.00017535       0.00128285
C        3.78656106       6.41345929       4.02243844       0.00000000      -0.00027126       0.00829218      -0.00814088
C        2.48832451       8.53541335       3.75787269       0.00000000       0.00418069       0.00412666      -0.00282206
C        9.87404731      -0.02132872       3.91951863       0.00000000       0.00057333      -0.00317325      -0.00148004
C        8.62833718       2.11973977       3.80249488       0.00000000      -0.00089497       0.00127228       0.00621118
C        7.41970788       4.26756037       3.71760054       0.00000000      -0.00175240       0.00164709      -0.00113952
C        6.23279083       6.42351875       3.83854618       0.00000000      -0.00098923       0.00449535       0.01050208
C        4.96352698       8.53560341       3.95444692       0.00000000      -0.00282154       0.00069272       0.00281030
C        0.00337883       1.41206979       3.93760490       0.00000000      -0.00440329       0.00453717      -0.00059445
C       -1.26331665       3.51321979       3.84166139       0.00000000       0.00257464      -0.00103855       0.00403018
C       -2.44871525       5.67416751       3.71573107       0.00000000       0.00376292      -0.00422713       0.00513820
C       -3.66384033       7.82504816       3.78983690       0.00000000      -0.00207943      -0.00004900       0.00343564
C       -4.90902682       9.96824640       3.90005144       0.00000000       0.00072250      -0.00062103      -0.00122913
C        2.45645375       1.43623076       3.73090661       0.00000000       0.00082592      -0.00450271      -0.00528098
O        1.13885198       3.51212858       4.00270211       0.00000000       0.00086485       0.00745607       0.00468018
C       -0.04664263       5.57890557       3.44410166       0.00000000      -0.00242173      -0.00462974       0.00578945
C       -1.19813424       7.80267647       3.55575628       0.00000000      -0.00602822      -0.00128274       0.00607554
C       -2.44752864       9.96036192       3.70546609       0.00000000       0.00060684      -0.00041053      -0.00030479
C        4.92975083       1.42419729       3.52173817       0.00000000       0.00136219      -0.00411703      -0.00478895
S        3.59729857       3.68400288       2.66376627       0.00000000      -0.00122116      -0.00158965       0.00613444
C        1.28835335       7.87019148       3.41774462       0.00000000       0.00498623      -0.00012159       0.00005384
C        0.01652963       9.95500032       3.63231505       0.00000000      -0.00430483       0.00092172      -0.00021096
C        7.39127838       1.41920573       3.70225323       0.00000000       0.00214121      -0.00075686      -0.00697104
C        6.19349142       3.55906979       3.55095243       0.00000000      -0.00147810      -0.00638786      -0.00478231
C        4.98987708       5.71709449       3.78115214       0.00000000       0.00667826       0.00255297       0.00015180
C        3.72669634       7.81418132       3.91886181       0.00000000       0.00268794      -0.00337200       0.00213452
C        2.47362839       9.96044044       3.82436035       0.00000000       0.00097782       0.00383079      -0.00392405
C        9.86671931       1.40266831       3.90033876       0.00000000      -0.00505018      -0.00271526      -0.00604877
C        8.63396423       3.54275237       3.78421441       0.00000000       0.00080037       0.00205303      -0.00152029
C        7.43879195       5.69340046       3.78159381       0.00000000       0.00217212       0.00684430      -0.00204501
C        6.21212321       7.83732697       3.92570732       0.00000000      -0.00539887       0.00604941      -0.00470950
C        4.94932763       9.95539469       3.95698980       0.00000000      -0.00037064      -0.00084922      -0.00852220
Ta       2.53402074       4.93290684       4.93986493       0.00000000      -0.00296035       0.00127870       0.01936622
O        1.55202913       5.99361412       5.96531698       1.00000000      -0.00010558       0.00391812       0.00555371
O        3.59691206       3.92986792       5.94161432       1.00000000       0.00096161       0.00320800      -0.00252978
