52
Lattice="12.336457 0.0 0.0 -6.168228499999997 10.683685154694365 0.0 0.0 0.0 15.0" Properties=species:S:1:pos:R:3:forces:R:3 energy=-458.16826620609123 free_energy=-458.16826620609123 stress="-0.0016510617811928544 0.0011323051719283107 1.3385807204124992e-05 0.0011323051719283107 0.001350543760608308 -2.8941869215481765e-06 1.3385807204124992e-05 -2.8941869215481765e-06 2.2359864752594026e-05" pbc="T T T"
C        0.03802733      -0.00127726       3.63389188      -0.00259315      -0.00012765       0.00965835
C       -1.20254162       2.11981233       3.71861801       0.00457492       0.00507307       0.00928352
C       -2.43371247       4.24870966       3.77031102       0.00200557       0.00014910       0.00507005
C       -3.67528658       6.38395966       3.72203748       0.00239212      -0.00582962      -0.00203155
C       -4.90380024       8.53047684       3.63273117      -0.00578466       0.00412097       0.00418455
C        2.49610115       0.00116960       3.65487975       0.00536497       0.00163126       0.00238667
C        1.25473630       2.17338100       3.76788121       0.00129026      -0.00092273       0.00184730
C        0.02603277       4.25337046       3.91434100      -0.00484192      -0.00604901      -0.00388653
C       -1.21541233       6.38928809       3.82979165       0.00348905       0.00172112       0.00308316
C       -2.43752056       8.52280786       3.71109188      -0.00399055      -0.00156385       0.00050152
C        4.96842139      -0.03622474       3.71937569       0.00319088      -0.00307877      -0.00879615
C        3.76081854       2.05915993       3.64923111       0.00107845      -0.00146383      -0.00123361
O        1.17756876       6.40305762       4.04652572      -0.00371046       0.00153703      -0.00536058
C        0.02645317       8.50081866       3.80642966       0.00611050       0.00238189      -0.00285616
C        7.43460750      -0.04175318       3.75084379      -0.00140332      -0.00456893      -0.01297623
C        6.21139649       2.10312072       3.79142065      -0.00329660      -0.00189863       0.00107559
C        4.98399050       4.23109894       3.93525738       0.00302647      -0.00326483      -0.01044158
C        3.76828735       6.41727640       3.73535693      -0.00685688       0.00318116      -0.00503525
C        2.47334871       8.49235010       3.75421331       0.00527016       0.00158956      -0.00081164
C        9.89611828      -0.03273914       3.67858422      -0.00033056       0.00072665       0.00630246
C        8.66836946       2.10737577       3.74945648      -0.00351299       0.00341368       0.00290581
C        7.43181766       4.24372880       3.80465271       0.00343199       0.00623480       0.00366254
C        6.21341168       6.38398882       3.69094968      -0.00430655       0.00249162       0.01018133
C        4.96720033       8.53206295       3.61931559      -0.00362012      -0.00760213      -0.00010920
C        0.03925203       1.43030941       3.69059778       0.00172387       0.00276542       0.00671695
C       -1.20662766       3.53571625       3.78391265      -0.00206948       0.00048162      -0.00007048
C       -2.44505375       5.66934208       3.77332404       0.00619852      -0.00366289       0.00315909
C       -3.67629400       7.81159064       3.68066773      -0.00834501      -0.00196508       0.00810700
C       -4.90084330       9.96407904       3.63005247      -0.00039883       0.00735611       0.00269025
C        2.50416414       1.44896296       3.67808372       0.00258559       0.00004088      -0.00226626
N        1.22339377       3.54196698       3.97197519      -0.00485684       0.00017013      -0.00961949
C       -0.02856131       5.66820047       3.95569146      -0.00092090      -0.00411227      -0.01585804
C       -1.21648864       7.81133336       3.78644037       0.00253175       0.00369549      -0.00074896
C       -2.44315566       9.95956463       3.68624208       0.00330034      -0.00139502       0.00204525
C        4.97830502       1.39047906       3.71145116      -0.00245334      -0.00479482       0.00488103
O        3.80776819       3.47953455       3.52051030       0.00863403       0.00022729      -0.00186594
C        1.23979296       7.81493239       3.86961259       0.00569394       0.00271349       0.00432016
C        0.03617426       9.93066473       3.75906732       0.00215414      -0.00101578       0.00036766
C        7.43263786       1.39336064       3.76272396      -0.00438960      -0.00289271      -0.00376652
C        6.20721710       3.51887497       3.87896700       0.00409884       0.00150043      -0.00143985
C        4.96327343       5.65693885       3.78794107      -0.00778599       0.00088345       0.01085825
C        3.73321416       7.81521841       3.66954706      -0.00147294      -0.00019476       0.00538868
C        2.49087577       9.92701079       3.72299869      -0.00089815      -0.00097468      -0.00566981
C        9.90143532       1.39532343       3.70584795       0.00184732       0.00389493       0.00580861
C        8.66382846       3.53294569       3.76879082       0.00056393       0.00496143       0.00635459
C        7.42643613       5.66803434       3.73817073       0.00043016       0.00362508      -0.00721398
C        6.20219240       7.80962720       3.62847921      -0.00274742      -0.00242102       0.00247574
C        4.97009675       9.95608071       3.63241824      -0.00165189      -0.00896127      -0.00576322
Ta       2.77473108       4.88466943       4.59988072       0.00740078       0.00277474      -0.00924342
O        2.57696711       5.19891804       6.33767246       0.00466171      -0.00278430      -0.00285717
O        2.28262437       5.53239085       7.69635703      -0.00826577      -0.00133423       0.00389178
H        2.99247449       5.06266254       8.18535536      -0.00254633       0.00353641      -0.00728626
