52
Lattice="12.336457 0.0 0.0 -6.168228499999997 10.683685154694365 0.0 0.0 0.0 15.0" Properties=species:S:1:pos:R:3:forces:R:3 energy=-450.42699401030757 free_energy=-450.42699401030757 stress="-0.005348307607961397 -0.002406308309105055 7.177603039086879e-06 -0.002406308309105055 -0.005829916241932153 -6.263625736361099e-07 7.177603039086879e-06 -6.263625736361099e-07 -1.3454527900437599e-05" pbc="T T T"
C       -0.02403961       0.03890290       3.89575973       0.00140918      -0.00336682      -0.00180736
C       -1.28542424       2.15429154       3.97616231      -0.00171164       0.00660493      -0.00502388
C       -2.51617508       4.30362138       3.97325147      -0.00615039       0.00490708       0.00334267
C       -3.72355830       6.44728892       3.90204428       0.00726696      -0.00144135      -0.00069977
C       -4.94585820       8.59106088       3.88964395      -0.00329894       0.00130933      -0.00576018
C        2.43460278       0.03175644       3.72103638       0.00834996       0.00130345      -0.00279546
C        1.16896010       2.13007771       3.72714033       0.00216207      -0.00212298      -0.00189837
C       -0.10964130       4.27359142       3.85885134      -0.00034036      -0.00341231      -0.00314229
C       -1.27189434       6.42831990       3.73540958       0.00494538      -0.00942304       0.00443682
C       -2.47831240       8.57057678       3.75609443      -0.00716627      -0.00325172       0.01040862
C        4.90312911       0.03131145       3.69388740      -0.00120237       0.00170629      -0.00483188
C        3.66900291       2.12096371       3.33786224       0.00037572       0.00746861       0.00651045
S        1.33177796       6.29688190       2.89790546       0.00043931      -0.00652732       0.00128368
C       -0.01731821       8.57193131       3.63687243      -0.00136534      -0.00341689       0.00033359
C        7.36303778       0.04116554       3.82045471      -0.00139620       0.00145549      -0.00101985
C        6.12722359       2.18166167       3.69719149      -0.00217487       0.00226895       0.01058449
C        4.93547167       4.35369335       3.54699051      -0.00312022      -0.00680530       0.00290805
C        3.74075197       6.51819459       3.97989661      -0.01620172      -0.00238069      -0.00277027
C        2.44445217       8.60509206       3.77895519       0.01574581      -0.00394702       0.00777751
C        9.83495862       0.03810116       3.95455892      -0.00961680       0.00065260      -0.00779858
C        8.58652301       2.17158297       3.94736168       0.00407664       0.00470055       0.00203075
C        7.36439043       4.30916540       3.89934127      -0.00192620      -0.00078331      -0.00473150
C        6.18055216       6.47393685       3.89059296      -0.00279229       0.00123927       0.00018548
C        4.91819931       8.59996713       3.93712573      -0.00263657       0.00583218       0.00150307
C       -0.03999743       1.46348919       3.87649124      -0.00471926       0.00112148      -0.00222297
C       -1.29732431       3.56645973       3.98616357      -0.00773070       0.00588561       0.00519422
C       -2.50021170       5.72289966       3.89339923       0.00543240      -0.00278717      -0.00380231
C       -3.71696507       7.87013805       3.85163055      -0.00669764       0.00140896       0.00141404
C       -4.95763588      10.01564830       3.84316271       0.00513932       0.00219197       0.00156237
C        2.40907459       1.46953305       3.58125941       0.00292797       0.00208404      -0.00055165
O        1.12198562       3.56508362       3.71562427       0.01373479       0.00888388       0.00745231
C       -0.10008797       5.63764430       3.61307455       0.00650673      -0.00633567       0.00187293
C       -1.24856604       7.85218163       3.67745487      -0.00769948      -0.01078024       0.01230792
C       -2.49608649      10.00237561       3.71385234       0.00248810      -0.00394492      -0.00461292
C        4.89821752       1.46047592       3.58925627       0.00010493      -0.00110749       0.00293405
S        3.81129399       3.59996522       2.30291086      -0.00470364      -0.00694245       0.00661452
C        1.23617464       7.92199301       3.51279192       0.01029047       0.00642222      -0.00695517
C       -0.02728906      10.00486070       3.73285986      -0.00093916       0.00119309      -0.00570409
C        7.35423094       1.46695206       3.84074984       0.00170765       0.00781247       0.00730540
C        6.15127094       3.58910977       3.73956880      -0.00497562       0.00122940      -0.00251410
C        4.93120345       5.77576753       3.82647348      -0.00843385      -0.00155194      -0.00794466
C        3.68247227       7.90680624       3.89336552       0.00954451      -0.00281730      -0.00030747
C        2.43160802      10.02334350       3.87915389      -0.00359525      -0.00337212      -0.00500738
C        9.82818338       1.45763984       3.98243492       0.00121897      -0.00205440      -0.00692629
C        8.58877692       3.59242452       3.96384411      -0.00330159       0.00225997      -0.00352694
C        7.38299539       5.73922280       3.90990978       0.00894706       0.00082492      -0.00482845
C        6.15879244       7.88808147       3.93060460      -0.00427899       0.00456059      -0.01091587
C        4.90921941      10.01775745       3.94460883      -0.00454238       0.00358386      -0.00324794
Ta       2.90838194       4.65882170       4.27959330       0.00906804       0.00383893       0.00161361
O        3.20978126       4.25179104       6.00203968       0.00713108       0.00253320      -0.00402736
O        3.38112987       3.81140565       7.33389931       0.01093932      -0.00002293       0.01112675
H        3.93245660       4.52028179       7.72967303      -0.01723460      -0.00668794       0.00467168
