52
Lattice="12.336457 0.0 0.0 -6.168228499999997 10.683685154694365 0.0 0.0 0.0 15.0" Properties=species:S:1:pos:R:3:forces:R:3 energy=-452.8552753845563 free_energy=-452.8552753845563 stress="-0.004967699291037327 -0.0019106059901166017 3.0001379210353442e-05 -0.0019106059901166017 -0.002968764091547435 -6.418641618719116e-06 3.0001379210353442e-05 -6.418641618719116e-06 -4.706961836331307e-06" pbc="T T T"
C        0.03086970       0.06639942       3.74614514      -0.00779670      -0.00265682      -0.00176385
C       -1.22464128       2.19257959       3.66156541       0.01334920       0.00220568       0.00365735
C       -2.47490616       4.32684320       3.92905046      -0.00152972       0.00252998       0.00067502
C       -3.68274113       6.47148637       4.04505317       0.00206473       0.00108524      -0.00035146
C       -4.89662465       8.62036212       3.94552183      -0.00255686       0.00737182       0.00371724
C        2.50068595       0.03955152       3.67407462       0.00129201      -0.00270910       0.00487257
C        1.24771689       2.10970153       3.23221897      -0.00347645      -0.01200225      -0.00358936
C       -0.08938671       4.37772029       3.54139053       0.00062907       0.00154490       0.00155370
C       -1.24615871       6.47421334       4.00414439       0.00311450       0.00350730      -0.00134160
C       -2.44165817       8.60605367       3.98009981       0.00132840      -0.00645060      -0.01060744
C        4.96647231       0.03891477       3.80333626       0.00665375       0.00409546       0.00329750
C        3.76019441       2.09334482       3.21428706      -0.00851161       0.00901844       0.00124472
C        1.23187291       6.42835510       3.95520832      -0.00698743      -0.00195412      -0.00670931
C        0.03459483       8.58426954       4.00029366       0.00059523      -0.00057275      -0.00921818
C        7.42629220       0.04601555       3.91567000       0.00180823      -0.00838144       0.00378918
C        6.17943176       2.19841398       3.77926826      -0.00471291       0.00101275      -0.00479499
C        4.94152734       4.39117275       3.74332231       0.01025375       0.00020542      -0.00612876
N        3.83092925       6.56206784       3.88188052      -0.00269336       0.00155246      -0.00050888
C        2.50644137       8.58576626       3.97113638       0.00319104      -0.00274394      -0.00756262
C        9.89190202       0.05436186       3.87134188      -0.00344321       0.00458014       0.00149582
C        8.64679497       2.19170023       3.89939161      -0.00580897      -0.00164916      -0.00330077
C        7.40087825       4.32894162       3.99394006      -0.00492177       0.00137413       0.00056268
C        6.22305608       6.50700530       3.98087864       0.00494850      -0.00295754      -0.00108478
C        4.98724682       8.62930209       3.93459179       0.00902880       0.00450879       0.00054767
C        0.01644713       1.48255099       3.54700765       0.00142927      -0.00646474      -0.00140802
C       -1.25884318       3.60961113       3.71452925       0.00424747       0.00189094       0.00720516
C       -2.46167256       5.75279033       4.01116947       0.00444894       0.00350439      -0.00480282
C       -3.67150627       7.89750571       4.00662943      -0.00529678       0.00350142      -0.00031319
C       -4.90184451      10.03752229       3.79774792      -0.00746350       0.00765537       0.00529471
C        2.50037970       1.44185037       3.33522286      -0.00212070      -0.00019099       0.00777093
S        1.17720085       3.71982610       2.52897479       0.00799711      -0.00330208       0.00129454
C       -0.00731194       5.76023833       3.86175852      -0.00388699      -0.00111598       0.00506623
C       -1.21157585       7.89159694       4.02627962       0.00304145      -0.00145401      -0.01269168
C       -2.43809086      10.02058832       3.82862570       0.00740247      -0.00479932      -0.00112226
C        4.96532200       1.46048451       3.61247165      -0.00426487       0.00547907       0.00261823
S        3.95904278       3.63714621       2.33451441       0.00028412       0.00272589       0.00159640
C        1.27963039       7.83961096       3.99602192      -0.00197150      -0.00276313      -0.00035236
C        0.03273281      10.00675999       3.92768914       0.00517439      -0.00285572      -0.00209760
C        7.41143827       1.47861223       3.88365764      -0.00752559      -0.00599352       0.00306273
C        6.17580051       3.61223135       3.87816854      -0.00084783       0.00233773      -0.00357047
C        4.99862033       5.83297522       3.87005490       0.00043379      -0.00257179       0.00858920
C        3.76548300       7.91653980       3.94273570       0.00779867       0.00543597      -0.00513644
C        2.49465595      10.01533099       3.93509079       0.00080729      -0.00460065       0.00360282
C        9.89014685       1.48153897       3.82211182       0.00596216       0.00405259      -0.00339728
C        8.63509989       3.61339678       3.95981877      -0.00739318       0.00089358       0.00106453
C        7.42583959       5.75995892       4.02497911       0.00493430      -0.00168475       0.00355905
C        6.21159850       7.92163180       3.96760155       0.00711771      -0.00203414       0.00498395
C        4.96590764      10.04405689       3.86458093      -0.00396870       0.00249202       0.00184350
Ta       2.77581251       4.87642832       4.10517998      -0.00144776      -0.00456785      -0.00244182
O        2.65689409       4.08794318       5.70101498      -0.00550973      -0.00204745       0.00840254
O        2.58162061       3.34700452       6.92273357      -0.01635150      -0.00229227       0.00227977
H        2.66911680       4.05139959       7.60186494       0.00115130       0.00625464       0.00064818
