52
Lattice="12.336457 0.0 0.0 -6.168228499999997 10.683685154694365 0.0 0.0 0.0 15.0" Properties=species:S:1:pos:R:3:forces:R:3 energy=-453.06439177364274 free_energy=-453.06439177364274 stress="-0.007395966576516261 -0.002945922364892747 1.5024935544522985e-05 -0.002945922364892747 -0.007486976001258199 -2.141302796453159e-05 1.5024935544522985e-05 -2.141302796453159e-05 -1.909523713639958e-05" pbc="T T T"
C        0.01323232      -0.04458180       3.94420837      -0.00028051      -0.00023301      -0.00109446
C       -1.24123191       2.07830668       3.92131830       0.00333929      -0.00124011      -0.00917419
C       -2.45593320       4.23557721       3.92253024       0.00428800       0.00357564       0.00681694
C       -3.65757038       6.38464825       3.96434507       0.00548635      -0.00871980      -0.00496317
C       -4.89559473       8.52398937       3.98194370      -0.00113738      -0.00468689      -0.00348912
C        2.48544940      -0.03318542       3.92066137       0.00018889       0.00300266      -0.01214548
C        1.20935947       2.07508876       3.83379069      -0.00215495      -0.00101624      -0.00248760
C       -0.02586305       4.16161074       3.78633183       0.00081549      -0.00264803      -0.00638137
C       -1.20839495       6.38020184       3.81816806       0.00370322       0.00013987       0.00926315
C       -2.42871706       8.51188910       3.91229261       0.00319960      -0.00143525      -0.00273026
C        4.94545444      -0.02291984       3.81262737       0.00513620       0.00174356       0.00077447
C        3.68712842       2.05055651       3.52399289      -0.00701969       0.00596810       0.00128022
S        1.09938564       6.41722973       2.37438118       0.00582674      -0.00384924       0.00993421
C        0.01409487       8.52889698       3.66668979       0.00230466      -0.00810527      -0.00288056
C        7.41193483      -0.02208423       3.78239532       0.00188792      -0.00213843      -0.00349970
C        6.17436635       2.11869046       3.69251975      -0.00385225       0.00686592       0.00772509
C        5.05810837       4.31074146       3.46861447      -0.00649589       0.00341829      -0.00728369
C        3.78592082       6.41077665       3.68236615       0.00351421       0.00505036       0.00696283
C        2.48875498       8.53410046       3.61191685      -0.00422738      -0.00181389      -0.00181458
C        9.87743266      -0.03770903       3.87326894       0.00227152      -0.00532539       0.00157904
C        8.63785886       2.10559185       3.87966003       0.00847101       0.00807063      -0.00525332
C        7.43762064       4.25280460       3.85290856      -0.00719238       0.00353921       0.00146927
C        6.24114178       6.40773694       3.85937813       0.00063877      -0.00314524       0.00099047
C        4.96990022       8.52413568       3.84814945      -0.00530120      -0.00352727      -0.00490589
C       -0.00827549       1.37283850       3.91134281       0.00008174      -0.00041554      -0.00399900
C       -1.25317104       3.48848615       3.88253986       0.00127458      -0.00104270       0.00620974
C       -2.43176632       5.66432548       3.93139486       0.00745552      -0.00176679       0.00177343
C       -3.66189933       7.80647268       3.97436895       0.00345330      -0.00673749      -0.00451884
C       -4.91203186       9.94070590       3.97233740      -0.00026561       0.00022356       0.00089626
C        2.46643441       1.39147482       3.78340414      -0.00672014       0.00271601      -0.00492861
N        1.14850311       3.43372160       3.85894654       0.00715356      -0.00024139       0.00429124
C        0.01208739       5.60606258       3.63570309      -0.00720064      -0.00211034      -0.00061409
C       -1.20016489       7.79497926       3.78056106       0.00366994      -0.00331486       0.00585229
C       -2.44475927       9.94262618       3.89413348       0.00386022       0.00207195      -0.00528986
C        4.93901379       1.40578236       3.68169309      -0.00400538       0.00596699       0.00904200
S        3.64916988       3.61887802       2.76937259      -0.00405234      -0.00661572       0.00491165
C        1.24854962       7.88974739       3.37511838       0.00028276      -0.00380895      -0.00004407
C        0.01440235       9.95052409       3.77646877       0.00353680      -0.00724130      -0.00710214
C        7.39989620       1.40562104       3.80167335       0.00409823       0.00569887       0.00280177
C        6.21307328       3.53869201       3.68203718      -0.00920824       0.00621941      -0.00485114
C        5.00677646       5.70685672       3.68417871       0.00126193       0.00189686      -0.00307587
C        3.73241997       7.80654203       3.70318263      -0.00649737       0.00174695      -0.00948911
C        2.47765692       9.95217288       3.77366049       0.00015988      -0.00420507       0.00129769
C        9.86623588       1.38077130       3.91347407       0.00678042      -0.00363250      -0.00735302
C        8.65076644       3.52849148       3.90642171      -0.00056979       0.01083905       0.00772606
C        7.44919855       5.67712174       3.90778306       0.00074269      -0.00176543       0.00229736
C        6.21094346       7.82152818       3.91924381      -0.00405268      -0.00433493      -0.00486763
C        4.94803440       9.93386669       3.89890996       0.00122593      -0.00508754       0.00493131
Ta       2.10102522       5.17724349       4.17263070      -0.00363183       0.00733174       0.00729875
O        1.98642534       5.54360524       5.92650269      -0.00474595       0.01035873       0.00635014
O        1.85636546       5.86729736       7.30274841      -0.00611927       0.00881397       0.00790644
H        2.44486860       5.21202724       7.73569995      -0.00137851      -0.00505370       0.00385494
