51
Lattice="12.336457 0.0 0.0 -6.168228499999997 10.683685154694365 0.0 0.0 0.0 15.0" Properties=species:S:1:pos:R:3:initial_magmoms:R:1:forces:R:3 energy=-458.8544563646261 free_energy=-458.8544563646261 stress="-0.004722433245029583 -0.00031681713748459115 -1.0450130508989769e-06 -0.00031681713748459115 -0.001788916840735795 2.279510208731306e-06 -1.0450130508989769e-06 2.279510208731306e-06 2.983307669692905e-06" pbc="T T T"
C        0.00428460      -0.02121173       3.63514057       0.00000000       0.00039467      -0.00348220      -0.00444568
C       -1.23889537       2.11943955       3.77934738       0.00000000       0.00263557       0.00091788      -0.00237359
C       -2.48975095       4.27173172       3.59512951       0.00000000      -0.00210404       0.00186755       0.00013297
C       -3.69341595       6.41283574       3.43115780       0.00000000       0.00275900      -0.00242449      -0.00078986
C       -4.91774664       8.55218981       3.43457157       0.00000000      -0.00083601       0.00017154       0.00182593
C        2.48841992      -0.01127278       3.68452507       0.00000000       0.00006792       0.00086703       0.00152771
C        1.23781881       1.98523063       4.14662458       0.00000000      -0.00207124       0.00194716      -0.00105876
C       -0.13838380       4.33413727       4.07145547       0.00000000      -0.00248823      -0.00048657       0.00124112
C       -1.26286509       6.43380698       3.70407553       0.00000000       0.00133605       0.00227049       0.00347164
C       -2.45603814       8.55462159       3.54558860       0.00000000      -0.00152821       0.00037837      -0.00072755
C        4.94753055       0.00563239       3.69802452       0.00000000      -0.00092231       0.00149947       0.00069591
C        3.71854073       2.16434963       3.97047820       0.00000000      -0.00066920      -0.00090901       0.00177790
C        1.16818738       6.42929504       4.29797224       0.00000000      -0.00195296       0.00141069       0.00106528
C        0.01043912       8.53986889       3.76869561       0.00000000       0.00056497      -0.00051355      -0.00066124
C        7.41502003      -0.01712902       3.67607684       0.00000000      -0.00113372       0.00124331       0.00131977
C        6.17701518       2.13643373       3.66872132       0.00000000      -0.00072317       0.00259915      -0.00083865
C        4.94571715       4.29381485       3.78744946       0.00000000      -0.00240185      -0.00491738       0.00103566
N        3.81091690       6.44464366       3.74381227       0.00000000       0.00374103       0.00292274      -0.00328906
C        2.48882534       8.50906308       3.77319911       0.00000000       0.00023645       0.00013279       0.00300548
C        9.87246190      -0.02256531       3.61501991       0.00000000       0.00076188      -0.00100189       0.00258803
C        8.63731768       2.12426382       3.58877287       0.00000000       0.00358654       0.00068334       0.00115070
C        7.39796188       4.26839662       3.49123927       0.00000000      -0.00021641       0.00005038       0.00072827
C        6.19267391       6.42133433       3.40897566       0.00000000      -0.00364253      -0.00179212      -0.00288898
C        4.95232533       8.53625034       3.48105350       0.00000000      -0.00215146      -0.00008100      -0.00073390
C       -0.01218834       1.38261738       3.85666642       0.00000000       0.00089008      -0.00322353      -0.00386959
C       -1.27546014       3.55463751       3.80007836       0.00000000      -0.00286913       0.00294744      -0.00354199
C       -2.47275979       5.70125510       3.55418501       0.00000000       0.00269964       0.00052477      -0.00108042
C       -3.68461863       7.83977603       3.44427352       0.00000000      -0.00035797      -0.00158809      -0.00030916
C       -4.92018236       9.96900412       3.57292392       0.00000000       0.00061182      -0.00034116      -0.00091711
C        2.49979164       1.38279844       3.94144965       0.00000000      -0.00167868      -0.00035115       0.00071523
P        1.28448543       3.59066471       4.66470846       0.00000000       0.00416204       0.00256252      -0.00047152
C       -0.05413819       5.74886305       4.02386847       0.00000000       0.00014805       0.00132272      -0.00226212
C       -1.23019635       7.84646213       3.65823334       0.00000000      -0.00113287       0.00127353       0.00277281
C       -2.44842492       9.97159403       3.62667052       0.00000000      -0.00063748       0.00166566      -0.00222949
C        4.94286085       1.43504790       3.77249100       0.00000000      -0.00152241       0.00166010      -0.00031253
C        3.76668771       3.60180114       4.15149010       0.00000000       0.00401948      -0.00570547      -0.00265271
C        1.24672977       7.79607064       3.96113065       0.00000000       0.00071581      -0.00188991      -0.00155502
C        0.01234335       9.96041650       3.70397595       0.00000000      -0.00035656      -0.00045807       0.00091670
C        7.40997456       1.41025655       3.62443426       0.00000000       0.00025394       0.00250502       0.00050740
C        6.17682174       3.55918716       3.61244612       0.00000000      -0.00096877       0.00144258       0.00081398
C        4.97948307       5.73136340       3.61709590       0.00000000      -0.00009712      -0.00201458       0.00225184
C        3.73734443       7.81269027       3.63751879       0.00000000      -0.00013658       0.00013539       0.00255213
C        2.47824615       9.93842605       3.67041463       0.00000000      -0.00058066       0.00017529       0.00197711
C        9.87396539       1.40882304       3.64329660       0.00000000       0.00435273      -0.00028768       0.00129944
C        8.62867423       3.55273162       3.53070033       0.00000000       0.00113405       0.00064056      -0.00212728
C        7.41390175       5.69575029       3.41559062       0.00000000      -0.00007592      -0.00070866      -0.00100260
C        6.18661871       7.84033607       3.40236263       0.00000000      -0.00194456       0.00043249      -0.00075043
C        4.93901620       9.95459495       3.55607862       0.00000000      -0.00065456      -0.00180811      -0.00150295
Ta       2.88670552       5.31415811       5.26042832       0.00000000       0.00269580      -0.00022616       0.01937643
O        1.60998562       3.98518573       6.16646375       1.00000000       0.00026011       0.00033544      -0.00230186
O        3.76829370       6.00289281       6.62321450       1.00000000      -0.00217305      -0.00237461      -0.01005539
