52
Lattice="12.336457 0.0 0.0 -6.168228499999997 10.683685154694365 0.0 0.0 0.0 15.0" Properties=species:S:1:pos:R:3:forces:R:3 energy=-458.2166905663872 free_energy=-458.2166905663872 stress="-0.004010888089906567 -0.001224017032453912 -2.7806015231978386e-05 -0.001224017032453912 -0.0005612643133864023 6.43094083562423e-06 -2.7806015231978386e-05 6.43094083562423e-06 9.655399907862608e-06" pbc="T T T"
C       -0.00426650      -0.00842513       3.71820111      -0.00236728      -0.00430598      -0.00188735
C       -1.25239338       2.12134292       3.75771339      -0.01156233      -0.00357586      -0.00884115
C       -2.47543880       4.26658559       3.75048053      -0.00538187      -0.00894212       0.00111796
C       -3.70104914       6.40604077       3.70614650       0.00534462       0.00718240      -0.00383210
C       -4.93648455       8.54561406       3.71540327       0.00691108       0.00289466      -0.00658518
C        2.46017278       0.01242240       3.67139282       0.00304555      -0.00059130      -0.00430142
C        1.20368700       2.09096017       3.70016517      -0.00449547       0.00488590       0.00793965
C       -0.04696928       4.25810533       3.86103341      -0.00477741       0.00597664       0.00253045
C       -1.25456058       6.40520370       3.66512718       0.00018567      -0.00367650       0.00971203
C       -2.47130102       8.55042510       3.63760589      -0.00546747      -0.00192868      -0.00159474
C        4.92886085       0.00593685       3.64716166       0.00270778       0.00027746       0.00703822
C        3.69561046       2.16262324       3.77792150       0.00303518       0.00923135       0.00006118
C        1.19325899       6.42386932       3.75717683       0.01318366      -0.01162759       0.00436677
C       -0.00423399       8.54546203       3.62448827       0.00034284      -0.00219329       0.00417001
C        7.40349418      -0.01540421       3.67636763      -0.00031175       0.01404793      -0.00349465
C        6.16890533       2.13546533       3.72469331       0.01171202      -0.00593854      -0.00667237
C        4.94436022       4.29185697       3.91921253      -0.00000596      -0.00199388       0.00370766
O        3.77961347       6.43026387       4.06947415      -0.00911404      -0.00797378       0.00930741
C        2.48714907       8.51217412       3.74558410      -0.00374144       0.00810521       0.00828947
C        9.86347383      -0.02132168       3.73099054      -0.00634678      -0.00420036      -0.00287668
C        8.62896866       2.12726732       3.72633148       0.00414406      -0.00351165      -0.00348642
C        7.40058391       4.27097887       3.75962968      -0.00496878       0.00319656      -0.00080523
C        6.18329541       6.41963756       3.82971350      -0.00096746       0.00535733      -0.00375036
C        4.93848163       8.52980516       3.79441632       0.00631013      -0.00536786      -0.00516566
C       -0.01612578       1.41717691       3.71750842      -0.00983859      -0.00028405      -0.00392763
C       -1.25229941       3.54009525       3.80214427      -0.00233581      -0.00290153       0.00981876
C       -2.46744756       5.68989686       3.70042223       0.00045214      -0.00523003       0.00507334
C       -3.69934654       7.83320005       3.68060157      -0.00045306       0.00343658       0.00089169
C       -4.93439470       9.97955987       3.69514646       0.00309220      -0.00265852      -0.00043766
C        2.44790628       1.44847809       3.70355300      -0.00074608       0.00566511       0.00340784
O        1.15744605       3.52033448       3.63805158       0.00494371       0.00627048       0.00742646
C       -0.00818663       5.67315026       3.76236470      -0.00068614       0.00268740       0.01177534
C       -1.24051332       7.82906379       3.62602771      -0.00570381      -0.00205850      -0.01001391
C       -2.47425064       9.97872972       3.64469786       0.00105474      -0.00326342      -0.00590491
C        4.92866216       1.42815000       3.70331308       0.00731293       0.00434569      -0.00116771
C        3.73076670       3.55807357       3.96304843      -0.00518618       0.00602795       0.00329951
C        1.23049934       7.82153600       3.68219797       0.00373200      -0.01030788      -0.00276764
C       -0.00441352       9.96699186       3.63925048       0.00435188       0.00689240      -0.00837165
C        7.39974432       1.41174059       3.70056492       0.01133965       0.00349371       0.00555177
C        6.18417831       3.55873404       3.78650973      -0.00206075      -0.00609767      -0.00761845
C        4.99512826       5.70118467       3.95798174      -0.00276969      -0.00092278      -0.00599065
C        3.72245408       7.84991330       3.85563832      -0.00059491       0.00401097       0.01382732
C        2.47133901       9.94724208       3.71007306      -0.00904635       0.01045858      -0.00516249
C        9.86454493       1.41351835       3.73555030      -0.00617005      -0.00828798      -0.00930098
C        8.63380433       3.55407763       3.73787626      -0.00655229      -0.00598015       0.00640175
C        7.40917346       5.69347740       3.76502049       0.00282491       0.01055555       0.00187145
C        6.18048948       7.83771376       3.78546476       0.01046151       0.00398227      -0.00831260
C        4.92799062       9.95729907       3.74417650      -0.00342574      -0.00460570       0.00564207
Ta       2.31621353       4.95702102       4.64106057      -0.00559270      -0.01168886       0.00020961
O        2.15810703       4.91185905       6.41979125      -0.00349017       0.00400293      -0.01471661
O        1.94773545       4.87707714       7.83773093       0.00903369      -0.00407928       0.00268651
H        2.86442726       4.88887167       8.18414762       0.00863839       0.00120866       0.00086197
