52
Lattice="12.336457 0.0 0.0 -6.168228499999997 10.683685154694365 0.0 0.0 0.0 15.0" Properties=species:S:1:pos:R:3:forces:R:3 energy=-458.5588993539232 free_energy=-458.5588993539232 stress="-0.002811153369018657 -0.007080466540420942 -1.2009510657685157e-05 -0.007080466540420942 0.0014479541976101992 3.02115213600375e-05 -1.2009510657685157e-05 3.02115213600375e-05 2.640534707611434e-05" pbc="T T T"
C        0.07624577       0.04922867       3.74155420      -0.00305826       0.00025775      -0.00516399
C       -1.20065555       2.16571268       3.70692498       0.00145365       0.00464281       0.00097235
C       -2.40455713       4.31697489       3.78168347      -0.00950251      -0.00046593      -0.00655314
C       -3.58143280       6.47265848       3.85762812       0.01329914      -0.00304659       0.00955861
C       -4.81480049       8.62254645       3.83236987       0.00105936       0.00441918      -0.00229730
C        2.55083376       0.06103675       3.66269562       0.00107475       0.00482769       0.00050939
C        1.24311889       2.14213813       3.63643630       0.00003510       0.00413382       0.00749433
C        0.00918111       4.28198528       3.64336532      -0.00105893       0.00028705       0.00656746
C       -1.13346971       6.44070217       3.69761851       0.00945115       0.00542057      -0.00165665
C       -2.35789529       8.60287465       3.70648039      -0.00147167      -0.00246451      -0.00902745
C        5.01701980       0.06800731       3.64490823      -0.00339525       0.00107204      -0.00446885
C        3.73019095       2.18279647       3.36312515      -0.00288055      -0.00524664       0.00189718
C        1.35273110       6.36571703       3.75778047      -0.00378085      -0.00385039      -0.00926236
C        0.11332148       8.56209474       3.71032878       0.00938449       0.00232748       0.01290059
C        7.46897186       0.04134897       3.78251727       0.00384625       0.00170466      -0.00112929
C        6.20553328       2.21695287       3.86392660      -0.00061979       0.00480729      -0.00878831
C        5.09271466       4.44296591       4.35475822      -0.01178129      -0.00083551      -0.00261953
N        3.91741285       6.55273820       4.10090218      -0.00885199      -0.00136027      -0.00486158
C        2.56979639       8.55702938       3.84352605       0.00285108      -0.00338778      -0.00034466
C        9.92946122       0.03322697       3.80689213      -0.00167188       0.00058540      -0.00036723
C        8.67852806       2.18531187       3.84408143      -0.00057084      -0.00602300      -0.00347224
C        7.48226017       4.34164505       4.01742311      -0.00585276      -0.00049286      -0.00568257
C        6.33754601       6.53209322       4.08519344       0.00347521       0.00334933       0.00119297
C        5.05471480       8.61793192       3.91500664      -0.00743913      -0.00117892       0.00432571
C        0.03886493       1.46518134       3.67348120       0.00265589       0.00281721       0.01027839
C       -1.19384211       3.58084705       3.68653383      -0.00486151       0.00493624      -0.00036624
C       -2.36268569       5.74201897       3.77241558       0.01231930      -0.00073304       0.00809814
C       -3.58225631       7.89860257       3.79848900       0.00013084      -0.00451768      -0.00365765
C       -4.84277752      10.04038042       3.74222800       0.00225483       0.00619544      -0.00393232
C        2.50129066       1.49184112       3.59731938      -0.00382354       0.00109077      -0.00120586
O        1.17764455       3.53852191       3.66389370       0.00105638       0.00534303       0.00377930
C        0.11574650       5.69638466       3.68144248      -0.00061902      -0.00239452       0.00160087
C       -1.12419850       7.86770913       3.69419880       0.00780835       0.00665873       0.00443014
C       -2.37517829      10.03490029       3.65196560      -0.00356352      -0.00061195       0.00145243
C        4.98613193       1.51061934       3.61929017      -0.00250897       0.00139936      -0.00545357
O        3.60648965       3.38844170       2.78140326       0.00475206      -0.00433914       0.00704704
C        1.35803721       7.78467094       3.76753267       0.00551129      -0.00626555       0.00914631
C        0.08552964      10.00368821       3.71450659       0.00213327       0.00349930      -0.00546359
C        7.43844101       1.48081845       3.83826512       0.00007376      -0.00065553       0.00498533
C        6.23134701       3.64590053       4.10459195      -0.00659392       0.00271168      -0.00152018
C        5.11761394       5.84991187       4.20300077      -0.00157376       0.00336500       0.00190950
C        3.83779914       7.89971380       3.95073857      -0.00530656      -0.00316146       0.01102943
C        2.53786369       9.99168207       3.81559090       0.00268866      -0.00219960      -0.00540114
C        9.91519780       1.46294147       3.78128149       0.00253896       0.00199546       0.00495686
C        8.69522041       3.61463166       3.87932620      -0.00943429      -0.00636327      -0.00409471
C        7.52758194       5.77167858       4.00597554       0.00704916       0.00075855       0.00055991
C        6.29849468       7.92919799       3.95520885      -0.00225744       0.00419924      -0.01270890
C        5.01273655      10.02523645       3.81582601      -0.00611424      -0.00085897       0.00729472
Ta       3.05283390       4.77062510       4.12780012      -0.00007669       0.00261343       0.00480867
O        2.43121993       4.43593550       5.83977008       0.00836459      -0.00865683      -0.01125924
O        1.35912005       3.64328963       6.45271448      -0.01221072      -0.01338759      -0.00510363
H        1.42935633       3.95046316       7.38276152       0.01561236      -0.00292097      -0.00093348
