51
Lattice="12.336457 0.0 0.0 -6.168228499999997 10.683685154694365 0.0 0.0 0.0 15.0" Properties=species:S:1:pos:R:3:initial_magmoms:R:1:forces:R:3 energy=-457.0586273059002 free_energy=-457.0586273059002 stress="-0.0018997420613152162 0.0002621651467325163 7.975281692135491e-06 0.0002621651467325163 0.006033803529626138 3.0329650673769385e-05 7.975281692135491e-06 3.0329650673769385e-05 9.272766275114017e-07" pbc="T T T"
C       -0.02037914       0.01648088       3.79669581       0.00000000      -0.00084696       0.00465505       0.00057090
C       -1.26919627       2.12738820       3.80056045       0.00000000      -0.00305892      -0.00239803      -0.00502909
C       -2.50747262       4.26429127       3.64428337       0.00000000      -0.00305040       0.00050404      -0.00570178
C       -3.74076133       6.41439804       3.55474203       0.00000000      -0.00266419       0.00374698       0.00215522
C       -4.96897969       8.55993062       3.66272866       0.00000000       0.00604576       0.00233372       0.00031251
C        2.44666154       0.05279233       3.69676438       0.00000000      -0.00257699      -0.00292841       0.00524376
C        1.21592023       2.19623788       3.97769231       0.00000000      -0.00418646       0.00238801       0.00385335
C       -0.06520605       4.26173983       3.99353873       0.00000000       0.00343970       0.00098585      -0.01152897
C       -1.30487192       6.42030511       3.66740861       0.00000000       0.00648895       0.00058637       0.00237783
C       -2.50917273       8.56593970       3.59660858       0.00000000       0.00683292       0.00093197      -0.00882130
C        4.90628500       0.00429273       3.58229667       0.00000000       0.00672348      -0.00520763       0.00234019
C        3.70860912       2.15892858       3.58788956       0.00000000      -0.00408472      -0.00118130      -0.01017749
C        1.10965114       6.40913759       3.98162726       0.00000000       0.00281058       0.00469812       0.01193091
C       -0.03393527       8.53201622       3.66200980       0.00000000      -0.00231331       0.00186006       0.00679463
C        7.38657946      -0.03315073       3.63475142       0.00000000       0.00015769      -0.00122935      -0.00207680
C        6.15565428       2.12485867       3.48745595       0.00000000       0.01009310      -0.00408325       0.01195673
C        4.94381802       4.26523855       3.50451147       0.00000000       0.00135182       0.00381188      -0.00038630
O        3.78907254       6.39660781       4.08936944       0.00000000      -0.00632678      -0.01263688       0.00223679
C        2.46787231       8.48680880       3.84233366       0.00000000      -0.00527055      -0.00432392      -0.00206883
C        9.84386930      -0.02854502       3.75586349       0.00000000      -0.00170867       0.00125040       0.00357665
C        8.61387063       2.11664683       3.60483812       0.00000000      -0.00107932       0.00594644      -0.00202878
C        7.37784797       4.26900114       3.49246001       0.00000000      -0.00098562       0.00358569       0.00143082
C        6.14021355       6.40191548       3.59976943       0.00000000      -0.00271414      -0.00174650      -0.00292342
C        4.91516082       8.52551609       3.81843221       0.00000000       0.00754003      -0.00052700      -0.01513877
C       -0.01571801       1.44450385       3.86526390       0.00000000      -0.00255828      -0.00012892       0.00776708
C       -1.29155922       3.54771013       3.79577918       0.00000000      -0.00048969      -0.00089220       0.00831475
C       -2.51623794       5.69798887       3.60650824       0.00000000      -0.00061472       0.00381853      -0.00250404
C       -3.73610732       7.84633054       3.59412377       0.00000000       0.00483277       0.00427681      -0.00810761
C       -4.95297734       9.99985111       3.72969073       0.00000000      -0.00231655       0.00103991       0.00384544
C        2.46368128       1.49006771       3.76949423       0.00000000      -0.00722662      -0.00115196       0.00885380
C        1.12753736       3.57778020       4.26472092       0.00000000      -0.00103276      -0.00239562       0.00072687
C       -0.07804238       5.70601499       3.87623145       0.00000000       0.00654459       0.00241003      -0.00048896
C       -1.28079738       7.84190896       3.61967137       0.00000000       0.00325319       0.00078500       0.00085411
C       -2.50134266       9.99910262       3.61485518       0.00000000       0.00454224      -0.00316235       0.00748490
C        4.91592170       1.43286901       3.53653163       0.00000000       0.00554677      -0.00342819      -0.00930040
O        3.75830539       3.53194103       3.46495951       0.00000000      -0.01395399       0.00510186      -0.00979313
C        1.19846931       7.78125809       3.81038504       0.00000000      -0.00680466      -0.00134431      -0.00583399
C       -0.02617566       9.95339047       3.61277107       0.00000000       0.00199798      -0.00145219       0.00642390
C        7.37784614       1.40167754       3.56177332       0.00000000       0.00772899      -0.00214485       0.00419643
C        6.15498812       3.55176495       3.45183103       0.00000000       0.00447404       0.00057493       0.00400827
C        4.95402948       5.66686235       3.68610540       0.00000000      -0.00840433       0.00257366      -0.00396447
C        3.70867066       7.81903349       3.93575366       0.00000000       0.00141630       0.00209037       0.00714286
C        2.45248182       9.92394888       3.73785009       0.00000000      -0.00209279      -0.00233124      -0.01196626
C        9.84065801       1.40381786       3.71331254       0.00000000      -0.00483077       0.00311692      -0.00081121
C        8.60841723       3.54711746       3.56338183       0.00000000      -0.00485665       0.00693110      -0.00201584
C        7.37044883       5.68954178       3.52179844       0.00000000      -0.00276010       0.00358860       0.00966873
C        6.14892871       7.83211760       3.69779260       0.00000000       0.00901861      -0.00236198      -0.00558557
C        4.91128806       9.96234695       3.79779337       0.00000000       0.00239868       0.00386126      -0.00168749
Ta       2.45788527       5.06308467       5.24992606       0.00000000       0.00113889      -0.00103793       0.01007070
O        3.63993803       3.94337615       5.99269873       1.00000000      -0.00669746      -0.00807097       0.00413409
O        1.67689295       5.87720130       6.60505653       1.00000000       0.00112931      -0.01128860      -0.01033172
