52
Lattice="12.336457 0.0 0.0 -6.168228499999997 10.683685154694365 0.0 0.0 0.0 15.0" Properties=species:S:1:pos:R:3:forces:R:3 energy=-450.4280741662381 free_energy=-450.4280741662381 stress="-0.003059084442659092 0.001105837894825718 -8.402775737921392e-06 0.001105837894825718 -0.00635472521342409 -1.847992896945742e-05 -8.402775737921392e-06 -1.847992896945742e-05 1.3586185085445336e-05" pbc="T T T"
C        0.12163078       0.00874878       3.81252520       0.00772448      -0.00566656       0.00072318
C       -1.12889965       2.13564460       3.65178462       0.00751985      -0.00039464      -0.00008513
C       -2.39738226       4.27221868       3.77714052      -0.01354982      -0.00262660      -0.01015843
C       -3.61726981       6.40524732       3.93985809       0.00221826      -0.00806394      -0.00346568
C       -4.82603606       8.54183468       3.94941114       0.01137919      -0.00241237      -0.00090700
C        2.58862501      -0.01825146       3.81026520       0.00388498       0.00431550      -0.01182415
C        1.36273096       2.06742771       3.37320783       0.00156499      -0.00000796       0.01213704
C       -0.06069423       4.29673057       3.13061518      -0.01213602       0.00081383       0.00810171
C       -1.18385063       6.42428279       3.56477199      -0.00593541      -0.00100587       0.00529670
C       -2.35353516       8.53142801       3.84793565       0.00179133       0.00026215       0.00231706
C        5.05405652      -0.02472716       3.91076622      -0.00550948       0.00775568      -0.00752787
C        3.86510447       2.04939445       3.69262073      -0.01037198       0.00349015       0.01344702
S        1.46903421       6.39248434       2.69355233       0.01063445       0.00019733       0.00408035
C        0.11501132       8.54099913       3.71370621      -0.00015313       0.00204662      -0.00757393
C        7.51490940       0.00527758       3.96082121      -0.00104879      -0.00784407      -0.00309752
C        6.28498329       2.12922424       4.06965797       0.00377791       0.00776993      -0.00422306
C        5.03975746       4.24862526       4.15522513       0.00581060      -0.00494950      -0.00731375
C        3.84012092       6.49748032       4.07550779      -0.00371227      -0.00180554       0.01723004
C        2.58557235       8.58387210       3.82014654      -0.00450674      -0.00056908      -0.00227529
C        9.99190718       0.01787237       3.92789118      -0.00434617       0.00914567      -0.01304399
C        8.74672435       2.14322216       3.97522148      -0.00309315       0.00379933       0.00484334
C        7.49048454       4.27095994       4.10362119       0.00757104       0.00153290       0.00041180
C        6.26918694       6.40593409       4.06755863       0.00925170      -0.00579240      -0.00655896
C        5.05706800       8.56993231       3.96667842      -0.01307114      -0.00178526       0.00215983
C        0.11796360       1.42767925       3.60568123       0.00815717      -0.00098877       0.01123613
C       -1.19072776       3.54433420       3.52475818      -0.01560896      -0.00369004      -0.00780732
C       -2.39903767       5.69659346       3.77741272      -0.00564589      -0.00631190       0.00015932
C       -3.59870692       7.82643254       3.91846586       0.00776417      -0.00565871       0.01559620
C       -4.81921559       9.96787263       3.85935114       0.00965285       0.00161824      -0.00027786
C        2.60981139       1.40953281       3.62268831      -0.00274301       0.00251383       0.00356267
S        1.41826764       3.59189281       2.52018392       0.00385214       0.00267862       0.00007928
C       -0.04802766       5.67880737       3.18329321      -0.00439672      -0.00118678       0.00204325
C       -1.12878354       7.83313270       3.69929379      -0.00086224       0.00027476      -0.00719720
C       -2.35003646       9.95890658       3.86822289      -0.00231257       0.00252592       0.01484190
C        5.06349061       1.40126418       3.92364692      -0.00408446       0.00985165      -0.00051048
O        3.96900834       3.46213783       3.50430532      -0.00102474      -0.00694604      -0.00914564
C        1.37034224       7.91065857       3.54055893      -0.00093407      -0.00342780       0.01017242
C        0.12190986       9.95946266       3.89705935      -0.00488824       0.00085015       0.00170878
C        7.51055869       1.43074524       4.02950919      -0.00029096      -0.00276393       0.00913728
C        6.26805992       3.54403611       4.18121519       0.01050074       0.00642137       0.01076480
C        5.00896966       5.68255638       4.09367453       0.00392427      -0.00846312      -0.01004728
C        3.81859320       7.88333480       3.93039046      -0.01289791      -0.00440027      -0.00329157
C        2.58437982       9.99998374       3.93661840      -0.00032789      -0.00088624      -0.01253789
C        9.99018722       1.43789590       3.87094483       0.00203914       0.00779260       0.00099352
C        8.72348740       3.56311207       3.97593878      -0.00625230       0.00025457      -0.00001386
C        7.48375685       5.69142003       4.05644110       0.01176678      -0.00619335      -0.01438147
C        6.27641186       7.83052469       4.00543478       0.00270838      -0.00145684      -0.00854079
C        5.05655511       9.99020590       3.90812314      -0.00234512       0.00288928       0.00798553
Ta       2.71572036       4.83845721       4.34579534       0.00372217       0.00174763      -0.01011811
O        1.69644309       4.91554523       5.79029852       0.00339527       0.00406584       0.00712509
O        0.75019942       4.94712158       6.85222729       0.01041231       0.01365308      -0.00299810
H        1.27254906       4.58326902       7.60026953      -0.00897500      -0.00296905      -0.00123191
