51
Lattice="12.336457 0.0 0.0 -6.168228499999997 10.683685154694365 0.0 0.0 0.0 15.0" Properties=species:S:1:pos:R:3:initial_magmoms:R:1:forces:R:3 energy=-444.00874398095186 free_energy=-444.00874398095186 stress="-0.004169694418921003 -0.0013749273208996469 8.37047207722832e-06 -0.0013749273208996469 -0.006130080894686561 -7.86789030375354e-06 8.37047207722832e-06 -7.86789030375354e-06 2.2639850884066977e-06" pbc="T T T"
C        0.03301645       0.05781506       3.84818077       0.00000000      -0.00263048      -0.00047921       0.00417011
C       -1.22264106       2.17794039       3.66102859       0.00000000      -0.00124620       0.00550626       0.00267283
C       -2.47461075       4.32247399       3.82774518       0.00000000      -0.00197681       0.00272979       0.00269688
C       -3.68091888       6.46523381       4.02076260       0.00000000       0.00544471      -0.00038295      -0.00755096
C       -4.89286788       8.61113744       4.04316553       0.00000000      -0.00288943      -0.00313108      -0.00311073
C        2.50039665       0.02491037       3.74210323       0.00000000       0.00587801       0.00396979       0.00208614
C        1.24440626       2.05848986       3.20890589       0.00000000      -0.00084372       0.00118103       0.00230685
C       -0.14956632       4.34328972       3.15896354       0.00000000      -0.00311761      -0.00588518      -0.00513653
C       -1.25147392       6.47347725       3.66224341       0.00000000      -0.00117171      -0.00367277      -0.00542712
C       -2.42460102       8.59100266       3.92039622       0.00000000      -0.00390140       0.00206231       0.00433263
C        4.96485848       0.04670645       3.84757543       0.00000000      -0.00178216       0.00459057      -0.00231486
C        3.74248259       2.10154606       3.28463278       0.00000000      -0.00293580       0.00200045      -0.00373033
S        1.34789948       6.47598981       2.71465741       0.00000000       0.00414864      -0.00324463      -0.00502352
C        0.03855752       8.59954619       3.79182404       0.00000000      -0.00170903      -0.00020062      -0.00461508
C        7.42934890       0.06155178       3.98643197       0.00000000      -0.00400234      -0.00171094       0.00244760
C        6.18323287       2.19961524       3.84529412       0.00000000      -0.00049278      -0.00200968       0.00183688
C        4.94416047       4.39346069       3.67996363       0.00000000       0.00700795       0.01032119      -0.00006570
N        3.80879443       6.56152577       4.00885168       0.00000000      -0.00314128      -0.00200895      -0.00011477
C        2.51154383       8.61337286       3.92405633       0.00000000       0.00887738      -0.00446293      -0.00241738
C        9.90272872       0.06726039       4.00076052       0.00000000      -0.00835502      -0.00002940       0.00191190
C        8.65218595       2.19558558       3.96574087       0.00000000       0.00598867       0.00335112      -0.00034014
C        7.40541578       4.33074751       4.01291847       0.00000000       0.00171481       0.00156484       0.00115056
C        6.21286328       6.50049435       4.07428341       0.00000000       0.00296119      -0.00072262      -0.00149448
C        4.98375455       8.62471838       4.07363442       0.00000000      -0.00161522      -0.00310260       0.00201606
C        0.01283991       1.45862620       3.57201419       0.00000000      -0.00175732       0.00358522       0.00571401
C       -1.27367852       3.59220332       3.56095943       0.00000000      -0.00693256       0.00320304      -0.00287432
C       -2.46587877       5.74767417       3.86196140       0.00000000       0.00316339      -0.00114800       0.00053918
C       -3.66445131       7.88864057       4.01284362       0.00000000      -0.00174932      -0.00096135       0.00222732
C       -4.89912603      10.02678084       3.89519833       0.00000000       0.00385073      -0.00027207       0.00094456
C        2.49334298       1.41689737       3.39386031       0.00000000      -0.00058594       0.00335986      -0.00072909
S        1.24272053       3.58611027       2.38884947       0.00000000       0.00794995       0.00021967       0.00112585
C       -0.13205587       5.72961651       3.23454419       0.00000000      -0.00077639      -0.00754160      -0.00324524
C       -1.19930199       7.88658810       3.78564070       0.00000000      -0.00542298      -0.00143120       0.00118028
C       -2.43179685      10.01299611       3.85648945       0.00000000       0.00325960       0.00287206      -0.00187677
C        4.96315546       1.46412528       3.68124971       0.00000000      -0.00343633       0.00255961      -0.00054429
P        4.01313908       3.56934815       2.24963811       0.00000000      -0.00105044      -0.01003579       0.00472070
C        1.29331441       7.95889102       3.61561877       0.00000000       0.00625928       0.00000727       0.00408152
C        0.03328790      10.02673731       3.92218016       0.00000000      -0.00582283       0.00068883       0.00403536
C        7.41805585       1.48793991       3.97190076       0.00000000       0.00483404       0.00000811      -0.00078609
C        6.19048533       3.61681008       3.88010631       0.00000000       0.00055187       0.00116416      -0.00158311
C        4.98268606       5.83830907       3.93547820       0.00000000       0.00147035       0.00627715      -0.00716964
C        3.76301659       7.92282780       4.00858010       0.00000000       0.00472219      -0.00582421       0.00433358
C        2.50002006      10.04130548       4.02105284       0.00000000      -0.00477446      -0.00415838       0.00021474
C        9.89787538       1.48711966       3.90278172       0.00000000       0.00264925       0.00242505       0.00634578
C        8.63854539       3.61503890       3.96668994       0.00000000       0.00046432       0.00342500      -0.00374384
C        7.42407219       5.75777355       4.06014230       0.00000000       0.00621677       0.00100407       0.00113941
C        6.21227191       7.91344141       4.09837863       0.00000000      -0.00299583      -0.00358131      -0.00354430
C        4.97093134      10.04536803       4.00119635       0.00000000      -0.00784084      -0.00130038      -0.00138643
Ta       2.86858033       4.78833485       3.98236012       0.00000000       0.00086666       0.00103986       0.01417608
O        1.77820304       2.92184359       6.18491395       1.00000000      -0.00279407       0.00193741       0.01002850
O        2.33156167       3.82051337       5.39966713       1.00000000      -0.00052943      -0.00375584      -0.01961058
