53
Lattice="12.336457 0.0 0.0 -6.168228499999997 10.683685154694365 0.0 0.0 0.0 15.0" Properties=species:S:1:pos:R:3:forces:R:3 energy=-470.9340014583158 free_energy=-470.9340014583158 stress="-0.004297452436975044 0.003697167719336359 2.079934174678426e-05 0.003697167719336359 -0.004886535424268132 -2.4225426518740786e-05 2.079934174678426e-05 -2.4225426518740786e-05 5.107389636975118e-05" pbc="T T T"
C       -0.01352682      -0.03601087       3.72086461      -0.00368011       0.00247509      -0.00756052
C       -1.22373861       2.11387833       3.73495535       0.00474019       0.00396131       0.00382773
C       -2.45033013       4.24054155       3.74476546       0.00015500       0.00399157      -0.01514203
C       -3.71131312       6.36830201       3.75078674       0.00922749      -0.00065774       0.00522032
C       -4.96725068       8.50023454       3.74433692       0.00298153      -0.00060459       0.00374647
C        2.44497051      -0.03982070       3.72166677       0.00160446       0.00423283       0.00569775
C        1.23826901       2.10527571       3.81833446      -0.00364539       0.00325801      -0.00029569
C        0.03939849       4.26730298       3.83204827      -0.00533116      -0.00515399       0.00535173
C       -1.25203322       6.38835906       3.68553895       0.00098156       0.00195814       0.00926241
C       -2.50285145       8.51196960       3.65666761       0.00364012       0.00673190       0.00090219
C        4.90964031      -0.02900479       3.67336732       0.00572756      -0.00191712      -0.00254473
C        3.68988314       2.07744871       3.86625599      -0.00455071      -0.00200338      -0.00567142
N        2.48786834       4.14395049       4.09585464       0.00670046      -0.00914074       0.00136949
N        1.12079125       6.46099131       3.85565065      -0.00993349      -0.00046443      -0.01309838
C       -0.05683986       8.53530680       3.61773445      -0.00352084      -0.00567754       0.00638081
C        7.38193041      -0.02245972       3.65595976      -0.00678580      -0.00510363       0.01025968
C        6.16762289       2.09243651       3.78715821      -0.00384211      -0.01252737      -0.00109640
C        4.95113043       4.19421211       4.10897899       0.00612298      -0.00398560       0.01350736
O        3.53927064       6.77552430       2.57934962       0.00240401      -0.00076359      -0.00779421
C        2.40708437       8.53902100       3.68981875       0.00279315       0.00390440       0.00048087
C        9.85971463      -0.02903436       3.66135062       0.00240300      -0.00204626      -0.00564234
C        8.64012323       2.10128765       3.71478771       0.00730057      -0.00130651       0.00224828
C        7.41649433       4.22137405       3.84815228      -0.00663737       0.00456884       0.00227307
C        6.17508125       6.35102335       3.99348463      -0.00281100       0.00914587       0.00329891
C        4.92063216       8.50855815       3.65755106       0.00049862      -0.00313866      -0.00108785
C        0.00002944       1.39571628       3.75118440       0.00001938       0.00499396       0.00489105
C       -1.20369965       3.54335915       3.76284361      -0.00385441       0.00076953       0.00000393
C       -2.47101462       5.66200956       3.71864056       0.00889181       0.00121196      -0.00615953
C       -3.73158682       7.79296113       3.71812982       0.00648246      -0.00026826      -0.00155008
C       -4.95932709       9.92741255       3.72124696      -0.00097568       0.00160756      -0.00788641
C        2.45583587       1.38044886       3.79833434      -0.00527622       0.00363984       0.00274289
C        1.26586484       3.52692853       3.91336625      -0.00012066      -0.00100856       0.01055532
C       -0.01229815       5.70109796       3.78857200      -0.00725409      -0.00564340      -0.00258065
C       -1.27382423       7.80747144       3.63506084      -0.00240640       0.00016585       0.00056128
C       -2.49326584       9.93702639       3.67285192       0.00678305       0.00708389       0.00775691
C        4.92578484       1.38468196       3.77206130      -0.00614981      -0.00405460      -0.00949338
C        3.69398406       3.47465490       4.05015569       0.00495370      -0.00490020       0.00656085
C        1.15176135       7.83383260       3.70316667       0.00032483       0.00071489       0.00262638
C       -0.02729929       9.95483055       3.63031628      -0.00155628      -0.01022450      -0.00251763
C        7.39946768       1.39229030       3.70477230       0.00114039      -0.00540268       0.00195113
C        6.18993026       3.49564709       3.90971592      -0.00144802      -0.01005982      -0.00324334
C        5.04793156       5.57617607       4.29907568       0.00171112      -0.00026552       0.00345553
C        3.64317453       7.86202186       3.33563234       0.00286684      -0.01005399       0.00665239
C        2.44557776       9.95936030       3.66349369      -0.00238007       0.00515433       0.00870096
C        9.87443341       1.39573413       3.69306945       0.01045576      -0.00172442       0.00237594
C        8.65185136       3.52186286       3.75942242      -0.00221714       0.00400038       0.01016424
C        7.41254247       5.64693543       3.86486128      -0.00221546       0.00875915      -0.01182883
C        6.13515443       7.78186627       3.80561356      -0.00085747       0.00470591      -0.00168040
C        4.91948878       9.93238760       3.67548510      -0.00125485      -0.00461519      -0.00647546
Ta       3.04010400       6.10364159       4.51494443      -0.00252319       0.01589648       0.00139718
O        3.02158052       6.53420741       6.26313694      -0.00145865       0.00322137      -0.00728886
O        2.91441957       6.88861006       7.64100466      -0.00794421       0.00471375      -0.01211321
H        3.74678531       6.52911223       8.01616517      -0.00027944       0.00184549      -0.01147170
