52
Lattice="12.336457 0.0 0.0 -6.168228499999997 10.683685154694365 0.0 0.0 0.0 15.0" Properties=species:S:1:pos:R:3:forces:R:3 energy=-448.6596995046893 free_energy=-448.6596995046893 stress="-0.004494555653048931 -0.0012377393230873193 1.840105180601197e-05 -0.0012377393230873193 -0.006528876810433915 -2.4035961296415353e-05 1.840105180601197e-05 -2.4035961296415353e-05 8.160982434463307e-07" pbc="T T T"
C        0.05315488       0.06427689       3.90286280       0.00291173       0.00320234       0.00128811
C       -1.20081954       2.18539290       3.73730855       0.00024257       0.00223322      -0.01106457
C       -2.45377328       4.32968717       3.90378389       0.00010546      -0.00534327      -0.00458387
C       -3.66185611       6.47210077       4.07670804       0.00681809       0.00129996      -0.00722361
C       -4.87341705       8.61683926       4.08199568      -0.00582785       0.00122536       0.01339459
C        2.52069013       0.03029754       3.77972214      -0.00217980       0.00819849      -0.00489383
C        1.26296441       2.06187998       3.25168890      -0.00531900       0.00136404       0.01260721
C       -0.12480808       4.35042993       3.25000141      -0.00021465       0.00083818       0.00275950
C       -1.23107757       6.48049316       3.73427709       0.00010409      -0.00717136       0.00335880
C       -2.40569895       8.59816458       3.96973769       0.00366345       0.00500836      -0.00080265
C        4.98545446       0.05357507       3.88406609      -0.00380932       0.00081280       0.01041585
C        3.76545551       2.10520714       3.31318698      -0.00273104       0.00249650       0.00407960
S        1.36262836       6.48175615       2.77898937      -0.00518855      -0.00019311      -0.00311416
C        0.05787737       8.60632724       3.84959874       0.00509484       0.00161566      -0.00093680
C        7.44923457       0.06758337       4.04075203      -0.00055068       0.00801556      -0.00488328
C        6.20469456       2.20603602       3.88266410      -0.00219113      -0.00351549       0.00016732
C        4.96854182       4.39994390       3.70553493      -0.00029030      -0.00389629       0.00395436
N        3.83039618       6.56628760       4.03692303       0.00584916      -0.00003264      -0.00551368
C        2.53183154       8.61953919       3.97693702       0.00049102      -0.00515973       0.00397338
C        9.92223114       0.07371615       4.06333409      -0.00049175      -0.00848223       0.00049772
C        8.67223832       2.20213903       4.02826352       0.00841286       0.00271020       0.00721107
C        7.42523162       4.33736268       4.06179537       0.00233681      -0.00057342      -0.00174001
C        6.23193892       6.50674229       4.10597225       0.00363786      -0.00388062       0.00430427
C        5.00272153       8.62997721       4.11680044      -0.00075838       0.00021398       0.00241472
C        0.03443601       1.46609025       3.63249245      -0.00324438       0.00393235       0.00276018
C       -1.25086168       3.59944951       3.64501678      -0.00199849       0.00163916      -0.00871269
C       -2.44582098       5.75465229       3.93198722       0.00165396      -0.00925692      -0.00093010
C       -3.64529769       7.89494271       4.06167618       0.00037828       0.00577571      -0.00855752
C       -4.87895288      10.03299920       3.93791969       0.00040008       0.00411192       0.00378205
C        2.51428267       1.41823533       3.42123586      -0.00275308       0.00878954       0.00505130
S        1.25827766       3.60571318       2.45648092      -0.00212222      -0.01605474       0.00802261
C       -0.10808388       5.73589291       3.32106606       0.00169822       0.00020977      -0.00227908
C       -1.18035665       7.89394305       3.84467037       0.00502663      -0.00461393       0.00731782
C       -2.41151505      10.01953730       3.89427388      -0.00420682       0.00731708       0.01399193
C        4.98442932       1.47027077       3.71367317      -0.00476804      -0.00482796       0.00446136
P        4.04232717       3.57607200       2.28460498       0.00094778      -0.00510474      -0.00218348
C        1.31236396       7.96488169       3.67734443       0.00395112       0.00076473      -0.01142501
C        0.05292695      10.03378683       3.97141024       0.00062135       0.00494016       0.00019321
C        7.43812601       1.49417590       4.02200422       0.00410608       0.00928554       0.00445479
C        6.21194772       3.62382610       3.91433598       0.00006877      -0.00356063       0.00765643
C        5.00300763       5.84374350       3.96377344       0.00442346      -0.00212995      -0.00775894
C        3.78301490       7.92789675       4.05065282       0.00178783       0.00040040      -0.00322838
C        2.51978233      10.04726977       4.07918412      -0.00508634      -0.00405433      -0.00286667
C        9.91874680       1.49426878       3.97421416       0.00416123      -0.00642864      -0.01481197
C        8.65862719       3.62186281       4.03070837       0.00158849       0.00025336      -0.00704216
C        7.44339738       5.76451802       4.10676618       0.00745859       0.00039712      -0.00676450
C        6.23164991       7.91906348       4.13440171      -0.00517797      -0.00427911       0.00209768
C        4.99035618      10.05164872       4.05651007       0.00450922      -0.00193306      -0.00733252
Ta       2.89295564       4.79152886       4.03259167      -0.00285015       0.00668750      -0.00444363
O        2.48120481       3.98095908       5.56800237      -0.00248733      -0.00064433      -0.00323083
O        2.08439451       3.27229196       6.73646354      -0.01913299       0.00338876      -0.00153508
H        2.31163939       3.90307223       7.45501715       0.00093124       0.00400876       0.00764313
