52
Lattice="12.336457 0.0 0.0 -6.168228499999997 10.683685154694365 0.0 0.0 0.0 15.0" Properties=species:S:1:pos:R:3:forces:R:3 energy=-448.55091221119767 free_energy=-448.55091221119767 stress="-0.007551719959754746 0.0021815030651939375 -8.355013368588628e-06 0.0021815030651939375 -0.0038742492948500317 2.178624743560537e-05 -8.355013368588628e-06 2.178624743560537e-05 -1.1405211623001505e-05" pbc="T T T"
C        0.06088721       0.06190620       3.80080915       0.00184701      -0.00419108       0.00187095
C       -1.16184605       2.20904193       3.63283789      -0.00890536       0.00556453       0.00375532
C       -2.38766031       4.34998429       3.83656755      -0.00188036       0.00543769      -0.00054827
C       -3.62257152       6.49283732       4.01006838      -0.00391307       0.00005150      -0.00073081
C       -4.87091828       8.62551364       4.05121944       0.00871857      -0.00851875      -0.00633891
C        2.52657795       0.04903834       3.67306264      -0.00170593      -0.00130421      -0.00392592
C        1.28039358       2.10926257       3.17430836       0.00264515       0.00321882      -0.00297622
C        0.00769569       4.41367194       3.39914878       0.00992073      -0.00572800       0.00327775
C       -1.20355199       6.52624141       3.78324634       0.00068464       0.00323677       0.01362861
C       -2.41130329       8.63332745       3.87320411      -0.00566419       0.00414793      -0.00036857
C        5.00317602       0.07338380       3.71486938      -0.00149567      -0.00071755       0.00173941
C        3.77493647       2.13481442       3.35073484      -0.00122818       0.00197646       0.00084958
N        1.21119366       6.53841784       3.89501378      -0.00063172      -0.00397343       0.00341671
C        0.05329879       8.62754760       3.85152633      -0.00179283       0.00058810      -0.00356287
C        7.47207244       0.07023939       3.82702238       0.00202111       0.00507806      -0.00548922
C        6.25021506       2.21135684       3.71515541       0.00059566      -0.00470138      -0.00280569
C        5.11767967       4.39485148       3.89578589       0.00152023      -0.00302443      -0.00137658
P        3.65127034       6.35617916       5.13453745       0.00357078      -0.00164264       0.00432552
C        2.51518203       8.61957461       4.10176049       0.00158816       0.01206330       0.00189071
C        9.93684531       0.06782232       3.90451724       0.00558148      -0.00155365      -0.00289117
C        8.71546041       2.20755692       3.83067859      -0.00247303      -0.00410997      -0.01119468
C        7.51022901       4.34459577       3.98784351       0.00488623       0.00369008       0.00019093
C        6.29362436       6.49418206       4.28921661      -0.00633900       0.00784678       0.00321055
C        4.99921303       8.62993478       4.24147766       0.00522630      -0.00265220      -0.00066350
C        0.06025421       1.47498131       3.53047756      -0.00346280       0.00615218       0.00238971
C       -1.18099344       3.62847940       3.64170031      -0.00341628       0.00539118       0.00127106
C       -2.40262048       5.78060343       3.87411898      -0.00224440       0.00492481      -0.00167959
C       -3.63665647       7.91786963       3.99092498       0.00271311      -0.00443580      -0.00726281
C       -4.87320505      10.03737180       3.84920048       0.00265539      -0.00924875       0.00102433
C        2.53422162       1.45186246       3.36623441       0.00231595       0.00211624      -0.00006020
S        1.15366957       3.61299068       2.20746781       0.00184905      -0.00120934       0.00775439
C        0.02018849       5.84769677       3.68231822      -0.00112538      -0.00324862       0.00345105
C       -1.18280822       7.93469220       3.83537996      -0.00655351       0.00635710       0.00178623
C       -2.40340867      10.04949555       3.76501872      -0.00376262       0.00141069      -0.00301168
C        5.01342590       1.49762295       3.59636541      -0.00063573      -0.00278091      -0.00149567
S        3.78781403       3.82402544       2.94163861      -0.01212009      -0.00810232       0.00636591
C        1.26659867       7.90745488       3.96260941       0.00052516      -0.00150751       0.00381023
C        0.06797322      10.04870696       3.80669244       0.00222435       0.00186965      -0.00772175
C        7.47367230       1.49727422       3.79372027      -0.00029665      -0.00079168      -0.00545764
C        6.29084750       3.62098825       3.86645011       0.00599956      -0.00144332      -0.00656401
C        5.10712686       5.71932686       4.37560425      -0.00511577       0.00038080      -0.00273987
C        3.74120673       7.96873004       4.40887288       0.00062604       0.00832424       0.00167853
C        2.52900787      10.04089948       3.93770197       0.00413418       0.01121851      -0.00751479
C        9.94735611       1.49406207       3.79311340      -0.00545600      -0.00517234      -0.00117177
C        8.72716437       3.62897249       3.89464366       0.00123865      -0.00300950      -0.00262467
C        7.50471680       5.77160694       4.10684858      -0.00537454       0.00718004       0.00523106
C        6.24639482       7.92019412       4.24865748       0.00569111       0.00079631      -0.00119581
C        4.99978956      10.04271143       3.98959484       0.00456343      -0.00794541      -0.00365518
Ta       1.91125391       4.66745256       4.35780257       0.00112904      -0.00424754       0.00872778
O        1.53027628       3.75263277       5.83877293       0.00269494       0.00134737       0.00386371
O        1.26970405       2.95517087       6.98240331      -0.00647909       0.00140332       0.01655278
H        0.78791329       3.57657830       7.57254427       0.00490620      -0.01651212      -0.00703498
