52
Lattice="12.336457 0.0 0.0 -6.168228499999997 10.683685154694365 0.0 0.0 0.0 15.0" Properties=species:S:1:pos:R:3:initial_magmoms:R:1:forces:R:3 energy=-467.4143074386551 free_energy=-467.4143074386551 stress="-0.0036206512878722225 0.004183202930564204 1.4203342296609047e-05 0.004183202930564204 -0.004848549760417959 1.1033102521187892e-05 1.4203342296609047e-05 1.1033102521187892e-05 -1.777364495053131e-05" pbc="T T T"
C       -0.01417893      -0.02584075       3.68810011       0.00000000       0.00011163       0.00023626      -0.00132692
C       -1.21805515       2.12954707       3.70309060       0.00000000       0.00058500      -0.00218400      -0.00010473
C       -2.44111215       4.25479774       3.70672963       0.00000000       0.00184599      -0.00083185      -0.00264687
C       -3.70525209       6.37947512       3.71556036       0.00000000      -0.00048233       0.00120768       0.00083105
C       -4.97160488       8.50690312       3.72276763       0.00000000       0.00038208       0.00080165      -0.00029966
C        2.44417653      -0.03126914       3.68158389       0.00000000      -0.00132338       0.00052427       0.00150945
C        1.23818196       2.10993123       3.83277795       0.00000000      -0.00158630       0.00140274      -0.00269616
C        0.04926510       4.28338714       3.84722143       0.00000000       0.00042270       0.00047490       0.00012092
C       -1.24632104       6.40260973       3.61981108       0.00000000       0.00172522       0.00017060      -0.00147515
C       -2.50479709       8.52365491       3.57670129       0.00000000       0.00088211       0.00051142      -0.00155935
C        4.90817989      -0.01523086       3.56392350       0.00000000       0.00010098      -0.00079460       0.00068794
C        3.69334825       2.08172235       3.85110427       0.00000000       0.00055633       0.00084651      -0.00086662
N        2.48766701       4.11285303       4.24080160       0.00000000      -0.00009207      -0.00347928       0.00024284
N        1.12073243       6.50061073       3.81438995       0.00000000      -0.00365481      -0.00178758      -0.00251901
C       -0.05941703       8.55020425       3.45597278       0.00000000      -0.00157115      -0.00176141       0.00041820
C        7.37938078      -0.00199583       3.50110004       0.00000000      -0.00006076      -0.00049092       0.00053814
C        6.17042691       2.10454203       3.71291558       0.00000000      -0.00004249       0.00114984      -0.00022967
C        4.96422217       4.19912753       4.13435086       0.00000000       0.00090215       0.00002519       0.00089348
O        3.58380057       6.67227352       2.77514792       0.00000000       0.00266536       0.00047244      -0.00503744
C        2.40038750       8.56833546       3.50279702       0.00000000      -0.00141212       0.00157380      -0.00393147
C        9.86323642      -0.01201380       3.56023674       0.00000000       0.00172411       0.00192553      -0.00008062
C        8.64538705       2.11654819       3.63416348       0.00000000       0.00168187      -0.00053377      -0.00017828
C        7.42382215       4.23070785       3.81556441       0.00000000      -0.00163112      -0.00283473       0.00013018
C        6.18020673       6.35559186       4.00913305       0.00000000      -0.00018022      -0.00125073       0.00036026
C        4.91709580       8.52000973       3.63511699       0.00000000       0.00030496       0.00066050      -0.00235173
C        0.00044489       1.40594460       3.73342647       0.00000000      -0.00071692      -0.00214741       0.00117667
C       -1.19168270       3.56121905       3.74497704       0.00000000       0.00201686      -0.00127646       0.00085471
C       -2.46272545       5.67536475       3.67386838       0.00000000       0.00053135       0.00028712      -0.00143515
C       -3.73048314       7.80271510       3.67560397       0.00000000       0.00143930       0.00138738       0.00153968
C       -4.96151056       9.93630935       3.69115557       0.00000000      -0.00158146      -0.00031630       0.00230704
C        2.45620795       1.38598007       3.78668370       0.00000000      -0.00199952       0.00081531       0.00251649
C        1.26922995       3.52733674       3.97665966       0.00000000       0.00099786       0.00130578      -0.00159823
C        0.00564276       5.72877739       3.75476127       0.00000000       0.00158418       0.00066571       0.00092564
C       -1.27540883       7.82004013       3.52720037       0.00000000       0.00011134       0.00013277       0.00032646
C       -2.49408510       9.94885219       3.59403156       0.00000000      -0.00010412       0.00042290       0.00000529
C        4.92791902       1.39533863       3.69858436       0.00000000      -0.00027009      -0.00056191       0.00007516
C        3.69681369       3.46915569       4.09863968       0.00000000       0.00031870       0.00080098      -0.00156175
C        1.14967059       7.84539437       3.54145893       0.00000000      -0.00274810       0.00075009      -0.00047113
C       -0.02918487       9.97107695       3.47419700       0.00000000      -0.00105622      -0.00192630      -0.00038514
C        7.40169995       1.40906402       3.59663060       0.00000000       0.00100297      -0.00123941      -0.00061165
C        6.19787261       3.50297997       3.88192042       0.00000000      -0.00185573      -0.00023830       0.00163199
C        5.07965490       5.56848455       4.33759248       0.00000000       0.00277600      -0.00208295       0.00092767
C        3.64927567       7.86493801       3.34060910       0.00000000       0.00205722       0.00300292      -0.00296035
C        2.44502778       9.97695338       3.49987106       0.00000000       0.00110589       0.00142711       0.00110001
C        9.88031133       1.41270563       3.61823392       0.00000000       0.00233843      -0.00013499       0.00261731
C        8.66031566       3.53485741       3.70976842       0.00000000       0.00030327       0.00073311      -0.00103440
C        7.41917953       5.65613908       3.85020171       0.00000000      -0.00079338      -0.00042589       0.00024949
C        6.13394286       7.79074639       3.80793378       0.00000000      -0.00106083       0.00108108      -0.00025940
C        4.91793886       9.94340325       3.62160153       0.00000000       0.00093123       0.00101137       0.00001124
Ta       3.04361160       6.08286517       4.71694739       0.00000000       0.00594060       0.01401323       0.00464113
O        3.41460879       6.12347765       6.58365039       1.00000000       0.00131528       0.00585648       0.00406821
O        2.27282438       7.01781648       6.19562972       1.00000000      -0.01443784      -0.01937789       0.00491423
