53
Lattice="12.336457 0.0 0.0 -6.168228499999997 10.683685154694365 0.0 0.0 0.0 15.0" Properties=species:S:1:pos:R:3:forces:R:3 energy=-465.2037804561617 free_energy=-465.2037804561617 stress="-0.000664636625926432 0.0005138981720413663 2.757895325439508e-07 0.0005138981720413663 -0.009470908412183947 2.320462620875149e-05 2.757895325439508e-07 2.320462620875149e-05 1.6968475107622536e-05" pbc="T T T"
C       -0.03053000       0.02541535       3.59111223      -0.00023366       0.00831802       0.01159332
C       -1.24951217       2.17484050       3.79053755      -0.00571738       0.00499094      -0.00726035
C       -2.48407996       4.30375331       3.92374290      -0.00210142       0.01276531      -0.01272397
C       -3.73302304       6.43373236       3.83162632      -0.00466001       0.00412280       0.00359355
C       -4.96886112       8.55717009       3.61526609       0.00394869      -0.00356056       0.00869179
C        2.43431923       0.00113754       3.70053645      -0.00497749      -0.00260742       0.00071582
C        1.20946367       2.12111086       3.91046819       0.00209051      -0.00289361      -0.00005441
C        0.00693880       4.26863084       4.11252438       0.01422378      -0.00671383       0.00754057
C       -1.24297173       6.43260839       3.95291853       0.00137216       0.00477617       0.01045144
C       -2.48978028       8.55747967       3.73046471       0.00330046       0.00248175       0.01016649
C        4.90510015       0.02340917       3.68421873      -0.00323233      -0.00927446      -0.00688244
C        3.66303673       2.09784790       3.86443134      -0.00350380      -0.00391147       0.00004609
O        2.46393362       4.06481905       4.39679255      -0.00992969       0.00201901       0.01010542
P        1.46245792       6.53789856       4.48013456       0.00130785      -0.01399894       0.00314786
C       -0.03808539       8.61067147       3.65078347       0.00402512      -0.00218075      -0.00038827
C        7.36579037       0.08004231       3.53417091      -0.00412864       0.00263399       0.00446105
C        6.13260059       2.16840176       3.82694748       0.00205397      -0.00433270      -0.00229308
C        4.87749332       4.24445902       4.07023219      -0.00618927       0.01076358      -0.00453994
P        3.38323054       6.25268492       2.86524841       0.00682783      -0.00428959      -0.00579552
C        2.43240759       8.69628396       3.27528863      -0.00384407      -0.00284089      -0.00038929
C        9.85278391       0.08608444       3.45249789      -0.00968220      -0.00206721      -0.00931830
C        8.60940050       2.19024572       3.74207194       0.00850407      -0.00347591       0.00304535
C        7.36460869       4.30474170       3.91411978       0.00365316      -0.00638568       0.00365089
C        6.12807414       6.45201000       3.75778035       0.00105553       0.00124683      -0.01228817
C        4.91118629       8.60059339       3.33465494       0.00141741       0.00754429       0.00323448
C       -0.03047774       1.44161649       3.75500186      -0.00171721       0.00907442       0.00641875
C       -1.24111932       3.58436640       3.95047948      -0.00117158       0.00725636      -0.01064869
C       -2.49203411       5.72481082       3.91652029      -0.00300363       0.01247501      -0.00344242
C       -3.73349664       7.85029163       3.73063849       0.00485923       0.00047360       0.00792483
C       -4.97053348       9.97780888       3.62009978      -0.00240966      -0.00238396       0.01280203
C        2.43256880       1.40084919       3.81710495      -0.00351817      -0.00513669       0.00496099
C        1.20264758       3.48854832       4.15587294       0.01384774       0.00312779      -0.00763506
C       -0.04012345       5.69662988       4.14357165       0.00170088      -0.00835633       0.00653382
C       -1.25085274       7.86076165       3.80030719       0.00569397       0.00439690       0.00375911
C       -2.49298028       9.97942299       3.69168791      -0.00471533      -0.00310737       0.00815592
C        4.91067494       1.43444655       3.78421385      -0.00259281      -0.00811025      -0.00480573
C        3.67743366       3.47271902       4.04399692      -0.00788455       0.00582714      -0.00937461
C        1.22884239       7.99708678       3.58068256       0.00182678       0.00253234      -0.00105775
C       -0.03053970      10.02943387       3.59378959       0.00003379      -0.00174145       0.00367110
C        7.37145622       1.48271463       3.69575971       0.00629002       0.00314906      -0.00706721
C        6.14121457       3.57254136       3.95518990       0.00142414      -0.00480875      -0.00638111
C        4.86379821       5.68911529       3.81884601       0.00113348       0.00864428      -0.00807851
C        3.65780391       7.97787658       3.16819243       0.00329708      -0.00405128      -0.00492495
C        2.43767776      10.09795250       3.36642072      -0.00992223      -0.00017995       0.00333992
C        9.84872394       1.48684549       3.65350702       0.00021209      -0.00492562      -0.00346808
C        8.60840567       3.60259135       3.87094491       0.00438626      -0.00109245      -0.00155662
C        7.35773172       5.73359333       3.85667962      -0.00103757      -0.00170319       0.00572067
C        6.12722580       7.85285636       3.53984866       0.00000767       0.00392249       0.00201202
C        4.90897379      10.02887914       3.43435211      -0.00287804       0.00947843      -0.00095437
Ta       3.59489411       5.84887153       5.51240301       0.00755304      -0.00539046      -0.00880428
O        4.09116929       7.43068569       6.09588685      -0.00427901      -0.00537344      -0.00449116
O        3.59004557       4.51598175       6.87965981      -0.00568051      -0.00927613       0.01349505
H        3.49624891       3.82995005       7.54930527       0.00296356       0.00214985      -0.01461404
