52
Lattice="12.336457 0.0 0.0 -6.168228499999997 10.683685154694365 0.0 0.0 0.0 15.0" Properties=species:S:1:pos:R:3:initial_magmoms:R:1:forces:R:3 energy=-460.6369078239368 free_energy=-460.6369078239368 stress="-0.0007641257381691173 0.0011238741921343776 -3.47407528363748e-05 0.0011238741921343776 -0.0033268265061694832 -7.382289866329571e-05 -3.47407528363748e-05 -7.382289866329571e-05 0.00019076629151198134" pbc="T T T"
C        0.00503521      -0.04723825       3.97678785       0.00000000      -0.00839729      -0.03254698      -0.01354854
C       -1.21902716       2.09658271       4.03967840       0.00000000      -0.00360114       0.01196226      -0.00258006
C       -2.45187166       4.22669858       3.89722830       0.00000000       0.00168082       0.00991427      -0.01246919
C       -3.69459769       6.35821729       3.76373705       0.00000000       0.00285247       0.00772618      -0.00729268
C       -4.92936361       8.49483773       3.80359337       0.00000000       0.00192940      -0.00035646       0.00138600
C        2.47120703      -0.05217178       3.93867814       0.00000000      -0.00667879      -0.00740743      -0.00874205
C        1.25360246       2.09271503       4.05664292       0.00000000      -0.01027616      -0.00475710      -0.00458583
C        0.04141256       4.21558825       3.85594236       0.00000000       0.00542828       0.01603465       0.00723320
C       -1.22284414       6.35048775       3.58431208       0.00000000      -0.01143171      -0.01700545      -0.01606445
C       -2.46004314       8.49320685       3.73200461       0.00000000       0.00628377      -0.01668933      -0.00280428
C        4.93478453      -0.04717795       3.82392938       0.00000000      -0.01737476       0.00909456       0.00692080
C        3.69526495       2.07382279       3.91859526       0.00000000       0.00979831      -0.01081574       0.00948324
O        2.50569323       4.15327222       4.11431611       0.00000000      -0.00708160      -0.01575438      -0.00439192
P        1.31459234       6.28473218       2.45983532       0.00000000      -0.00646625      -0.02602920       0.01600595
C       -0.02531838       8.53963009       3.44834142       0.00000000       0.00080747       0.00613222       0.02663469
C        7.39375906      -0.02121079       3.79730572       0.00000000       0.00974733       0.01841949      -0.01692831
C        6.16521013       2.09283804       3.87794859       0.00000000      -0.00605798      -0.00202926       0.00307543
C        4.91528336       4.18651130       3.66462787       0.00000000      -0.00685909      -0.00704077       0.01159946
P        3.73529807       6.41705961       2.25938701       0.00000000       0.00156494       0.02500046       0.01440493
C        2.43802191       8.60272638       3.39601571       0.00000000       0.00669494      -0.00496708       0.00155693
C        9.87308459      -0.02861251       3.89697001       0.00000000       0.01214809      -0.00607687       0.00010601
C        8.64134768       2.09734066       3.96131810       0.00000000      -0.00545604       0.00151646      -0.01688652
C        7.40645123       4.22254931       3.81089946       0.00000000      -0.00100357      -0.00427442       0.00984518
C        6.17545795       6.35668861       3.57422278       0.00000000      -0.00366371       0.01136344       0.02532831
C        4.95678815       8.51713253       3.68933820       0.00000000       0.00871006       0.00072514       0.00171246
C        0.00859507       1.38004923       4.04631255       0.00000000      -0.01546826      -0.02182884      -0.00306777
C       -1.21119853       3.51402415       3.96855795       0.00000000       0.00124233       0.01908796       0.00259717
C       -2.45804853       5.64762073       3.77131251       0.00000000      -0.00445630       0.00258261      -0.00003755
C       -3.69727104       7.78341509       3.76942993       0.00000000      -0.00137360       0.00372720      -0.00087704
C       -4.93338495       9.91365231       3.92129539       0.00000000      -0.00111438      -0.01106228      -0.00549747
C        2.47209951       1.36170637       3.99632373       0.00000000       0.00433288      -0.00284848       0.00190525
C        1.24321480       3.48342972       4.02512190       0.00000000       0.00330435       0.00969356      -0.00259646
C       -0.02219568       5.59175231       3.44732069       0.00000000      -0.01053356      -0.00653031      -0.00697735
C       -1.23111074       7.78923877       3.55552411       0.00000000       0.00580071      -0.02065421       0.00616656
C       -2.46392224       9.91636761       3.83087923       0.00000000      -0.00966529      -0.01487070       0.00771776
C        4.93845840       1.37451625       3.88144492       0.00000000       0.00487463       0.00721483       0.00766144
C        3.72307316       3.46320418       3.86035370       0.00000000       0.00559243      -0.00347252       0.00038985
C        1.22458244       7.92142620       3.12712038       0.00000000      -0.00109253      -0.00350403      -0.02380053
C       -0.00669790       9.94060665       3.70060794       0.00000000      -0.00216629       0.02705796      -0.00429214
C        7.40327041       1.38897054       3.90427599       0.00000000      -0.00668073       0.01872810       0.02038002
C        6.16922785       3.50412355       3.79955554       0.00000000       0.00225195      -0.01294476      -0.00802601
C        4.95042491       5.60973576       3.38809592       0.00000000      -0.02905837      -0.00460511       0.00792199
C        3.68327870       7.86473048       3.36484399       0.00000000       0.02078799       0.01903219      -0.02965322
C        2.46382719       9.97937374       3.72267785       0.00000000       0.01200390       0.00205640      -0.00985967
C        9.87613670       1.38572713       3.99813858       0.00000000      -0.00551646       0.00382054      -0.00744290
C        8.64328278       3.51925260       3.91418793       0.00000000       0.00182946      -0.00489788       0.01015987
C        7.40639025       5.64664760       3.73044991       0.00000000       0.00815878      -0.00356311       0.01131495
C        6.16489048       7.78182554       3.67335035       0.00000000       0.00888770       0.00443337       0.00676101
C        4.94043634       9.92787733       3.87810079       0.00000000      -0.00199341      -0.01774661       0.00917809
Ta       2.97875079       6.28622058       4.74844227       0.00000000      -0.00159740      -0.06063820       0.30537567
O        4.32080933       6.29921293       5.93180124       1.00000000      -0.01474838       0.01971267      -0.01583079
O        1.51704546       6.65172890       5.73024639       1.00000000       0.05310006       0.08988101      -0.30856950
