53
Lattice="12.336457 0.0 0.0 -6.168228499999997 10.683685154694365 0.0 0.0 0.0 15.0" Properties=species:S:1:pos:R:3:forces:R:3 energy=-469.55440548050757 free_energy=-469.55440548050757 stress="-0.004112122608856379 -0.0008777108270183681 2.7571650383704304e-06 -0.0008777108270183681 -0.003230433801101375 -2.1497905925059898e-05 2.7571650383704304e-06 -2.1497905925059898e-05 9.593840329982185e-06" pbc="T T T"
C        0.04628518      -0.01958278       3.68842809       0.00648568      -0.00172378       0.00437927
C       -1.19727463       2.10983830       3.68834974      -0.00442310      -0.00304718       0.00416123
C       -2.43416571       4.25200052       3.68603040       0.00285758       0.00203437       0.00169719
C       -3.65526709       6.39301462       3.68234719       0.00390616       0.00386303      -0.00293111
C       -4.88133115       8.53258064       3.69017338      -0.00208602       0.00179094       0.00473107
C        2.51748768      -0.01338465       3.71270341       0.00444575       0.00358126       0.00698150
C        1.27025238       2.11245462       3.83936125      -0.00312700      -0.00414457       0.00003975
C        0.00548148       4.23353268       3.95134590       0.00641979       0.00050682       0.00317234
C       -1.19662766       6.38801730       3.85489876      -0.00205124       0.00199766      -0.00214874
C       -2.41395758       8.52920010       3.72080893       0.00037525      -0.00257623       0.00239572
C        4.98569330      -0.01734640       3.70773028      -0.00401815       0.00211345       0.00151837
C        3.75395625       2.11714650       3.82758414       0.00324838      -0.00194273       0.00238425
B        2.50754357       4.25452794       4.34229027       0.00189021      -0.00780863       0.00273344
B        1.28218020       6.38244977       4.38634397      -0.00495810      -0.00332790      -0.00668447
C        0.04945339       8.53386192       3.86176860       0.00440750      -0.00270352      -0.00100874
C        7.45070408      -0.01676524       3.70131523      -0.00809882       0.00383847       0.00891560
C        6.21727016       2.11836341       3.68290147       0.00661423      -0.00012691      -0.00196237
C        5.00306239       4.25606487       3.89598852      -0.00592704      -0.00390179      -0.00084509
C        3.81287181       6.42810941       4.24919936       0.00331639       0.00038049      -0.00600081
C        2.52402678       8.54771706       3.94530798      -0.00444112       0.00227770       0.00068551
C        9.91664986      -0.01839707       3.68869379      -0.00318744      -0.00812232      -0.00090335
C        8.67862372       2.11658903       3.61796881       0.00298620       0.00302519       0.01050067
C        7.44871500       4.25687365       3.66372783      -0.00604607       0.00314357       0.00325068
C        6.22162983       6.39769926       3.77797341       0.00469958       0.00197943      -0.00038141
C        4.98966670       8.53326665       3.79636374      -0.00370608       0.00086908       0.00420208
C        0.03915222       1.39972422       3.72331989      -0.00399079      -0.00309048      -0.01052404
C       -1.21247824       3.52942275       3.74916328       0.00546982       0.00055908       0.00163636
C       -2.42981735       5.67771351       3.72310981       0.00137690       0.00253897       0.00080634
C       -3.64983140       7.81855696       3.69080973      -0.00219957       0.00177166      -0.00378545
C       -4.88466233       9.95571341       3.69019828       0.00720373       0.00144601      -0.00043834
C        2.51484095       1.40687267       3.79987892       0.00094402       0.00275508       0.00150014
C        1.22523334       3.51895848       4.02777746       0.00390805      -0.00538330      -0.00139523
C       -0.00248490       5.64688308       4.05177224      -0.00247443       0.00162220      -0.00814375
C       -1.18556072       7.81698693       3.81950024       0.00343784      -0.00064621      -0.00363686
C       -2.41623454       9.95505924       3.70740667      -0.00085300      -0.00195019       0.00148509
C        4.98553524       1.40547507       3.72281851       0.00535383       0.00243003      -0.00826527
C        3.79433250       3.53272687       3.99311309      -0.00126976      -0.00700869       0.00931494
C        1.29289969       7.86427555       4.04830262       0.00231305      -0.00519226      -0.00112687
C        0.04983530       9.95606511       3.74015928      -0.00569881       0.00005743      -0.00064812
C        7.44785868       1.40551909       3.64192330       0.00536194       0.00279670      -0.00416193
C        6.22396431       3.54293183       3.71841298      -0.00472496      -0.00163215       0.00190268
C        4.99762655       5.68432838       3.96216405       0.00188275      -0.00123065      -0.00622527
C        3.76003408       7.82941053       3.99072221      -0.00501374       0.00049063      -0.00940023
C        2.51863949       9.96202619       3.75444870      -0.00977936       0.00022510      -0.00633278
C        9.91003384       1.40191983       3.63736605      -0.00312405      -0.00713472       0.00546794
C        8.67517973       3.54092235       3.62758937      -0.00183458       0.00510760       0.00142430
C        7.44756482       5.68259693       3.68960367       0.00479603       0.00356590       0.00475480
C        6.22308880       7.82164362       3.75250194      -0.00251879       0.00227033       0.00665014
C        4.98257908       9.95169806       3.71102218       0.00332147      -0.00159314      -0.01059108
Tc       2.66767159       5.73062284       5.79055321       0.00480584       0.00233176       0.00720293
O        3.63564038       4.81605082       6.87952580      -0.00679296       0.00573614      -0.00413906
O        1.47384096       6.80853391       6.86822113      -0.00816489      -0.00815707       0.00018305
H        0.92316663       6.32865020       7.51266081       0.00868191       0.01533836      -0.00239701
