51
Lattice="12.336457 0.0 0.0 -6.168228499999997 10.683685154694365 0.0 0.0 0.0 15.0" Properties=species:S:1:pos:R:3:initial_magmoms:R:1:forces:R:3 energy=-450.3447682386205 free_energy=-450.3447682386205 stress="-0.006821349739884089 -0.003775883075036917 -3.9777636181210235e-08 -0.003775883075036917 -0.001769399109917758 4.5510810029166995e-06 -3.9777636181210235e-08 4.5510810029166995e-06 -1.9618904006427202e-05" pbc="T T T"
C       -0.01508730       0.01359955       3.83226916       0.00000000      -0.00388385      -0.00150416      -0.00252661
C       -1.27643479       2.12511741       3.79046492       0.00000000       0.00008511      -0.00248500      -0.00056582
C       -2.49097438       4.27493432       3.71307940       0.00000000      -0.00247573       0.00589362      -0.00615373
C       -3.68548763       6.43155146       3.69353885       0.00000000       0.01043589      -0.00550815      -0.00822042
C       -4.92201862       8.57941597       3.77943508       0.00000000      -0.00028731      -0.01157866       0.00410291
C        2.45641276       0.02947552       3.84163286       0.00000000      -0.00086136      -0.00343449      -0.00474558
C        1.17823667       2.17181473       3.88389982       0.00000000       0.00204115      -0.00357823      -0.01269145
C       -0.07121620       4.22068292       3.91836201       0.00000000       0.00237396      -0.00406862       0.00796862
C       -1.24288584       6.40958862       3.85976019       0.00000000       0.00088744      -0.00346013       0.00313130
C       -2.46239812       8.56531802       3.82302705       0.00000000      -0.00315334      -0.00476032       0.00514385
C        4.91996768       0.02161956       3.71551470       0.00000000       0.00365464       0.00239216      -0.00596983
C        3.64819632       2.11047244       3.46714083       0.00000000      -0.01012076       0.01067527       0.00589566
B        1.27246440       6.35644810       4.11927712       0.00000000      -0.00818119       0.00815865      -0.00929677
C       -0.00428204       8.55789568       3.87535387       0.00000000      -0.00343758      -0.00480556      -0.00250580
C        7.38325551       0.00824828       3.70574615       0.00000000       0.00314594       0.00717631       0.00775525
C        6.14422488       2.15396278       3.44715487       0.00000000      -0.00035259      -0.00766001       0.00512826
C        5.03605488       4.36599522       3.19233107       0.00000000       0.00348144      -0.00430775      -0.00842667
C        3.77340622       6.39911599       3.75065722       0.00000000       0.00608334       0.00562787       0.00184331
C        2.46805774       8.55359737       3.86582161       0.00000000       0.00097610       0.00689531      -0.00347996
C        9.84895368      -0.00149005       3.76062309       0.00000000      -0.00522578      -0.00257165       0.00118708
C        8.60770495       2.14036291       3.62321971       0.00000000       0.00919587       0.01104059      -0.00817349
C        7.41701431       4.29691515       3.48902637       0.00000000      -0.00925137       0.00809574       0.00353350
C        6.22667238       6.46514734       3.54506299       0.00000000       0.00255947       0.00132237       0.00408367
C        4.93890748       8.56026335       3.76787090       0.00000000       0.00025676       0.00348086       0.00098700
C       -0.03596660       1.43540088       3.84848391       0.00000000       0.00044041       0.00119478       0.00261598
C       -1.29094760       3.53154676       3.79432102       0.00000000      -0.00341547       0.00098690      -0.00977579
C       -2.47319284       5.70354535       3.75144516       0.00000000       0.00802632      -0.00396526      -0.01265917
C       -3.69168514       7.85818694       3.77041792       0.00000000       0.00204114      -0.00837271       0.00138209
C       -4.93928209       9.99844142       3.84814580       0.00000000      -0.00165722      -0.00775873      -0.01417225
C        2.43728493       1.46250704       3.77744107       0.00000000      -0.00274705      -0.00014051       0.00623241
N        1.09672279       3.52937144       4.03864101       0.00000000       0.00714606       0.00362122       0.01392514
C       -0.05030305       5.64512735       3.95486050       0.00000000       0.00096234      -0.00393650       0.00625423
C       -1.23380955       7.84323525       3.86127905       0.00000000      -0.00484847      -0.00525107       0.00465273
C       -2.47485076       9.99719465       3.80652508       0.00000000       0.00342400      -0.00279236       0.00710215
C        4.90557319       1.44964143       3.52972682       0.00000000      -0.00784933       0.00066846      -0.01082655
S        3.52073081       3.69176444       2.70897991       0.00000000      -0.00330895      -0.00039389       0.00083780
C        1.23785401       7.86332079       3.95311329       0.00000000       0.00120583       0.00350498      -0.01202736
C       -0.01420839       9.98666112       3.76454316       0.00000000       0.00464287      -0.00259345       0.00335234
C        7.36860663       1.43582749       3.58222425       0.00000000       0.01173610       0.00670218       0.00305585
C        6.18777017       3.58075903       3.33888178       0.00000000      -0.00311177      -0.00479256       0.00810305
C        5.00282933       5.75512512       3.45103659       0.00000000       0.00262911      -0.00187580      -0.00159476
C        3.70454090       7.82557759       3.80970518       0.00000000       0.00069297       0.00763114       0.00564577
C        2.45257733       9.97648248       3.77450249       0.00000000      -0.00461063       0.00114310      -0.00376633
C        9.83402449       1.41928586       3.72266683       0.00000000       0.00030321      -0.00334788      -0.00206881
C        8.62110964       3.56578193       3.59939203       0.00000000      -0.00803201       0.01393994       0.00670130
C        7.43099210       5.72487985       3.55655049       0.00000000       0.00481935       0.00444175      -0.00977430
C        6.18944327       7.87350031       3.70427786       0.00000000      -0.00109440      -0.00396605       0.00383050
C        4.92189729       9.97744167       3.79536651       0.00000000      -0.00567278      -0.00159790       0.00969187
Tc       2.65609425       4.90090956       4.52878706       0.00000000       0.00109404      -0.00260195       0.00037092
O        2.29220974       4.92833360       6.43241148       1.00000000      -0.00843451      -0.00098576       0.01296326
O        3.30190163       3.99294232       6.15989927       1.00000000       0.00767257      -0.00049807       0.00194364
