52
Lattice="12.336457 0.0 0.0 -6.168228499999997 10.683685154694365 0.0 0.0 0.0 15.0" Properties=species:S:1:pos:R:3:forces:R:3 energy=-452.0537151176357 free_energy=-452.0537151176357 stress="0.0019308679902141673 -0.0009436709279233386 1.9644077354580346e-05 -0.0009436709279233386 -0.00467331608974987 6.227388358791672e-06 1.9644077354580346e-05 6.227388358791672e-06 3.482909163966085e-05" pbc="T T T"
C        0.06480926      -0.03090674       3.77521880      -0.01037639       0.01337476      -0.00257029
C       -1.16232188       2.11970988       3.80151887       0.00323225      -0.01296522       0.00438075
C       -2.40782705       4.24986424       3.65220687       0.01116138      -0.00083537       0.01042689
C       -3.64907041       6.38000706       3.57921742      -0.00575091      -0.00483844      -0.01113777
C       -4.87830184       8.50620302       3.61670531      -0.00842340      -0.00082486      -0.00401549
C        2.53522132      -0.08251420       3.70714007       0.00129222       0.00284458      -0.00440118
C        1.33462154       2.02171660       4.05395692       0.00219632       0.00041629      -0.00214978
C        0.05393780       4.30168415       3.90549783      -0.01000228       0.00186322      -0.00216087
C       -1.19647516       6.40259130       3.77224602      -0.00451836       0.00599620       0.00762739
C       -2.39543717       8.50820605       3.64396548       0.00738414      -0.00907068       0.00194884
C        5.00461778      -0.03450648       3.65375618       0.00385486      -0.00202832      -0.00841668
C        3.74823948       2.05882942       3.73767369       0.00392741       0.01156971       0.00560987
B        1.20789300       6.45295339       4.56852659       0.00203059       0.00479874      -0.00233967
C        0.07971127       8.53057507       3.82940948      -0.00478225      -0.00401344      -0.00295160
C        7.47069491      -0.00943456       3.69939315      -0.00029580      -0.00986038      -0.00454222
C        6.21274755       2.14130125       3.63092986      -0.00248700      -0.00357810       0.00522103
C        4.92603645       4.32690155       3.63728531       0.00005383       0.00433005       0.00448678
O        3.80525100       6.46502675       3.56230481      -0.00215393       0.00336547       0.00637995
C        2.55899075       8.52199178       3.84092674      -0.00794537       0.00416712      -0.01120506
C        9.93554543      -0.01366106       3.72805947       0.00780273       0.00638506      -0.00366668
C        8.69504732       2.12647386       3.65681271       0.00596825       0.00197718      -0.01288423
C        7.43488701       4.26021338       3.57943203      -0.00562711       0.00291259       0.00601673
C        6.21208149       6.40041769       3.54577967       0.00564485      -0.00762694       0.00348505
C        5.00020603       8.52758928       3.67053331       0.01086554       0.00624073       0.00096611
C        0.07158007       1.39370495       3.89906191       0.00187319      -0.00338615       0.00581325
C       -1.15844452       3.54259946       3.75567777       0.00313252      -0.01654084       0.00098224
C       -2.41807812       5.67313060       3.63869898      -0.00000386       0.00428159       0.01450766
C       -3.63667723       7.80009863       3.59832932       0.00087720      -0.01015027       0.00204590
C       -4.87636355       9.92302291       3.70436774      -0.00787270       0.00492287      -0.00596495
C        2.54561530       1.31784069       3.83239955       0.00262959       0.00528018      -0.00561101
P        1.68981900       3.71553554       4.39083917      -0.00075629       0.00521593      -0.00545374
C        0.00385629       5.69891156       4.01562912      -0.00598870       0.00240274      -0.00452642
C       -1.16419969       7.81614800       3.75539058       0.00566027       0.00095493       0.00515784
C       -2.39097722       9.92113995       3.64990104       0.00761838      -0.00526998       0.00170030
C        4.99340915       1.39913816       3.65316090      -0.00445307       0.00543977      -0.00175577
B        3.60982027       3.56230412       3.81942836      -0.00572157      -0.00120667       0.00927383
C        1.31976141       7.85186604       4.03235921      -0.01078534       0.00332055      -0.01044834
C        0.07088258       9.95514462       3.70440137      -0.00333944      -0.01050742       0.00244508
C        7.45559324       1.42242629       3.64876814       0.00189895      -0.00955554       0.00307969
C        6.17417709       3.57670809       3.60965680       0.00063130      -0.00152251       0.00152694
C        4.97961728       5.73871306       3.56054093       0.01016783      -0.00105766      -0.00151303
C        3.79757456       7.82513358       3.71598740       0.00088258       0.01182056       0.00143539
C        2.54196287       9.95214766       3.73883718       0.00758115       0.00452117       0.00116509
C        9.93713570       1.41657590       3.72038281       0.00521176       0.00627134       0.00905916
C        8.68545568       3.54736004       3.61589473       0.00654443       0.00821910       0.00968365
C        7.44591987       5.67447633       3.55452009      -0.01174549      -0.00390698      -0.00171292
C        6.22658755       7.81323290       3.59531939      -0.00105396      -0.00995333      -0.00096663
C        4.99656321       9.95443071       3.72812800      -0.00222762       0.00885771      -0.00130077
Tc       2.23189228       5.27020514       5.95177671       0.00280039      -0.00880133      -0.00823916
O        3.82097600       5.82873740       6.20204202       0.00729313      -0.00409980       0.01057556
O        1.28676670       5.08577930       7.54282952      -0.01101425      -0.00447768      -0.00876984
H        1.68124369       4.92930622       8.41639851      -0.00289194       0.00432772      -0.00629688
