52
Lattice="12.336457 0.0 0.0 -6.168228499999997 10.683685154694365 0.0 0.0 0.0 15.0" Properties=species:S:1:pos:R:3:initial_magmoms:R:1:forces:R:3 energy=-466.7331448143944 free_energy=-466.7331448143944 stress="-0.002349336560286864 0.000312424815323016 -7.954965996026832e-06 0.000312424815323016 0.0005918876752434946 4.161802781683697e-05 -7.954965996026832e-06 4.161802781683697e-05 -3.418162204638561e-05" pbc="T T T"
C        0.00647100      -0.01790591       3.60945662       0.00000000       0.00223706       0.00356522       0.00248854
C       -1.22798385       2.12014220       3.65422481       0.00000000      -0.00701626       0.00075547      -0.00130601
C       -2.45950606       4.25926263       3.63072100       0.00000000      -0.00298641      -0.00405605      -0.00456588
C       -3.69047484       6.39790524       3.58195020       0.00000000      -0.00352404       0.00035801       0.00253007
C       -4.92384218       8.53635223       3.56938698       0.00000000       0.00068019      -0.00059618       0.00269468
C        2.47744993      -0.00456253       3.64497106       0.00000000      -0.00037300       0.00042238      -0.00083675
C        1.23507049       2.11812248       3.78575972       0.00000000       0.00789634       0.00868487      -0.00089335
C       -0.00268126       4.27820964       3.82694212       0.00000000       0.00020397      -0.00264639      -0.00221270
C       -1.22859067       6.40556219       3.65867577       0.00000000       0.00399189      -0.00429620      -0.00338897
C       -2.45748893       8.53823913       3.59162374       0.00000000      -0.00530516      -0.00553165      -0.00384822
C        4.94802059      -0.01537573       3.64862896       0.00000000      -0.00246401      -0.00067709       0.00195567
C        3.72102732       2.11752724       3.81987796       0.00000000       0.00380498       0.00087935       0.00321530
B        2.47406812       4.15675449       4.40120529       0.00000000      -0.00060606       0.00854876       0.01069779
N        1.13309197       6.45061527       4.08958897       0.00000000      -0.02479022       0.00630182      -0.01149283
C        0.00489417       8.52541100       3.68334656       0.00000000       0.00064933      -0.00137678      -0.00512784
C        7.41671348      -0.03070719       3.66548363       0.00000000       0.00427965       0.00506713      -0.00113553
C        6.18543863       2.12030091       3.69766859       0.00000000       0.00269197       0.01019518       0.00490583
C        4.96298931       4.27373132       3.89280444       0.00000000       0.00827395      -0.00122139      -0.00141443
N        3.79983988       6.43928546       4.01006632       0.00000000       0.00953092       0.00394718      -0.00063660
C        2.47712072       8.49014193       3.79187655       0.00000000       0.00175097      -0.00028711      -0.00463025
C        9.87640058      -0.03227488       3.63751562       0.00000000      -0.00428307       0.00902794       0.00045965
C        8.64690995       2.11543164       3.63346170       0.00000000       0.00352029       0.00151429      -0.00148832
C        7.41627072       4.25894974       3.65643902       0.00000000       0.00341622      -0.00995773      -0.00260978
C        6.18422738       6.40387260       3.66664764       0.00000000       0.00423425      -0.00981678      -0.00141844
C        4.94676508       8.51883329       3.62516847       0.00000000      -0.00074099      -0.00830162       0.00484391
C        0.00365305       1.40412339       3.66705722       0.00000000      -0.00113348      -0.00406307       0.00249888
C       -1.22812984       3.55266794       3.68319281       0.00000000       0.00255947       0.01027157      -0.00173042
C       -2.45815749       5.68538125       3.61128695       0.00000000      -0.00285746      -0.00510177       0.00369960
C       -3.69059427       7.82319435       3.57011305       0.00000000       0.00266356      -0.00465971      -0.00385616
C       -4.92440432       9.96273647       3.59717510       0.00000000      -0.00640299      -0.00473257      -0.00354762
C        2.47782048       1.41703745       3.76365227       0.00000000      -0.00197565      -0.00558980      -0.00195216
C        1.19357625       3.53464475       3.95339580       0.00000000       0.00137548      -0.00123070      -0.00027402
C       -0.00471990       5.71480115       3.83931517       0.00000000       0.00620384       0.00240855       0.00056932
C       -1.22905605       7.82437024       3.63788338       0.00000000      -0.00036822       0.00552150      -0.00429905
C       -2.45681117       9.96415232       3.62068546       0.00000000       0.00065065      -0.00102622      -0.00095778
C        4.95266737       1.40563063       3.70857070       0.00000000      -0.00576024      -0.00927239       0.00489762
C        3.76529713       3.53066724       4.00345079       0.00000000      -0.00307535      -0.00101424       0.00521619
C        1.21693748       7.80366081       3.84676064       0.00000000       0.00016963       0.00550475      -0.00452766
C        0.01340615       9.94947470       3.65598386       0.00000000      -0.00254922       0.00138460      -0.00369611
C        7.41584338       1.40013535       3.65322971       0.00000000       0.00748509      -0.01236316       0.00342697
C        6.18685614       3.55196809       3.73630912       0.00000000      -0.00260143       0.00311820      -0.00418334
C        4.95453190       5.71516223       3.86685014       0.00000000      -0.00037143       0.00046611      -0.00179618
C        3.73227576       7.78720196       3.78328162       0.00000000       0.00817520       0.00204731       0.00003111
C        2.47800883       9.92220666       3.68561236       0.00000000       0.00130139       0.00564026       0.00284964
C        9.87778229       1.39888289       3.62837469       0.00000000       0.00535781      -0.00033087       0.00098689
C        8.64672007       3.54268359       3.62646223       0.00000000       0.00220851       0.01146805      -0.00295974
C        7.41251591       5.68520257       3.62590321       0.00000000      -0.00311850       0.00967643      -0.00154816
C        6.18279323       7.81990167       3.60307510       0.00000000      -0.00881432       0.00530888       0.00548122
C        4.94097757       9.94468951       3.60858073       0.00000000      -0.00087963      -0.00048737       0.00279786
Tc       2.43105489       5.81006457       5.60257281       0.00000000      -0.02954088       0.02990643      -0.02210820
O        3.34982074       6.88641499       6.58330793       1.00000000      -0.00540766       0.00291875      -0.01764496
O        1.05151073       5.34626137       6.52434455       1.00000000       0.03163309      -0.05627216       0.05584072
