52
Lattice="12.336457 0.0 0.0 -6.168228499999997 10.683685154694365 0.0 0.0 0.0 15.0" Properties=species:S:1:pos:R:3:forces:R:3 energy=-456.9729939323049 free_energy=-456.9729939323049 stress="-0.004995079025706974 -0.00402013129426529 -1.692826272953464e-05 -0.00402013129426529 0.0004926865916972141 -1.7062897291293378e-05 -1.692826272953464e-05 -1.7062897291293378e-05 -1.1059738523284793e-06" pbc="T T T"
C        0.04269851      -0.06533312       3.86123346      -0.00070399      -0.00326043       0.00750438
C       -1.22213484       2.04556719       3.86288541       0.00506680      -0.00600318       0.01178812
C       -2.43739914       4.19497732       3.82187223       0.00966153       0.00205348      -0.00012649
C       -3.62017757       6.35193214       3.76291121      -0.00124717      -0.00696074      -0.00133036
C       -4.85773522       8.50179725       3.81071256      -0.00069271      -0.00268667       0.00506961
C        2.51678880      -0.04623377       3.89316665       0.00276154      -0.00564684       0.00483703
C        1.23232915       2.09331445       3.94023769      -0.00099420       0.00051602      -0.01142479
C       -0.02919567       4.14610134       4.14960213      -0.00305158       0.00389235       0.00176995
C       -1.18054979       6.31796335       4.08644945      -0.00079571       0.00806326      -0.00033559
C       -2.39669353       8.48427514       3.93702024      -0.00189469       0.00271444       0.00369565
C        4.98080273      -0.05459773       3.80487523       0.00391530       0.00618507      -0.00726007
C        3.70616480       2.04448506       3.52303534      -0.00827440      -0.00036008       0.00605707
B        1.16192832       6.37761455       4.91721553       0.00899692      -0.00689516       0.00527412
C        0.06521678       8.48288242       4.08210916      -0.00140052       0.00441601       0.00046046
C        7.44267696      -0.07375749       3.79071131      -0.00777801      -0.00219872      -0.00846812
C        6.20374350       2.07319892       3.49991845      -0.00587483      -0.00244756      -0.00028166
C        5.08842819       4.28142620       3.21536691      -0.00011229       0.00077040      -0.00330692
C        3.84319638       6.33626647       3.73125736      -0.00016464       0.00278826      -0.01574143
C        2.51084978       8.45211004       4.01036140      -0.00079676       0.00366398      -0.01901152
C        9.90183724      -0.08838109       3.80374872      -0.00023774      -0.00435182       0.01059964
C        8.66516451       2.06020979       3.67387214       0.00119397       0.00030598       0.00621313
C        7.47525399       4.21883667       3.53616653       0.00078568      -0.00568750      -0.00351161
C        6.29059625       6.39050691       3.55039682       0.00137317       0.00181611       0.00712885
C        5.00127878       8.48042887       3.79825559      -0.00174992      -0.00197132      -0.01084580
C        0.01960537       1.35620011       3.90052131       0.00356347      -0.00572259      -0.00265595
C       -1.23946334       3.45360334       3.93731822       0.00227315      -0.00667073       0.00370013
C       -2.41345840       5.62002351       3.87510523       0.00385717       0.00274255      -0.00368377
C       -3.62694847       7.77937227       3.83810744      -0.00160102      -0.00618467       0.00788769
C       -4.87866608       9.92147365       3.87886423      -0.00040704      -0.00404593       0.00439895
C        2.49509154       1.39024105       3.82940387      -0.00307928      -0.00640132       0.00272178
N        1.15373080       3.44844008       4.12817132      -0.01305947      -0.00123162      -0.00037686
C       -0.01210777       5.55689497       4.30485987       0.00307948       0.00989737      -0.00592786
C       -1.17391285       7.76369797       4.06076917      -0.00317245       0.00545925      -0.00697371
C       -2.41404790       9.91914878       3.89294348       0.00875386       0.00413707      -0.00078024
C        4.96381830       1.37139024       3.59195321      -0.00544783       0.00483961       0.00766145
S        3.59432460       3.58977372       2.65524133      -0.00481403      -0.00312298      -0.00051034
C        1.29526681       7.79728532       4.26019926       0.00171606       0.01258325      -0.00896326
C        0.04727993       9.91053352       3.88278048      -0.00362073       0.00040247      -0.00631491
C        7.42743849       1.35553832       3.63735750      -0.00541248      -0.00102385       0.01002301
C        6.24481073       3.50234193       3.38110990      -0.00083863      -0.00589183      -0.00727844
C        5.06189303       5.68294805       3.44753694       0.00389631      -0.00052495       0.01055084
C        3.76928392       7.73875939       3.86784649       0.00142132      -0.00208666       0.00416963
C        2.50526244       9.88573163       3.85351130      -0.00464142       0.00306251      -0.00479345
C        9.88993083       1.33596748       3.77043864       0.00391978      -0.00395443      -0.00033987
C        8.67659127       3.48706544       3.66230648       0.00772769       0.00373750       0.00037367
C        7.49604494       5.64930571       3.59273753      -0.00132643      -0.00537986      -0.00936915
C        6.25216360       7.79618452       3.71873089      -0.00100492       0.00103344       0.00663024
C        4.98026210       9.89652987       3.82821600      -0.00195763      -0.00343341       0.01228475
Tc       2.68349069       4.82839117       4.41540938       0.00757106       0.01691966      -0.00709843
O        3.29173904       4.34463374       5.93226057       0.00557821      -0.00057727       0.00541480
O        1.21797008       6.29990745       6.36543702      -0.00966815      -0.00414763      -0.00265320
H        1.85419594       6.92601184       6.74208219       0.00870818       0.00686973       0.00314886
