52
Lattice="12.336457 0.0 0.0 -6.168228499999997 10.683685154694365 0.0 0.0 0.0 15.0" Properties=species:S:1:pos:R:3:forces:R:3 energy=-455.88267404346993 free_energy=-455.88267404346993 stress="-0.002757021473405711 0.0009586620313120751 2.4211125298428575e-06 0.0009586620313120751 -0.004750081864017131 -4.491331908114922e-05 2.4211125298428575e-06 -4.491331908114922e-05 9.12113321674368e-06" pbc="T T T"
C        0.04263752      -0.00490242       3.77506428       0.00067935       0.00397099      -0.00370077
C       -1.18982703       2.13149380       3.73974835      -0.00241544      -0.00342686       0.00812251
C       -2.43723388       4.26934040       3.56784283       0.00369127       0.00155521      -0.00496036
C       -3.67238751       6.40595561       3.53476644       0.00046265       0.00293692       0.00053939
C       -4.90203100       8.53820755       3.65843142       0.00315183      -0.00626715      -0.00321353
C        2.51178506      -0.01626167       3.77659825      -0.00882086      -0.00250806      -0.00005060
C        1.28567085       2.11608119       4.06405115       0.00575858      -0.00265892      -0.00088256
C       -0.02247723       4.28714593       3.92856605       0.00707638      -0.00258550       0.00357258
C       -1.21169113       6.41498558       3.63555846      -0.00306274       0.00186392       0.00196045
C       -2.43337837       8.53916153       3.58762178       0.00375745       0.00463240       0.00013781
C        4.97630561      -0.01809780       3.69380738       0.00208857      -0.00300216      -0.00697015
C        3.76754593       2.06186301       4.12364222      -0.00342111       0.01079824      -0.01133676
B        1.31254222       6.39289288       4.18130092      -0.00463489      -0.00071151      -0.00200971
C        0.03884087       8.54452185       3.70324541       0.00258847      -0.00642075       0.00294236
C        7.44511622       0.00031242       3.65678609       0.00442249      -0.00356919       0.00194659
C        6.22281527       2.12191658       3.77207615      -0.00030241      -0.00164838      -0.00148787
C        5.04848181       4.26715133       4.08234150      -0.00041305      -0.00385930       0.00938982
B        3.65411193       6.36258741       4.31844233      -0.00570542       0.00175190      -0.00159663
C        2.51008794       8.57426677       3.87408521      -0.00653368       0.00201289      -0.00211874
C        9.91678032       0.00496459       3.70574385       0.00097769      -0.00581164      -0.00003740
C        8.68204038       2.13303146       3.59505746      -0.00178166      -0.00050149      -0.00078972
C        7.44662673       4.26920456       3.60811779       0.00038333       0.00365659       0.00320420
C        6.20265427       6.40068718       3.75303981      -0.00165717      -0.00056690      -0.00015311
C        4.97016405       8.53935830       3.83763594      -0.00277658       0.00114690       0.00037949
C        0.05031817       1.42574993       3.85658099       0.00297203       0.00306723       0.00124578
C       -1.21134097       3.55053776       3.70977698       0.00478292      -0.00216394      -0.00035448
C       -2.44196122       5.69505056       3.54571987      -0.00088030       0.00317211      -0.00648580
C       -3.66992721       7.82941007       3.57229321       0.00716069      -0.00020836       0.00429009
C       -4.89333330       9.96251303       3.73253875      -0.00633751      -0.00629631      -0.00367001
C        2.52706813       1.40071312       4.00072302       0.00040802      -0.00271930       0.00417168
B        1.27638128       3.60623112       4.35051505       0.00405953      -0.00674128      -0.00261715
C       -0.01345322       5.68712590       3.86893245      -0.00336270       0.00044719       0.00255651
C       -1.20134713       7.83526303       3.62803392       0.00055879       0.00097309       0.00828750
C       -2.42876050       9.95996280       3.67278788      -0.00456767       0.00327590       0.00065835
C        4.98120356       1.40049370       3.85574190      -0.00274508       0.00128571      -0.00106455
B        3.90077668       3.45912347       4.74575196      -0.00326866       0.00187481       0.00421885
C        1.27780953       7.87187763       3.89125313      -0.00021408      -0.00462566      -0.01018008
C        0.04064057       9.96807133       3.65495248       0.00571009      -0.00666880       0.00303384
C        7.44602013       1.42245876       3.64006149       0.00015033      -0.00345560       0.00242826
C        6.23062878       3.54917724       3.79986476       0.00044776      -0.00201703      -0.00150083
C        5.00086596       5.65893278       4.01298961      -0.00193681      -0.00452832      -0.00095422
C        3.72880389       7.85346953       3.99571971      -0.00724482       0.00331019      -0.00354997
C        2.51264167       9.98792740       3.71691664       0.00183605      -0.00187596      -0.00176733
C        9.91731475       1.42515288       3.65013150      -0.00376886      -0.00660487       0.00097527
C        8.67441176       3.55618639       3.55319019       0.00156320       0.00320956       0.00051697
C        7.43400120       5.69157571       3.60077262      -0.00012133       0.00513725       0.00695422
C        6.20350187       7.82494896       3.74886334      -0.00039752      -0.00049215       0.00229976
C        4.97870455       9.97046944       3.76035230       0.00281450       0.00128926      -0.00052553
Tc       2.35372898       5.07748854       5.39396613       0.01384865       0.00506081       0.01143297
O        3.56571872       3.70385322       6.07775791       0.00390922       0.00956315      -0.01269907
O        1.50962642       5.93069138       6.86514079      -0.01236988       0.00087867       0.00259221
H        1.12200442       5.38827467       7.57045957       0.00348040       0.01506449      -0.00318056
