51
Lattice="12.336457 0.0 0.0 -6.168228499999997 10.683685154694365 0.0 0.0 0.0 15.0" Properties=species:S:1:pos:R:3:initial_magmoms:R:1:forces:R:3 energy=-453.9459486757338 free_energy=-453.9459486757338 stress="-0.004274928399509446 -0.0022359805981923405 -6.990972785125687e-05 -0.0022359805981923405 0.0005338369702713477 -0.00018573766277599836 -6.990972785125687e-05 -0.00018573766277599836 0.0004171734976139256" pbc="T T T"
C       -0.00873286       0.00959839       3.73609908       0.00000000       0.01637757       0.01268911       0.05884328
C       -1.25564310       2.11725460       3.55574746       0.00000000       0.01556644       0.05295275       0.03941625
C       -2.47320995       4.26700892       3.45082726       0.00000000       0.05352097       0.00845193       0.06561431
C       -3.68039270       6.42323499       3.59914931       0.00000000       0.01495086      -0.02581324       0.03416696
C       -4.91440586       8.57844888       3.78299389       0.00000000      -0.00978898      -0.06341701      -0.00002818
C        2.46350556       0.02629020       3.65675687       0.00000000       0.02278391      -0.04715735       0.02131826
C        1.19738583       2.17103717       3.57124756       0.00000000      -0.01208694      -0.01258362       0.11806019
C       -0.01301156       4.22882235       3.54487150       0.00000000      -0.06783305       0.00196455       0.05615611
C       -1.22923976       6.40120181       3.58696558       0.00000000      -0.03094332      -0.02018847       0.04183884
C       -2.45579788       8.55998443       3.69944498       0.00000000       0.01749548      -0.01900693      -0.00989139
C        4.93539699       0.01656175       3.71642874       0.00000000      -0.04844547       0.01947616       0.01582959
C        3.68537952       2.12864422       3.40984473       0.00000000      -0.02990398       0.03882526      -0.01161492
B        1.07506466       6.34867001       4.43665258       0.00000000       0.10901483      -0.18507404       0.04614720
C       -0.00179981       8.55030695       3.94020448       0.00000000       0.03043139       0.03872600       0.00823243
C        7.39750061       0.00182708       3.88222647       0.00000000      -0.00412225       0.00555176       0.00550932
C        6.16658241       2.14906728       3.65321384       0.00000000       0.00622665      -0.03771983       0.00171644
C        4.96785009       4.34617117       3.71467568       0.00000000       0.00109500      -0.06925860      -0.04083911
C        3.81011591       6.41517055       4.16181781       0.00000000      -0.07853243      -0.06845421      -0.00642525
C        2.44810669       8.53600377       4.16273973       0.00000000       0.05649952       0.05565458      -0.06554399
C        9.85659479      -0.00769788       3.87716274       0.00000000      -0.00389606      -0.00926347      -0.01313181
C        8.62749535       2.12895591       3.66536176       0.00000000      -0.00391290       0.03849115      -0.01960208
C        7.41982589       4.27796075       3.65231753       0.00000000      -0.02020365       0.05115937       0.03239247
C        6.24448238       6.45859094       3.87780143       0.00000000      -0.03127629       0.01320075      -0.05291320
C        4.94418165       8.56071221       4.01615176       0.00000000       0.00184154      -0.02547289       0.01202465
C       -0.02150704       1.42490828       3.60634145       0.00000000      -0.00667993       0.10669823      -0.03097156
C       -1.25294564       3.53227214       3.44022811       0.00000000       0.03965571       0.02498382       0.03973083
C       -2.46767604       5.69811424       3.47624585       0.00000000       0.00141056      -0.08005063       0.05290143
C       -3.68809998       7.85108705       3.68868212       0.00000000      -0.00338673       0.04409363      -0.04765778
C       -4.92958442       9.99652901       3.73338553       0.00000000      -0.03372342       0.01253116       0.02119486
C        2.44879465       1.44908676       3.54512177       0.00000000       0.02564708      -0.03456206      -0.04526039
N        1.16253563       3.53489757       3.69909026       0.00000000       0.03921696       0.04896349       0.19031301
C       -0.04345651       5.64824423       3.67784044       0.00000000      -0.03468836       0.04270347       0.01602758
C       -1.22899666       7.83658301       3.74382190       0.00000000       0.02706451       0.00405322       0.03288824
C       -2.46694413       9.99098198       3.70228106       0.00000000       0.00667538      -0.04489440      -0.03717857
C        4.92881459       1.43980986       3.58522594       0.00000000      -0.00210519      -0.05533973       0.02978440
P        3.70921836       3.74815883       2.59791330       0.00000000      -0.05234095       0.12543809       0.14036702
C        1.20996094       7.85712879       4.17239612       0.00000000       0.03926329      -0.00856461      -0.05210688
C       -0.00628144       9.98479944       3.86590198       0.00000000       0.01135167       0.00984785      -0.05008372
C        7.39470569       1.42511331       3.74323505       0.00000000       0.00136629       0.03220698      -0.01230069
C        6.19426413       3.56460700       3.68611882       0.00000000      -0.00189168       0.04681081      -0.05865548
C        5.02687078       5.76647761       3.94286151       0.00000000      -0.01887743       0.03648701      -0.11670192
C        3.71161000       7.82257073       4.16876910       0.00000000      -0.04692219       0.02361796      -0.09608488
C        2.45819391       9.96498419       3.99930623       0.00000000      -0.03280282      -0.02231203      -0.04631554
C        9.85416429       1.40879555       3.69136860       0.00000000      -0.01717457      -0.03911288      -0.01440930
C        8.63568880       3.55424824       3.56430160       0.00000000      -0.01262366       0.04117456       0.00808145
C        7.44025471       5.71379984       3.69767825       0.00000000       0.02664653       0.00440126      -0.01396316
C        6.19725508       7.87671051       3.91278443       0.00000000       0.02414396      -0.07842685      -0.02088067
C        4.92946133       9.97678956       3.89312498       0.00000000       0.05697136      -0.07715703      -0.03885612
Tc       2.91304581       4.62489753       4.56120578       0.00000000      -0.13872122      -0.47190982      -0.01752995
O        3.30851576       3.78776326       6.00442484       1.00000000      -0.10121975       0.13303215      -0.30608060
O        1.48931530       5.62576224       5.54536229       1.00000000       0.19888576       0.42155265       0.13647204
