51
Lattice="12.336457 0.0 0.0 -6.168228499999997 10.683685154694365 0.0 0.0 0.0 15.0" Properties=species:S:1:pos:R:3:initial_magmoms:R:1:forces:R:3 energy=-443.1068213381458 free_energy=-443.1068213381458 stress="-0.0013676404788770307 0.003906271728098214 -8.6875826902959e-06 0.003906271728098214 -0.005625363020705285 -6.454923428678245e-06 -8.6875826902959e-06 -6.454923428678245e-06 5.4066887818625355e-06" pbc="T T T"
C       -0.00880776       0.05764205       3.61274949       0.00000000      -0.00445333      -0.00178865      -0.00962014
C       -1.21540725       2.21800844       3.72189107       0.00000000      -0.00302963       0.00073015      -0.00553476
C       -2.45006540       4.33368370       3.70624673       0.00000000      -0.00112119       0.01011402       0.00252214
C       -3.72088450       6.45298189       3.60073618       0.00000000       0.00649078       0.00820791      -0.00636381
C       -4.96480367       8.58222990       3.51898705       0.00000000      -0.00586563       0.00125834       0.00249343
C        2.44507182       0.00353483       3.67409966       0.00000000      -0.00044620      -0.00919877      -0.00059217
C        1.25992764       2.18931890       3.78733106       0.00000000       0.00346423      -0.00629752       0.00054650
C        0.04324666       4.40537702       3.77887087       0.00000000      -0.00443017       0.00218821      -0.00655922
C       -1.26219125       6.48359523       3.61910547       0.00000000       0.00798916       0.00233158      -0.00449506
C       -2.48928452       8.58319101       3.58911757       0.00000000      -0.00032644      -0.00052964      -0.00204143
C        4.92972317       0.02239672       3.69789227       0.00000000      -0.00535224      -0.00279619      -0.00975159
C        3.69233909       2.07599530       3.83503585       0.00000000      -0.00295349      -0.00047452      -0.00822500
O        1.12398012       6.54992024       3.67069628       0.00000000      -0.00702386       0.00787158      -0.00348769
C       -0.03052713       8.60082010       3.55071713       0.00000000      -0.00662262      -0.00178836       0.00550642
C        7.39657827       0.05083043       3.65906195       0.00000000       0.00126347       0.00312412       0.00082833
C        6.17410327       2.16875922       3.78970704       0.00000000      -0.00465642      -0.00478297      -0.01029932
C        4.93535888       4.31171139       3.71930031       0.00000000       0.00480620      -0.00739947       0.01582392
P        3.66802055       6.34707025       2.30839602       0.00000000      -0.00088358      -0.00033754       0.00854114
C        2.41815832       8.61017325       3.39724569       0.00000000      -0.00003087      -0.00263304      -0.00346560
C        9.86277506       0.06890881       3.59062868       0.00000000       0.00518381      -0.00794606       0.00134683
C        8.64278213       2.19573125       3.72816235       0.00000000       0.00941234       0.00472856       0.00415706
C        7.40501496       4.31713906       3.70549926       0.00000000      -0.00227130       0.00405478      -0.00285917
C        6.16945078       6.46487897       3.45988492       0.00000000      -0.00589077       0.00141421      -0.00099473
C        4.90624419       8.61162598       3.34663326       0.00000000      -0.00042261      -0.00090227       0.00260555
C        0.01507310       1.49795433       3.71233795       0.00000000      -0.00254973      -0.00329081      -0.00054957
C       -1.19371680       3.64667532       3.74420739       0.00000000      -0.00683701       0.00415791       0.00227376
C       -2.48263699       5.74914961       3.64698028       0.00000000       0.00864425       0.01073627       0.00554430
C       -3.73075584       7.87304349       3.56458618       0.00000000      -0.00045404       0.00562708      -0.00213906
C       -4.96104675      10.00101255       3.59399558       0.00000000      -0.00460435      -0.00277545       0.00257968
C        2.45098163       1.41042307       3.77282486       0.00000000       0.00157549      -0.00901876      -0.00909773
B        1.43523795       3.72594028       3.87732436       0.00000000       0.00683579       0.00346719       0.01475600
C       -0.05543424       5.80213366       3.69411166       0.00000000       0.00528550       0.00468096      -0.00494926
C       -1.26393625       7.89239949       3.57554474       0.00000000      -0.00308079      -0.00203482       0.01357944
C       -2.48307131       9.99922721       3.64787207       0.00000000      -0.00123785      -0.00487341       0.00974460
C        4.94423534       1.43178100       3.78739170       0.00000000      -0.00724200      -0.00153988      -0.00825711
B        3.61832377       3.54426238       3.91067917       0.00000000       0.01012301      -0.00158129      -0.00428012
C        1.17509667       7.93546699       3.49020049       0.00000000      -0.00486063       0.00369913       0.00410207
C       -0.00592537      10.01906827       3.63290509       0.00000000      -0.00401154       0.00034205      -0.00959198
C        7.40567299       1.47529876       3.73761571       0.00000000       0.00431696       0.00556410       0.00136773
C        6.17399101       3.59390346       3.76755137       0.00000000       0.00013461      -0.00716068      -0.00915391
C        4.92699984       5.70659374       3.40760985       0.00000000       0.00177562      -0.01232802       0.00414215
C        3.65840069       7.93954951       3.16961435       0.00000000       0.00605837      -0.00099892       0.00130378
C        2.45163150      10.03406788       3.55840064       0.00000000       0.00318332      -0.00295468       0.00528054
C        9.88091226       1.49530233       3.68794364       0.00000000       0.00577934      -0.00464161      -0.00480328
C        8.64495272       3.61830487       3.72418063       0.00000000       0.00155735       0.00780258       0.00533056
C        7.38662524       5.74302569       3.60172637       0.00000000      -0.00066011       0.00946112       0.00708888
C        6.13996153       7.87832707       3.41103308       0.00000000      -0.00667474       0.00248735       0.00374284
C        4.92563884      10.03632278       3.51899696       0.00000000      -0.00039076      -0.00469388       0.00074976
Tc       2.93328727       5.33615765       4.21794132       0.00000000      -0.00132879      -0.00535372      -0.00427946
O        2.67208043       1.77505785      11.78073756       1.00000000       0.00000000       0.00000000       0.00000000
O        3.02260598       5.85680364       5.85098844       1.00000000       0.00583310       0.00607172       0.00543376
