51
Lattice="12.336457 0.0 0.0 -6.168228499999997 10.683685154694365 0.0 0.0 0.0 15.0" Properties=species:S:1:pos:R:3:initial_magmoms:R:1:forces:R:3 energy=-443.5693431778457 free_energy=-443.5693431778457 stress="-0.0023630279330047153 -0.003092942454581016 1.880771372095965e-05 -0.003092942454581016 -0.00397909861638725 8.897196344993124e-06 1.880771372095965e-05 8.897196344993124e-06 -8.31797344543839e-06" pbc="T T T"
C       -0.11681645      -0.07725828       3.49527724       0.00000000      -0.00991423      -0.00919358       0.00252132
C       -1.37077538       2.05328819       3.63051084       0.00000000      -0.00191404       0.00852558      -0.00094349
C       -2.60238063       4.19990067       3.50177204       0.00000000      -0.00305497      -0.00285094      -0.01065639
C       -3.80641765       6.34201696       3.32145317       0.00000000      -0.00144225      -0.00426407      -0.00005066
C       -5.03516038       8.48006110       3.31080609       0.00000000       0.00688446       0.00364184      -0.01313574
C        2.35667821      -0.10468756       3.58485824       0.00000000       0.00196557      -0.00320431       0.00848229
C        1.10203192       1.98918030       3.93979351       0.00000000      -0.00369205       0.00950467      -0.00623021
C       -0.19192204       4.20970480       3.96541984       0.00000000       0.00815356      -0.00532304      -0.00866538
C       -1.36454021       6.34247878       3.62200683       0.00000000       0.00054885      -0.00807901       0.00685499
C       -2.56116150       8.46864073       3.46118593       0.00000000      -0.00406998       0.00699982       0.00151574
C        4.82734533      -0.07662528       3.58869400       0.00000000       0.00516746       0.00355184       0.00925883
C        3.57103841       1.99372558       3.91652879       0.00000000       0.00132165       0.00213534      -0.01324871
B        1.07641628       6.37540541       4.27741254       0.00000000       0.00211014      -0.00577704      -0.01049966
C       -0.08942329       8.46991319       3.64427275       0.00000000      -0.00769346      -0.00359274       0.00822279
C        7.29088077      -0.06766482       3.52201582       0.00000000       0.00176347       0.00087291       0.00625150
C        6.03352715       2.09149945       3.55764267       0.00000000       0.00571544       0.00274187       0.00901795
C        4.83559205       4.32310308       3.51603447       0.00000000       0.01695201       0.00376966      -0.00428901
O        3.66782528       6.42207002       3.43908507       0.00000000       0.00338905      -0.00212735       0.00014629
C        2.39331524       8.46654353       3.58085508       0.00000000      -0.00550135      -0.00425568      -0.00839654
C        9.75282264      -0.07230441       3.45738081       0.00000000      -0.00485302       0.00731635      -0.01050302
C        8.50610357       2.07114178       3.46005588       0.00000000      -0.00104657       0.00086362      -0.00596542
C        7.27406039       4.21781121       3.34710250       0.00000000       0.00654874      -0.00225149       0.00125969
C        6.07134074       6.37792398       3.19228389       0.00000000       0.00462194       0.00060858      -0.00357432
C        4.83625749       8.48738741       3.32584270       0.00000000       0.00313585      -0.00206192       0.00203923
C       -0.13207889       1.33256019       3.69154906       0.00000000      -0.00446228      -0.00210692       0.00882732
C       -1.38344308       3.47695965       3.68523853       0.00000000      -0.00095754       0.00447921       0.00625156
C       -2.58982214       5.62614182       3.46319470       0.00000000      -0.00306121      -0.00391989       0.00259839
C       -3.79494207       7.76535963       3.34376058       0.00000000       0.00256629      -0.00235320      -0.00544088
C       -5.04521761       9.89335530       3.45209353       0.00000000      -0.00112911      -0.00824200       0.00380160
C        2.33681624       1.28765961       3.82869073       0.00000000       0.00344572       0.00232715       0.00260791
B        1.09283204       3.44855309       4.33228516       0.00000000      -0.00511755       0.00967577       0.01025223
C       -0.18998456       5.61215982       3.92523095       0.00000000      -0.00352430      -0.00316577      -0.00128680
C       -1.33061798       7.76067377       3.57934898       0.00000000      -0.00815053      -0.00388696       0.01380848
C       -2.56819522       9.88686018       3.53768831       0.00000000      -0.00119940       0.01018830      -0.01711644
C        4.81926609       1.35249131       3.68262422       0.00000000       0.00797066       0.00402376       0.01251536
P        3.40671154       3.68304856       4.28612080       0.00000000      -0.00789068      -0.00524005       0.00217104
C        1.15808445       7.78312741       3.78276375       0.00000000      -0.00642899      -0.00437095      -0.00172782
C       -0.10589306       9.89988121       3.56371745       0.00000000       0.00080490      -0.00105936      -0.00546257
C        7.27022004       1.36585704       3.49429148       0.00000000       0.00081577       0.00059440      -0.00251098
C        6.03304519       3.52566950       3.46165908       0.00000000       0.01083801       0.00046727      -0.01043533
C        4.85988392       5.71854155       3.32690720       0.00000000       0.00393437       0.00514495       0.00283973
C        3.63922009       7.78628051       3.45356586       0.00000000       0.00164136      -0.00272726       0.00059767
C        2.36429452       9.89309102       3.49419707       0.00000000       0.00049101       0.00237619       0.00524809
C        9.74165511       1.35524655       3.49590194       0.00000000      -0.00262354       0.00603378       0.00397103
C        8.50554526       3.49494363       3.41603144       0.00000000      -0.00093103      -0.00245728       0.00222595
C        7.29410409       5.63576009       3.25740081       0.00000000      -0.00040237      -0.00338934      -0.00102448
C        6.07330504       7.78895698       3.23635367       0.00000000       0.00637908       0.00254729       0.00567022
C        4.81886866       9.90743502       3.41092039       0.00000000      -0.00831068       0.00068766       0.00456692
Tc       2.02193494       4.95962082       5.40462074       0.00000000      -0.00825741       0.00427152      -0.01352858
O        7.39282471       7.29929071      12.67200435       1.00000000       0.00010698       0.00003892      -0.00017097
O        1.88614404       4.93811925       7.09868227       1.00000000      -0.00164381      -0.00748812       0.01133925
