51
Lattice="12.336457 0.0 0.0 -6.168228499999997 10.683685154694365 0.0 0.0 0.0 15.0" Properties=species:S:1:pos:R:3:initial_magmoms:R:1:forces:R:3 energy=-451.7558614609813 free_energy=-451.7558614609813 stress="-0.003241860013126751 -0.000771449237864125 -5.387202531577176e-06 -0.000771449237864125 -0.005055115622879415 1.2171593776397175e-05 -5.387202531577176e-06 1.2171593776397175e-05 -4.289022547992965e-06" pbc="T T T"
C        0.00016717      -0.00883057       3.58967013       0.00000000      -0.00128151       0.00160414      -0.00022819
C       -1.24737781       2.13033153       3.67659039       0.00000000      -0.00157197      -0.00098871       0.00125907
C       -2.47204056       4.27905749       3.52813960       0.00000000      -0.00291766      -0.00055895      -0.00031691
C       -3.68684343       6.41601852       3.45689140       0.00000000       0.00234320      -0.00090451      -0.00227549
C       -4.92573559       8.54941083       3.49515720       0.00000000      -0.00062539       0.00282208       0.00135689
C        2.46491184      -0.00642088       3.70473433       0.00000000       0.00057113       0.00239954      -0.00023300
C        1.20436739       2.06767730       4.04555344       0.00000000       0.00186508       0.00115820      -0.00246055
C       -0.07698433       4.27411694       4.00564274       0.00000000      -0.00027972      -0.00087729       0.00097562
C       -1.22678560       6.40969541       3.68776719       0.00000000       0.00030864       0.00101573       0.00065576
C       -2.45802253       8.54762972       3.58906495       0.00000000      -0.00074123      -0.00173340      -0.00219022
C        4.93359373       0.00462877       3.71512675       0.00000000      -0.00092489      -0.00172092      -0.00353956
C        3.69112565       2.12427533       4.01616307       0.00000000       0.00033543      -0.00153564      -0.00114228
B        1.31236519       6.38013120       4.25059641       0.00000000      -0.00517981       0.00910978      -0.00339614
C        0.00559498       8.54921322       3.76668161       0.00000000      -0.00058571      -0.00117946       0.00019561
C        7.39519758       0.01400186       3.62420625       0.00000000      -0.00092652       0.00198831       0.00164279
C        6.16661715       2.13973783       3.68430262       0.00000000      -0.00053339       0.00083239      -0.00186791
C        5.00260416       4.29500147       3.86933142       0.00000000      -0.00093797       0.00104520      -0.00056728
B        3.67697163       6.41199212       4.06705910       0.00000000       0.00521331       0.00779537       0.00145608
C        2.46555415       8.58342650       3.76745403       0.00000000      -0.00190193      -0.00113945       0.00311707
C        9.86692401       0.00903726       3.54856001       0.00000000       0.00178594      -0.00221321       0.00297647
C        8.62953335       2.14183019       3.51121760       0.00000000       0.00180702      -0.00111283       0.00085544
C        7.41390355       4.27811691       3.49425749       0.00000000       0.00168893       0.00046780       0.00014596
C        6.19006129       6.42354328       3.54150999       0.00000000       0.00150057      -0.00135233      -0.00026241
C        4.93793949       8.55456682       3.58454941       0.00000000       0.00250976      -0.00108115       0.00162454
C       -0.00641615       1.40826010       3.76007734       0.00000000       0.00013681      -0.00182423       0.00057374
C       -1.25653781       3.55808401       3.71496899       0.00000000      -0.00396647      -0.00128096      -0.00260004
C       -2.45826933       5.70123246       3.52854613       0.00000000       0.00270359       0.00063070       0.00023782
C       -3.68951946       7.83949599       3.49371528       0.00000000       0.00049843      -0.00529176      -0.00105356
C       -4.93047571       9.97028908       3.58201424       0.00000000       0.00288377       0.00076830      -0.00172716
C        2.44853933       1.40902746       3.93723196       0.00000000      -0.00150223      -0.00063121      -0.00091421
B        1.05381797       3.45491868       4.66678017       0.00000000      -0.00209319      -0.00544231       0.00083605
C       -0.02689100       5.66800453       3.94856201       0.00000000      -0.00067777       0.00231318       0.00016422
C       -1.22752869       7.83421088       3.68342692       0.00000000       0.00220136       0.00093608      -0.00153166
C       -2.46638380       9.97169381       3.66657053       0.00000000      -0.00016787       0.00098126      -0.00110960
C        4.92667164       1.43480347       3.80607729       0.00000000      -0.00152086       0.00169867      -0.00272963
B        3.71477439       3.61067485       4.30524900       0.00000000      -0.00071436      -0.00749429      -0.00118895
C        1.24746603       7.86423146       3.91230418       0.00000000      -0.00057975       0.00187549       0.00263838
C       -0.00294217       9.98052468       3.69027888       0.00000000      -0.00154614      -0.00088323      -0.00241059
C        7.39491156       1.43395200       3.57730571       0.00000000       0.00148111      -0.00055564      -0.00067613
C        6.18880243       3.55887123       3.65114452       0.00000000       0.00329890      -0.00197518      -0.00204705
C        4.99421753       5.69494606       3.77857796       0.00000000      -0.00049478       0.00262724       0.00050813
C        3.69845781       7.88211554       3.76811894       0.00000000       0.00228978       0.00041864       0.00141193
C        2.46282158       9.99637779       3.61499272       0.00000000       0.00074593      -0.00022754       0.00120480
C        9.86576379       1.43112515       3.54220780       0.00000000       0.00126511       0.00244736       0.00070604
C        8.63733575       3.56508598       3.47414161       0.00000000       0.00162446      -0.00079378       0.00019737
C        7.42029011       5.70385019       3.46288697       0.00000000      -0.00362026       0.00022438      -0.00053734
C        6.17871912       7.84489475       3.52393927       0.00000000      -0.00239180       0.00047117       0.00304387
C        4.93562522       9.97753459       3.54024811       0.00000000      -0.00251662       0.00171516       0.00424248
Tc       2.64767015       5.12016823       5.32446094       0.00000000      -0.02302366       0.02218412      -0.00875467
O        3.34124872       5.82303983       6.72403062       1.00000000      -0.00258105       0.00159703      -0.00769622
O        1.41122983       3.73431750       5.97964910       1.00000000       0.02674623      -0.02832934       0.02143059
