52
Lattice="12.336457 0.0 0.0 -6.168228499999997 10.683685154694365 0.0 0.0 0.0 15.0" Properties=species:S:1:pos:R:3:forces:R:3 energy=-449.88512891367 free_energy=-449.88512891367 stress="0.00025296476458523654 0.004052615624852562 8.874471631718326e-06 0.004052615624852562 -0.005475410063849757 -1.1494442623291845e-05 8.874471631718326e-06 -1.1494442623291845e-05 -4.1928960847500233e-05" pbc="T T T"
C        0.04403987      -0.02135664       3.74519978       0.00112924      -0.00608566       0.00377060
C       -1.15653016       2.14553178       3.86323253      -0.00072896       0.00017152       0.00104018
C       -2.38906234       4.25807342       3.88214104       0.01114106      -0.00386287      -0.00032454
C       -3.66434682       6.37455957       3.78940751       0.00277562      -0.00114648       0.00082666
C       -4.91193060       8.50062461       3.68286174      -0.00513047       0.00772808      -0.01314548
C        2.49848117      -0.07913286       3.76646737       0.00717843       0.00447019      -0.00014242
C        1.31508093       2.10585706       3.89452614       0.00874210      -0.00721735       0.00921645
C        0.11662528       4.33189417       3.96149561      -0.00485427      -0.00138451       0.00649034
C       -1.20078240       6.40525256       3.84999939      -0.00506590       0.00304684      -0.00392515
C       -2.43442380       8.50183323       3.76154913      -0.00300369       0.00502254       0.00781756
C        4.97978188      -0.05255732       3.81186756      -0.01175160       0.01068594      -0.00289245
C        3.73750594       2.00295860       3.89817662       0.00634507      -0.00009920       0.00411142
O        1.16053969       6.50441720       4.12703579      -0.01505889      -0.00544540       0.00382977
C        0.02032668       8.52431151       3.77670992       0.00416314       0.00564595      -0.00456674
C        7.44897896      -0.02509228       3.82799561      -0.00129089       0.00968131      -0.00770628
C        6.22461809       2.09184698       3.91791475      -0.00070841      -0.00013256      -0.01505125
C        4.97799423       4.22390558       3.89120470      -0.00374866      -0.00946091      -0.00029238
P        3.65865336       6.24569643       2.57417477      -0.00224939       0.00516091       0.00144405
C        2.47195175       8.52616554       3.64406031       0.00293821      -0.00479983      -0.00927425
C        9.91657611      -0.00674430       3.75830936       0.00859814       0.00017692       0.00898338
C        8.69796315       2.12050977       3.88047742       0.00467732       0.00098833       0.00710945
C        7.45691971       4.23835561       3.87648208       0.01185245      -0.00604658       0.00286036
C        6.22387640       6.38682453       3.65172456      -0.00687049       0.00094140      -0.00330654
C        4.95500977       8.52927977       3.53972727      -0.00759473      -0.00959033      -0.00917746
C        0.07099758       1.42122285       3.83680415       0.00195734      -0.00295463      -0.01273555
C       -1.12444781       3.57668939       3.90438282       0.00284155      -0.00209693       0.00017853
C       -2.42189100       5.67296439       3.84527312       0.00446360      -0.00534155      -0.00203868
C       -3.67634169       7.79279502       3.74130132      -0.00426666       0.00276574      -0.00717505
C       -4.90976553       9.91952231       3.72101868       0.00711291       0.00567575       0.00584802
C        2.50411347       1.32804557       3.84357046       0.01338168      -0.00231351       0.00666319
B        1.51677706       3.64164572       4.03388550      -0.00920735      -0.00231888       0.00375691
C        0.01356935       5.73164201       3.94331020      -0.01092551      -0.00256425      -0.00254584
C       -1.20846292       7.81283144       3.79923000      -0.00039480       0.00624527      -0.00760935
C       -2.42898532       9.91866305       3.76896403      -0.00317387       0.00475744       0.00250944
C        4.99006001       1.35938916       3.87396913      -0.00189955       0.00485872       0.01219040
B        3.62613507       3.47386542       4.04267236       0.00485965      -0.00304258      -0.00742669
C        1.22619090       7.84890332       3.77056781       0.00148816      -0.00797673      -0.00433817
C        0.04540515       9.94316734       3.79888099      -0.01013835       0.01180205      -0.00273392
C        7.45849146       1.39963254       3.88472002       0.00207339       0.00658344      -0.00400784
C        6.22423129       3.51375987       3.92607094       0.00611027      -0.00515222       0.00043993
C        4.98286243       5.62962074       3.60033719      -0.00928840      -0.00592839       0.01240765
C        3.70607485       7.85854759       3.39277196      -0.00310780      -0.00985378      -0.01485389
C        2.50516465       9.95492770       3.75570613       0.00477334       0.00268279      -0.00107515
C        9.93731856       1.42193985       3.83602869       0.00171879       0.00291383       0.01885377
C        8.70124683       3.54267425       3.88856543       0.01538491      -0.00308672       0.00296715
C        7.44152936       5.66571855       3.78606413      -0.00073399      -0.00146005       0.00023741
C        6.19087692       7.79631274       3.59706801      -0.00928628       0.00273093      -0.00336743
C        4.97708554       9.95799471       3.68525703       0.00052916      -0.01013343      -0.01202252
Tc       3.09707108       5.29348635       4.59300096       0.00716197       0.00571793       0.00759369
O        2.88242409       6.35907974       6.17090999      -0.00837190       0.00796058       0.00563463
O        1.76902671       5.42614030       6.41749450      -0.00568466      -0.00079183      -0.00130526
H        2.06604440       4.95868818       7.22813769       0.00113795       0.00187274       0.01625930
