52
Lattice="12.336457 0.0 0.0 -6.168228499999997 10.683685154694365 0.0 0.0 0.0 15.0" Properties=species:S:1:pos:R:3:initial_magmoms:R:1:forces:R:3 energy=-463.3290847845254 free_energy=-463.3290847845254 stress="-0.004538571049783657 -0.00048063879547215264 -7.145537640611995e-07 -0.00048063879547215264 -0.00364834172311616 9.478385504650598e-06 -7.145537640611995e-07 9.478385504650598e-06 -9.872881655156332e-05" pbc="T T T"
C       -0.00572408      -0.05178471       3.57334718       0.00000000      -0.00037042      -0.00049015       0.00024359
C       -1.24791126       2.07801305       3.57665668       0.00000000      -0.00127522      -0.00086440       0.00044322
C       -2.48430466       4.22044219       3.57634269       0.00000000      -0.00074972      -0.00096237       0.00014442
C       -3.70855250       6.36170923       3.57532410       0.00000000      -0.00028304       0.00045074      -0.00018135
C       -4.93599598       8.50003333       3.58292318       0.00000000      -0.00069984       0.00204881       0.00053786
C        2.46436861      -0.04469592       3.62064612       0.00000000       0.00113064       0.00088050       0.00030291
C        1.21740491       2.07937263       3.75935655       0.00000000       0.00122977       0.00112375       0.00000853
C       -0.04639612       4.20006081       3.85452498       0.00000000      -0.00025831      -0.00039692      -0.00021626
C       -1.25213683       6.35660979       3.73942603       0.00000000       0.00108301      -0.00004204       0.00058235
C       -2.46860858       8.49839174       3.60799960       0.00000000      -0.00054290      -0.00015002      -0.00003625
C        4.93103138      -0.04656484       3.59955619       0.00000000       0.00016875      -0.00170956      -0.00049571
C        3.70535751       2.08233660       3.76889078       0.00000000       0.00062474      -0.00070355      -0.00040055
B        2.45892989       4.21815890       4.28720624       0.00000000      -0.00001866      -0.00063400       0.00222147
B        1.20937448       6.37321557       4.28332414       0.00000000      -0.00186877      -0.00042388       0.00191831
C       -0.00730392       8.50862084       3.72957577       0.00000000      -0.00040717       0.00078835      -0.00000534
C        7.39730896      -0.04636201       3.56566502       0.00000000       0.00053264      -0.00032156      -0.00028114
C        6.16680268       2.08649950       3.59121654       0.00000000      -0.00115342       0.00250438      -0.00020778
C        4.96000843       4.21933229       3.84325429       0.00000000       0.00162051       0.00054832      -0.00030777
C        3.75482297       6.39475954       4.14722554       0.00000000       0.00321002       0.00279833      -0.00288867
C        2.47161433       8.52150755       3.79943030       0.00000000       0.00071026       0.00027451       0.00021995
C        9.86565420      -0.05022806       3.54628470       0.00000000      -0.00025819       0.00008341       0.00046393
C        8.62827209       2.08550549       3.50154435       0.00000000       0.00122566      -0.00109315      -0.00051288
C        7.39805683       4.22501155       3.57256030       0.00000000       0.00037355      -0.00153518       0.00032425
C        6.17080817       6.36335156       3.69090539       0.00000000       0.00058966      -0.00140118      -0.00056581
C        4.93500786       8.50053551       3.66853492       0.00000000       0.00069605      -0.00165309       0.00056989
C       -0.01245766       1.36784281       3.61933577       0.00000000      -0.00093041      -0.00108825       0.00037062
C       -1.26264343       3.49743022       3.64341433       0.00000000       0.00042244       0.00223279      -0.00012178
C       -2.48325086       5.64581923       3.61124877       0.00000000       0.00051217      -0.00220982      -0.00043346
C       -3.70418695       7.78674838       3.58226099       0.00000000       0.00106656      -0.00017425      -0.00040161
C       -4.93790299       9.92365833       3.58535964       0.00000000      -0.00031452       0.00005475       0.00010284
C        2.46357718       1.37432710       3.72605599       0.00000000      -0.00064459      -0.00108742       0.00047273
C        1.17369476       3.48564183       3.95463063       0.00000000      -0.00006153       0.00002081       0.00063738
C       -0.06020564       5.61533930       3.93915643       0.00000000      -0.00052129      -0.00052231      -0.00051386
C       -1.24000722       7.78691486       3.70065769       0.00000000       0.00056807       0.00160891      -0.00050659
C       -2.46985093       9.92439374       3.60362792       0.00000000       0.00051422       0.00041867      -0.00045783
C        4.93432761       1.37506253       3.63720220       0.00000000      -0.00188110      -0.00157946      -0.00055541
C        3.74905983       3.49512549       3.95730799       0.00000000      -0.00048183      -0.00035387       0.00051617
C        1.23695878       7.84302491       3.91643993       0.00000000      -0.00048993       0.00099479       0.00019054
C       -0.00462185       9.92876453       3.61067831       0.00000000      -0.00053186      -0.00012618      -0.00086246
C        7.39671402       1.37530631       3.52404565       0.00000000       0.00199021      -0.00179912      -0.00028303
C        6.17625463       3.50916563       3.64427262       0.00000000      -0.00041467       0.00115330      -0.00069330
C        4.95358884       5.64618993       3.88890982       0.00000000       0.00264685      -0.00207975      -0.00085725
C        3.70348916       7.80197772       3.85600938       0.00000000       0.00129289       0.00271065      -0.00085812
C        2.46594422       9.93306139       3.60255268       0.00000000       0.00029034       0.00158691      -0.00059166
C        9.85945504       1.37056345       3.51104321       0.00000000       0.00089806      -0.00059258       0.00063954
C        8.62494659       3.50934003       3.52164218       0.00000000      -0.00132311       0.00174346       0.00034104
C        7.39569751       5.64968538       3.59615559       0.00000000      -0.00048577       0.00182080       0.00003038
C        6.16933903       7.78825461       3.64661807       0.00000000      -0.00193816       0.00122345      -0.00114357
C        4.92995484       9.91910334       3.57619241       0.00000000      -0.00078728      -0.00065112       0.00060588
Tc       2.61621471       5.75776326       5.67244220       0.00000000      -0.01166679       0.01072101      -0.17059520
O        3.06734665       6.40332454       7.45825400       1.00000000       0.00220855       0.00064929      -0.02178424
O        2.15667966       7.27086903       6.84293566       1.00000000       0.00475286      -0.01379552       0.19487111
