52
Lattice="12.336457 0.0 0.0 -6.168228499999997 10.683685154694365 0.0 0.0 0.0 15.0" Properties=species:S:1:pos:R:3:forces:R:3 energy=-452.4164802728725 free_energy=-452.4164802728725 stress="1.5785969780326337e-05 -0.00289527811186248 2.2567171968077246e-05 -0.00289527811186248 -0.0037245787984927533 -3.0194232589025015e-06 2.2567171968077246e-05 -3.0194232589025015e-06 -1.244122890371828e-05" pbc="T T T"
C        0.00652908      -0.05505876       3.70194360      -0.00182201       0.00511379       0.00240655
C       -1.24055232       2.08239496       3.77849798      -0.00480493       0.00337761      -0.00687313
C       -2.47170777       4.22262178       3.68958686       0.00122617       0.00016759      -0.00129309
C       -3.68503042       6.36191570       3.56799676      -0.00612964       0.00317450       0.00168495
C       -4.91527049       8.49620754       3.56445647       0.00127079      -0.00604453      -0.00402887
C        2.47952483      -0.09288945       3.80389166      -0.00127594      -0.00076846      -0.00348594
C        1.23819107       2.02313601       4.01960303       0.00052872       0.00218518       0.00385852
C       -0.02251161       4.23086793       4.03395014       0.00159388       0.00331771       0.00887442
C       -1.23667645       6.36246849       3.84357223      -0.00834078      -0.00043273      -0.00192233
C       -2.43854642       8.48669820       3.72427227       0.00579776      -0.00221691       0.00026812
C        4.94890686      -0.05305013       3.84896999       0.00599123      -0.00286549      -0.00229644
C        3.68218586       2.02060315       4.10790223       0.00702975       0.00245100       0.00131615
B        1.20414804       6.37860282       4.51018401      -0.00258053       0.00538584      -0.00090572
C        0.03488278       8.49217470       3.91178896      -0.00056471       0.00098511      -0.00124988
C        7.41205352      -0.04089021       3.78030795       0.00182542      -0.00038181      -0.00337348
C        6.15106846       2.11777235       3.78759417      -0.00064474       0.00607539       0.00465971
C        4.92308115       4.34216994       3.67926173      -0.00151148       0.00190552       0.00303484
O        3.77752833       6.44916023       3.55595165       0.00476745       0.00135335      -0.00697124
C        2.51285265       8.48876431       3.82605928       0.00185448      -0.00165234      -0.00330054
C        9.87376435      -0.04568382       3.68490370       0.00416593      -0.00494892       0.00383672
C        8.62737707       2.09742853       3.67696924      -0.00406212      -0.00788771       0.00553330
C        7.38751532       4.23960496       3.57516480       0.00306100       0.00350446       0.00646103
C        6.18953612       6.39788566       3.42663572      -0.00550799      -0.00411676      -0.00885546
C        4.95650540       8.51072977       3.57260212       0.00702707      -0.00162804      -0.00128086
C       -0.00230001       1.36308589       3.83371712      -0.00375909       0.00529912       0.00491855
C       -1.23760281       3.50511290       3.81249427       0.00224133       0.00360523       0.00012851
C       -2.46370472       5.64737536       3.68167543      -0.00868738       0.00114842       0.00090191
C       -3.67379920       7.78344485       3.60287652       0.00447554      -0.00054131      -0.01038096
C       -4.92475146       9.90965878       3.68095191      -0.00350775      -0.00529363       0.00309469
C        2.45986002       1.30381859       3.98909263       0.00324123       0.00201434       0.00284499
B        1.31963074       3.51478103       4.28983859       0.00225472      -0.00155097      -0.00509640
C       -0.05152634       5.63156426       4.09146683      -0.00890763       0.00039955       0.00579185
C       -1.20718655       7.78097183       3.83821076       0.00281198      -0.00118727       0.00363236
C       -2.44409874       9.90426578       3.78920433       0.00320408      -0.00248364       0.00660800
C        4.93660151       1.37952043       3.92034070       0.00523204      -0.00022443       0.00054438
P        3.40937177       3.73183011       4.38609148       0.00241886       0.00866457      -0.00834588
C        1.28147830       7.80400865       4.04391880      -0.00315814       0.00799547       0.00119283
C        0.01612304       9.92470583       3.83374538       0.00435926      -0.00111804      -0.00539805
C        7.39055346       1.39323738       3.73383817      -0.00556174      -0.00205851       0.00712744
C        6.13566226       3.55225922       3.67168105       0.00070178       0.00536371      -0.00332974
C        4.96747723       5.73846293       3.49571524      -0.00270813      -0.00235090      -0.00574544
C        3.75622758       7.80725913       3.66248494       0.00599432      -0.00084868      -0.01000688
C        2.48453199       9.91870783       3.74465355       0.00389820      -0.00241395      -0.00181156
C        9.86561183       1.38271898       3.69609433      -0.00291055      -0.00371152       0.01007940
C        8.62669743       3.52035215       3.63163109       0.00354775      -0.00514847      -0.00131753
C        7.41248414       5.65774075       3.49721541      -0.00597329       0.00293011      -0.00190333
C        6.19256782       7.80791649       3.48633762       0.00108330      -0.00630783       0.00441077
C        4.94077377       9.93136756       3.64481236       0.00317884      -0.00139335      -0.00217712
Tc       2.24875367       5.07890397       5.75359769       0.00534036      -0.00539253       0.00689558
O        3.48034089       6.15915746       6.30759183      -0.00980741      -0.00468423      -0.00766740
O        1.18177472       4.45948012       7.18073385       0.00023342       0.00488659       0.01397455
H        0.93655767       5.05472654       7.90937991      -0.00813067      -0.00165120      -0.00506286
