53
Lattice="12.336457 0.0 0.0 -6.168228499999997 10.683685154694365 0.0 0.0 0.0 15.0" Properties=species:S:1:pos:R:3:forces:R:3 energy=-461.2529511770405 free_energy=-461.2529511770405 stress="-0.00211586056072187 0.0036588827219893177 -7.285945373682038e-05 0.0036588827219893177 0.0007029738353563784 -4.465143912304165e-06 -7.285945373682038e-05 -4.465143912304165e-06 1.2653862327295413e-05" pbc="T T T"
C       -0.00917678       0.00668680       3.68165563       0.01269865      -0.00467167       0.01068299
C       -1.21891037       2.15252064       3.57513656      -0.00211734      -0.00244886      -0.00228281
C       -2.44258328       4.28210458       3.51945629      -0.00453325      -0.01299009       0.00458528
C       -3.70353792       6.41101693       3.61546396       0.00245528       0.00913189       0.00253450
C       -4.95816743       8.54615057       3.72398003      -0.00424811      -0.00371647       0.00248213
C        2.45302432       0.01413450       3.67263645       0.00621451      -0.00127565      -0.00800782
C        1.23556525       2.17502999       3.78168285       0.00235163      -0.00456193      -0.00854592
C        0.02559376       4.33027420       3.63329144       0.01029185       0.01575766       0.00560608
C       -1.24503246       6.43185053       3.48081181      -0.01049475      -0.00288422       0.00704274
C       -2.48796647       8.55663802       3.54425370       0.00143366       0.00012855      -0.00465333
C        4.92932722       0.00282378       3.52280310       0.00700220      -0.00284957       0.00884326
C        3.72152664       2.12295274       3.77476182       0.00872602       0.00128907       0.00370930
B        2.53805611       4.30849674       4.33890698      -0.00446419      -0.00859271      -0.01440456
O        1.11957117       6.47612544       3.27076301      -0.01150729       0.00408979       0.00524730
C       -0.02579366       8.55071405       3.42170772       0.00427890       0.00187575       0.00164560
C        7.40452449      -0.01354577       3.44078588       0.00363587       0.01270874      -0.00753523
C        6.19780039       2.11293765       3.56800915       0.00262926       0.00180518       0.00452274
C        5.01808459       4.21029122       3.93758762      -0.00612632       0.00439877      -0.01097522
P        3.47816052       6.24862481       4.62393886      -0.00657825      -0.00242228      -0.01264024
C        2.42285684       8.52145139       3.57463330      -0.00744604      -0.00342612      -0.00689270
C        9.86803110      -0.01017581       3.54804340      -0.00372582      -0.00724872       0.00615420
C        8.65737841       2.12996607       3.48785972      -0.00652199       0.00372078      -0.01570679
C        7.44033396       4.26127990       3.63273483      -0.01144843       0.00522411       0.00014391
C        6.18877963       6.39541704       3.90346598       0.00516188      -0.00234641       0.01579113
C        4.90152819       8.53155570       3.82668605      -0.00288407      -0.00248438      -0.00567123
C        0.00508986       1.44089397       3.66829449       0.00197970      -0.00459970       0.00023559
C       -1.20692420       3.58760014       3.54715680       0.00948995       0.00498190       0.00621549
C       -2.46592073       5.70251465       3.53425250      -0.00871875      -0.00959872       0.00099364
C       -3.72174516       7.83912196       3.63235593      -0.00208272       0.00757464      -0.00347297
C       -4.94961617       9.97675737       3.69866349       0.00866901      -0.00628799      -0.00063898
C        2.46473443       1.43698113       3.76151077       0.00723130       0.00026761      -0.01224482
C        1.22601065       3.61694481       3.89744814      -0.00351046      -0.00724341       0.01244584
C       -0.02671238       5.75148781       3.49634997      -0.00359742       0.00887757      -0.00596931
C       -1.26244332       7.85085609       3.46257711       0.00083334      -0.00134329      -0.00711405
C       -2.48404009       9.98465977       3.57546017       0.00522919      -0.00224955       0.00909010
C        4.95042621       1.41446638       3.60629118       0.00801900      -0.00212128       0.00251298
C        3.78818106       3.51757415       3.98770565      -0.00072509      -0.00018165       0.01324365
C        1.17150250       7.84325476       3.43935660      -0.00388691      -0.00526090       0.00255708
C       -0.00514867       9.97550368       3.44720280       0.00879476       0.00564511      -0.00056393
C        7.42316078       1.41074001       3.47387538       0.00194199       0.00899416       0.00870994
C        6.22844044       3.52594045       3.68755537      -0.00826573       0.00170512      -0.00387523
C        5.02864999       5.61568038       4.12716535      -0.00272737       0.00068864      -0.00818819
C        3.63592815       7.85429013       3.90790155      -0.00958403       0.00209933       0.00239233
C        2.45771528       9.95061938       3.48521297      -0.00763461      -0.00083691      -0.00330522
C        9.88565778       1.42216299       3.51480205      -0.00869962      -0.00411427       0.00604959
C        8.66530301       3.55554726       3.52757499      -0.01518574      -0.00115911       0.00011481
C        7.41864869       5.68790268       3.71421443       0.00321380       0.00784493      -0.00452510
C        6.14937065       7.82548988       3.84784905      -0.00410856      -0.00502206       0.00173629
C        4.92401615       9.96365970       3.67252507       0.00708265      -0.00128242       0.00692695
Tc       2.21162800       5.30103643       6.14157029       0.00875028      -0.00112459      -0.00685782
O        2.09571335       5.40240404       7.88188091       0.00699761       0.00101603      -0.00592405
O        1.44878661       5.66260516       9.10981473      -0.00241312       0.00939230       0.01239140
H        2.12473661       5.35252799       9.74443201       0.01812367      -0.00487267      -0.00461132
