52
Lattice="12.336457 0.0 0.0 -6.168228499999997 10.683685154694365 0.0 0.0 0.0 15.0" Properties=species:S:1:pos:R:3:initial_magmoms:R:1:forces:R:3 energy=-460.1982124345401 free_energy=-460.1982124345401 stress="-0.0006659291466359438 0.005595250527759026 -5.059719938888778e-05 0.005595250527759026 0.0014005462582996184 7.486399648129116e-05 -5.059719938888778e-05 7.486399648129116e-05 -0.00017548884471988162" pbc="T T T"
C        0.01456116       0.00120617       3.70686292       0.00000000      -0.00182478      -0.01187531      -0.01564995
C       -1.18441194       2.16120042       3.61056395       0.00000000       0.00783188       0.01503543      -0.01445610
C       -2.40251167       4.29966209       3.69693725       0.00000000      -0.01160187      -0.00343303      -0.00724177
C       -3.66927904       6.42639232       3.83620601       0.00000000      -0.02039080      -0.00930791       0.01815217
C       -4.94315362       8.54822136       3.82144967       0.00000000      -0.00364372      -0.00493557       0.02524936
C        2.48187437       0.01221133       3.68726918       0.00000000      -0.00480807       0.01645663       0.04905934
C        1.27392284       2.14817901       3.78158779       0.00000000      -0.02110358       0.00558552      -0.01969713
C        0.05788185       4.34231220       3.73209040       0.00000000      -0.00634736      -0.01316540       0.01627607
C       -1.21044207       6.46858106       3.77211260       0.00000000       0.01800818      -0.00622253      -0.00435775
C       -2.46585677       8.56687504       3.65535897       0.00000000       0.01288296       0.00625788       0.01637648
C        4.96102577       0.01041225       3.55794500       0.00000000       0.00640247       0.01946280      -0.00441647
C        3.76455883       2.12635079       3.79119629       0.00000000      -0.01095147       0.00644827      -0.02501925
B        2.59650785       4.35677294       4.15072630       0.00000000       0.02173445       0.03299122       0.00251450
O        1.09098998       6.51579206       2.97091008       0.00000000      -0.03257547       0.00107624      -0.01335836
C       -0.00519317       8.57262546       3.39871949       0.00000000       0.01340336       0.01028385      -0.00692742
C        7.43887650       0.00437857       3.42662753       0.00000000      -0.01307824       0.01644917      -0.01191693
C        6.23934957       2.12331361       3.66550111       0.00000000      -0.00100297       0.01561670       0.02035324
C        5.07131441       4.21924111       4.08371987       0.00000000       0.00068851      -0.00598720      -0.00798330
P        3.38781410       6.22455948       4.59805454       0.00000000       0.03100903       0.00202266      -0.03354246
C        2.45018066       8.52926433       3.44151559       0.00000000       0.00828820      -0.01949543      -0.03281502
C        9.89925599      -0.00214796       3.53450516       0.00000000       0.00251457       0.00891648       0.00463493
C        8.69665148       2.14898877       3.55950844       0.00000000       0.00790717      -0.01311062       0.01916308
C        7.48618828       4.27405958       3.83803992       0.00000000       0.00199293      -0.01129933      -0.01188142
C        6.20252124       6.39822276       4.10256919       0.00000000      -0.01879320       0.00340011       0.02546747
C        4.90395755       8.52155130       3.84400746       0.00000000       0.00316455      -0.02167261      -0.00356636
C        0.04145205       1.43715938       3.68713843       0.00000000      -0.00598616      -0.00580466      -0.00577790
C       -1.17945303       3.59783677       3.62886102       0.00000000      -0.00705663       0.01126897      -0.00803955
C       -2.41837795       5.72868100       3.78744793       0.00000000      -0.00320525      -0.00584024       0.00474985
C       -3.69759356       7.84978082       3.78712469       0.00000000      -0.00221203      -0.01065634      -0.00785117
C       -4.92607525       9.97599947       3.73502640       0.00000000      -0.00399108      -0.00686135       0.02418696
C        2.50199570       1.43528222       3.75395796       0.00000000      -0.02186578       0.01228083       0.00063012
C        1.26405071       3.61375678       3.90023515       0.00000000       0.00272889      -0.00188258      -0.01426217
C        0.08534868       5.80582591       3.75650071       0.00000000       0.01710319       0.01302158       0.02951797
C       -1.23658924       7.86470930       3.60034674       0.00000000       0.02445797       0.00720517       0.00446711
C       -2.45484235       9.98925149       3.61739401       0.00000000       0.01322861       0.01780676       0.02020072
C        4.99049604       1.42015650       3.65952365       0.00000000      -0.00438550       0.01993561      -0.00929639
C        3.84054283       3.52507553       3.97877336       0.00000000       0.00273483      -0.00815439       0.01361624
C        1.18724381       7.86615802       3.23981980       0.00000000      -0.00655391      -0.01474455       0.01790950
C        0.02425895       9.99062590       3.44452203       0.00000000      -0.00126962       0.01667452      -0.00798586
C        7.46212647       1.42692261       3.52949831       0.00000000      -0.00490650       0.00922109      -0.00352849
C        6.27846074       3.53126168       3.86062060       0.00000000      -0.00045050       0.00573891      -0.00826498
C        5.05297259       5.61762889       4.35011014       0.00000000       0.00229613      -0.01130747      -0.00707700
C        3.62834627       7.83695862       3.84750391       0.00000000       0.01992117      -0.02409765      -0.01983524
C        2.49080525       9.96422103       3.42442829       0.00000000      -0.01247137       0.00361407      -0.00066926
C        9.92084564       1.43417310       3.53913580       0.00000000       0.02038688       0.00956665       0.02709099
C        8.70790882       3.57331802       3.68137882       0.00000000       0.00104160      -0.01392789       0.00730169
C        7.45354098       5.69991406       3.93693950       0.00000000      -0.02545132      -0.00550992       0.01777902
C        6.15850613       7.82780191       3.95414397       0.00000000      -0.00885530       0.00130318       0.01476690
C        4.94436070       9.95852296       3.68574379       0.00000000       0.00297478      -0.01405355      -0.04312002
Tc       1.18586759       5.10971786       5.47602853       0.00000000      -0.01280670       0.00235759      -0.37638527
O        2.73231060       6.34114866       6.05130190       1.00000000      -0.01245887      -0.00506794      -0.01001299
O        0.15394154       4.41536498       6.65161885       1.00000000       0.03734571      -0.04158439       0.35547224
