51
Lattice="12.336457 0.0 0.0 -6.168228499999997 10.683685154694365 0.0 0.0 0.0 15.0" Properties=species:S:1:pos:R:3:initial_magmoms:R:1:forces:R:3 energy=-454.136030461131 free_energy=-454.136030461131 stress="-0.001035545176452335 -0.003506160721401957 -1.6016991685655208e-05 -0.003506160721401957 0.00872380932518741 -3.942891116545343e-06 -1.6016991685655208e-05 -3.942891116545343e-06 2.688255128011879e-06" pbc="T T T"
C       -0.00104975       0.00329869       3.65890590       0.00000000      -0.00094839      -0.00462413       0.00071746
C       -1.26779150       2.10787844       3.58387947       0.00000000      -0.00789934      -0.00198998      -0.00284215
C       -2.49039710       4.26171145       3.55862005       0.00000000      -0.00716177      -0.00422306      -0.00205234
C       -3.68817562       6.41641188       3.57570995       0.00000000      -0.00131953       0.00283130       0.00365233
C       -4.91778646       8.56861681       3.62211250       0.00000000       0.00190487       0.00383171      -0.00452860
C        2.46446510       0.05852981       3.77635938       0.00000000      -0.00174326      -0.00185641       0.00097435
C        1.17640240       2.14406112       3.70521335       0.00000000       0.01261936       0.00355425       0.00759393
C       -0.07191917       4.22495746       3.62517986       0.00000000      -0.00575608       0.00774561      -0.00114464
C       -1.23829250       6.39433253       3.68331665       0.00000000      -0.00426084      -0.00254651       0.00548484
C       -2.45924348       8.56335987       3.72976199       0.00000000       0.00347537       0.00719063       0.00410982
C        4.93108351       0.01438078       3.84676361       0.00000000      -0.00089687       0.00018018      -0.00595971
C        3.68325043       2.23490866       3.96643374       0.00000000       0.00190987       0.00089942      -0.00597951
C        1.17689686       6.30997790       4.14726946       0.00000000       0.00490789      -0.00035768       0.00575441
C        0.01741787       8.50685776       3.87089235       0.00000000       0.00311558      -0.00636097      -0.00055384
C        7.40147083      -0.03776582       3.79381974       0.00000000       0.00781132       0.00196239       0.01557829
C        6.15978648       2.13936346       3.76541114       0.00000000      -0.00052069       0.00341099      -0.00369308
C        4.94234080       4.32123298       3.78633744       0.00000000      -0.00005247       0.00086072      -0.00248861
O        3.81697875       6.44065768       3.61574402       0.00000000      -0.00590368      -0.00811898       0.01028545
C        2.49544331       8.46092957       3.84345437       0.00000000      -0.00634715      -0.00442652      -0.00438070
C        9.85348809      -0.04311102       3.68559400       0.00000000       0.00336832      -0.00499436       0.00076393
C        8.61369173       2.11252825       3.63635281       0.00000000      -0.00177379       0.00481343       0.00022050
C        7.39596515       4.27258283       3.58375481       0.00000000       0.00511068      -0.00566477       0.01026467
C        6.20313252       6.43404622       3.54061807       0.00000000       0.00049635      -0.00441290      -0.00994600
C        4.95385811       8.53598799       3.63004890       0.00000000      -0.00603740      -0.00330166       0.00075786
C       -0.02229103       1.42702197       3.64123738       0.00000000       0.00293325      -0.00876306      -0.00721432
C       -1.27100450       3.52841691       3.55146780       0.00000000      -0.00596884      -0.00293709      -0.00395537
C       -2.46414324       5.68945248       3.58783274       0.00000000      -0.00579095       0.00569538       0.00500331
C       -3.68244825       7.84936367       3.63363331       0.00000000       0.00466125      -0.00267597      -0.00190596
C       -4.92233826      10.00563335       3.68567509       0.00000000      -0.00085510      -0.00380256      -0.00372131
C        2.43605870       1.50153672       3.84504002       0.00000000       0.00713588      -0.00030588       0.00021569
O        1.11512901       3.52230449       3.62511965       0.00000000      -0.00209725       0.00435487       0.00495731
C       -0.01075563       5.64113421       3.79431117       0.00000000      -0.00501245       0.00898033      -0.00548869
C       -1.22856616       7.82265134       3.76952159       0.00000000      -0.00205234      -0.00555556      -0.00050721
C       -2.47099826       9.99911027       3.79866843       0.00000000      -0.00117213       0.01059171      -0.00576779
C        4.91368613       1.45514738       3.86680166       0.00000000      -0.00425254       0.01267902       0.00522958
C        3.75484816       3.65324993       4.14207443       0.00000000       0.00175695      -0.00391710       0.00727669
C        1.24820990       7.72806357       3.97036467       0.00000000       0.00557636      -0.00619490      -0.01663228
C       -0.00050281       9.94729780       3.84649756       0.00000000       0.00283052       0.00556738      -0.00833778
C        7.39016902       1.39810775       3.72749209       0.00000000      -0.00221335       0.00289116      -0.00155538
C        6.16983067       3.56797490       3.67755233       0.00000000       0.00354239      -0.00917685       0.00379861
C        5.00385237       5.73755954       3.61531783       0.00000000      -0.00148463      -0.00186304      -0.00431010
C        3.75505694       7.81869008       3.69783177       0.00000000      -0.00026596      -0.00741415       0.00322203
C        2.46639116       9.90356452       3.77339388       0.00000000       0.00993923       0.00267344       0.00084176
C        9.84932228       1.39377642       3.62898136       0.00000000      -0.00254125      -0.00062786      -0.01013000
C        8.61990462       3.54549475       3.57884252       0.00000000       0.00508122       0.00009830      -0.00288811
C        7.42247658       5.70037052       3.55193992       0.00000000      -0.00270521       0.00374961      -0.00119567
C        6.19972243       7.85470634       3.57053437       0.00000000      -0.00775930       0.00726806       0.01236553
C        4.93253513       9.95945752       3.65596980       0.00000000      -0.00310337       0.00370241       0.00214247
Tc       2.46685151       4.98115605       5.11939227       0.00000000       0.00292218      -0.00535908       0.01766871
O        3.43536698       5.99651195       6.11270793       1.00000000       0.00034631       0.00472155      -0.00031347
O        1.50418900       3.96857109       6.12157814       1.00000000       0.00645075       0.00121721      -0.01138691
