52
Lattice="12.336457 0.0 0.0 -6.168228499999997 10.683685154694365 0.0 0.0 0.0 15.0" Properties=species:S:1:pos:R:3:forces:R:3 energy=-453.9207443893842 free_energy=-453.9207443893842 stress="0.0016892330925841084 0.0026361366387305024 -1.0927492131007403e-05 0.0026361366387305024 0.001478542558307817 -1.2053729744647796e-06 -1.0927492131007403e-05 -1.2053729744647796e-06 2.6996462268705388e-05" pbc="T T T"
C       -0.00755404      -0.07337739       3.79462295      -0.00039226      -0.00140998       0.00924843
C       -1.23325467       2.06684250       3.85377013      -0.00371730      -0.00547493      -0.00404270
C       -2.46169940       4.19993729       3.90098862      -0.00034525      -0.00173287       0.00352787
C       -3.71730155       6.32823331       3.87379606       0.00321480       0.00945430      -0.00095025
C       -4.95775085       8.46563704       3.81500423       0.00696164       0.00178904       0.00198214
C        2.44629424      -0.03254091       3.77496415      -0.00448727      -0.00147426       0.00364192
C        1.19813426       2.08416907       3.77338893      -0.00310168      -0.00334552       0.00630482
C        0.00293016       4.16552251       3.91593855      -0.00075884      -0.00358622       0.00011649
C       -1.22786216       6.31609794       3.91294807      -0.00135490       0.00448015       0.01176092
C       -2.49690052       8.46955505       3.84424538       0.00310290       0.00802659      -0.00251519
C        4.90451661      -0.07728344       3.77922155       0.00073913      -0.00687212      -0.00653693
C        3.72271233       2.05872844       3.64887383       0.00151836      -0.00066723      -0.00520498
C        1.24397903       6.35567596       3.99353476       0.00014605      -0.00124266      -0.00775936
C       -0.04298722       8.47429416       3.81752960      -0.00344367      -0.00282647      -0.00415707
C        7.37768264      -0.07598614       3.78099752       0.00692573      -0.00473417       0.00159259
C        6.16452630       2.03622368       3.74309353       0.00637500      -0.00044900      -0.00036765
C        4.96629726       4.09069342       3.59442014      -0.00835893       0.00611582       0.01140804
P        3.55504549       6.24938675       2.69622710       0.00229897      -0.00566312       0.00536081
C        2.40952401       8.50029452       3.72195776      -0.00820293       0.00506271       0.00855465
C        9.85912561      -0.07108341       3.78569526       0.00363814       0.00161341      -0.00182910
C        8.63274480       2.05831492       3.82710794       0.00346898      -0.00190677      -0.00532280
C        7.40500662       4.18412250       3.82225964       0.00131267       0.00311832       0.00130068
C        6.13745652       6.30617734       3.80513658      -0.00289746       0.00216428      -0.00767511
C        4.91831244       8.46257569       3.74110043      -0.00192977      -0.00206025      -0.00318811
C        0.00344863       1.36501458       3.81236860      -0.00444197      -0.00374230      -0.00294642
C       -1.22093781       3.48542520       3.90430993      -0.00052967      -0.00571470       0.00165046
C       -2.46900076       5.61905137       3.90416812      -0.00054373       0.00242954      -0.01182846
C       -3.72747700       7.75390073       3.84925563       0.00811378       0.00934440       0.01192790
C       -4.94754361       9.90466446       3.79556740      -0.00206724      -0.00116286      -0.00112270
C        2.45250477       1.41386899       3.72435334      -0.00099208      -0.00307731       0.00673106
O        1.17827314       3.46122435       3.80957119      -0.00255529      -0.00532707      -0.00282965
C        0.03104071       5.59649856       3.95990115       0.00088228       0.00136188       0.00468087
C       -1.26220763       7.75003632       3.86825744      -0.00335655       0.00278947      -0.00661786
C       -2.49984359       9.90652673       3.79864229      -0.00340992       0.00132572      -0.00639666
C        4.91546976       1.34727360       3.72681814       0.00313689      -0.00224906       0.00218823
O        3.78548994       3.41327899       3.46939402       0.00271128       0.00077631       0.00614641
C        1.19704598       7.76508883       3.81740595      -0.00584770       0.00093983       0.00936833
C       -0.03009878       9.89521684       3.79140762       0.00428543      -0.00566380      -0.00679174
C        7.39001889       1.34235485       3.78913998       0.00710209      -0.00301470       0.00106447
C        6.17753581       3.44335300       3.72367151       0.00016219       0.00432551      -0.00838410
C        4.87825202       5.52631370       3.75494527      -0.01478399       0.00114800       0.00642080
C        3.64403657       7.75658881       3.67895290      -0.00771148       0.00084027       0.00932454
C        2.44368443       9.91093270       3.75786368       0.00488993       0.00344426      -0.00116761
C        9.87242479       1.35255026       3.82638150       0.00008458      -0.00298079       0.00870435
C        8.63846457       3.48376404       3.85770595       0.00040301      -0.00217785      -0.00215106
C        7.37775116       5.61084853       3.84557176       0.00089421       0.00784019       0.00337925
C        6.13567116       7.73534388       3.78609209       0.00374000       0.00090766      -0.00744415
C        4.92301293       9.88653921       3.78165180       0.00132854      -0.00036100      -0.00904857
Tc       3.04932098       5.88705812       4.91999174       0.01209914      -0.00216421      -0.00615121
O        2.82136020       4.36984639       5.68981034      -0.01378557       0.00400243      -0.00791567
O        3.23912677       7.09816940       6.37317958      -0.00162912       0.00094616      -0.00101324
H        3.04006736       6.79703800       7.27815147       0.01110884      -0.00316504      -0.00502769
