52
Lattice="12.336457 0.0 0.0 -6.168228499999997 10.683685154694365 0.0 0.0 0.0 15.0" Properties=species:S:1:pos:R:3:forces:R:3 energy=-453.05108930818125 free_energy=-453.05108930818125 stress="0.0008185470831271023 0.005880013889119729 -0.0005813346056407584 0.005880013889119729 0.005946780601891189 -0.0002608461594419379 -0.0005813346056407584 -0.0002608461594419379 -0.00024248915934150706" pbc="T T T"
C        0.04522224      -0.00119835       3.81655698       0.00259311      -0.00259753       0.03605015
C       -1.15991574       2.16093701       3.61755265      -0.02001868      -0.00669255       0.03512652
C       -2.43662852       4.28833686       3.45672120       0.00746688      -0.00194878      -0.03331596
C       -3.69547623       6.41440090       3.58748171      -0.00461611       0.02248926       0.02740035
C       -4.91115456       8.54514534       3.81631514      -0.01703210       0.00751851      -0.03838712
C        2.52628016       0.01302692       3.91847353      -0.00471885       0.02131054      -0.03463491
C        1.30825336       2.13765782       4.01277227       0.01258987       0.03192708      -0.05616549
C       -0.00594288       4.41510977       3.37701141       0.02303182      -0.05581748      -0.04273562
C       -1.26474722       6.47135981       3.22860074      -0.01672583      -0.00320089      -0.05416896
C       -2.45086712       8.56322253       3.61402366       0.02370670       0.00723944       0.03220332
C        4.99504777      -0.01712488       3.83746142      -0.04251148       0.01655603      -0.05809935
C        3.83303770       2.09654396       4.10105746      -0.01626244       0.00922922       0.01763277
O        1.14990814       6.50718627       3.12558966       0.01579033       0.01060173       0.05303400
C        0.02049789       8.55480314       3.46683114       0.00252065       0.02517602       0.03783455
C        7.47042878      -0.03552073       3.69350920      -0.00818536      -0.00041000       0.01571058
C        6.26562707       2.10273692       3.91302024      -0.02954453       0.00605602      -0.03604012
C        5.05852181       4.21126133       4.14674896       0.02200705       0.02048257       0.01791764
C        3.75882691       6.36528335       4.38006071      -0.05156698      -0.05539236       0.02247279
C        2.48430690       8.46980543       3.69123938      -0.04391859      -0.02730033       0.01106042
C        9.92214325      -0.02504465       3.70150022       0.00624290      -0.01920304       0.02443928
C        8.70955262       2.12736153       3.65510515      -0.01460249      -0.02914292       0.00033825
C        7.45539843       4.26460154       3.76812490       0.04851633      -0.02239140      -0.01794637
C        6.19052802       6.38120934       3.92052917       0.03028724      -0.01637261       0.00737404
C        4.94933477       8.50921258       3.89690772      -0.04744499      -0.03731481       0.00315564
C        0.06686814       1.44328228       3.79554794      -0.00723584       0.00194321       0.05258321
C       -1.19099600       3.59413318       3.44838563      -0.01214835      -0.00304547       0.01614725
C       -2.46948391       5.71586012       3.40681166      -0.02255112       0.00087792      -0.02062325
C       -3.69006536       7.84058737       3.66272097       0.01102608       0.02159152       0.02809357
C       -4.89134904       9.97653955       3.86241767       0.00744692       0.00764653      -0.00492505
C        2.56437927       1.44078576       4.04176667       0.00884837       0.00114351      -0.03847081
P        1.33644198       3.86490771       4.31002710      -0.07088741      -0.01737841      -0.03308924
C       -0.04704491       5.81591095       3.14188208      -0.00236564      -0.02176265      -0.01760910
C       -1.23941706       7.87501416       3.40628255       0.01769277       0.00901747      -0.02357284
C       -2.42330969       9.98006860       3.81089399      -0.02933002       0.02195692      -0.04963670
C        5.02798953       1.40007088       3.98815424      -0.03538449       0.00603254      -0.06979455
O        3.91427641       3.46011162       4.29896303      -0.04783817       0.02123985      -0.00470298
C        1.22446122       7.84281754       3.40312031      -0.01357756       0.00773314       0.04171503
C        0.05576937       9.95902877       3.67737127      -0.02697881       0.02439094      -0.01437460
C        7.48018638       1.40085540       3.75413641      -0.02702943      -0.00672486      -0.00102839
C        6.25509725       3.52424532       3.95185589       0.01342720       0.02081726      -0.03125210
C        4.96381826       5.64123812       4.16300852       0.02542987       0.00212086       0.00127793
C        3.70962357       7.74752849       3.98959279      -0.05599247      -0.06316895      -0.00652992
C        2.52134571       9.91377702       3.67794425      -0.00560354      -0.01608549      -0.01494223
C        9.94372366       1.41768576       3.62960107      -0.01403105      -0.00022672       0.04523374
C        8.68607609       3.55982748       3.61840687       0.04395393      -0.03576004      -0.00940106
C        7.41813231       5.68749921       3.75320396       0.01498763      -0.01578359       0.01940138
C        6.18959452       7.81176942       3.89210329      -0.02714278      -0.01520301      -0.01992684
C        4.97671042       9.94626832       3.79142117      -0.00608194      -0.01271466      -0.00272470
Tc       2.34946691       5.36673592       5.61679876      -0.07945757      -0.03325831       0.02944022
O        1.14663099       6.54036034       5.93068154       0.05682106       0.02932335       0.00440729
O        2.39401943       4.00099013       6.96017006       0.10131968      -0.03949454      -0.07457794
H        1.68984857       3.31765701       6.90604607       0.30507824       0.20396993       0.22862627
