52
Lattice="12.336457 0.0 0.0 -6.168228499999997 10.683685154694365 0.0 0.0 0.0 15.0" Properties=species:S:1:pos:R:3:forces:R:3 energy=-451.1911634903225 free_energy=-451.1911634903225 stress="-0.00433447804029473 0.0008420549960813515 -8.812184750406972e-06 0.0008420549960813515 0.0007322691484808427 -3.846294252580385e-06 -8.812184750406972e-06 -3.846294252580385e-06 5.2977125292978e-07" pbc="T T T"
C        0.03839017      -0.02679109       3.86603392       0.00635788       0.00521180      -0.00214010
C       -1.20460022       2.09678541       3.60473878      -0.00423281       0.00214605       0.00244196
C       -2.47490911       4.24643969       3.62142771       0.00091389      -0.00843230      -0.00244882
C       -3.68742398       6.39057672       3.82491667       0.00088571      -0.00057240      -0.00090400
C       -4.89613123       8.52877024       3.95747294      -0.00317647      -0.00170332      -0.00044537
C        2.50906896      -0.00656588       3.94748763       0.00095880       0.00097623       0.00451157
C        1.29474630       2.06375781       3.55343860      -0.00276324       0.00640231      -0.00805782
C       -0.13714042       4.26911695       3.05938364      -0.00293124       0.00272337      -0.00674153
C       -1.27257314       6.41498470       3.43536498       0.00421068      -0.00438501       0.00320621
C       -2.43145163       8.53134126       3.82452080       0.00489870       0.00196703       0.00235491
C        4.97082419      -0.01221813       3.94102375      -0.00426572      -0.00408408      -0.00952745
C        3.75823063       2.16764990       3.96719651       0.00589550      -0.00583740       0.00628647
S        1.41413782       6.36419281       2.70840110      -0.00061418       0.00045972       0.00360591
C        0.02969139       8.52682641       3.68597304       0.00188032       0.00449446      -0.00507726
C        7.44304452      -0.03696650       3.92477886      -0.00196442       0.00951679       0.00303655
C        6.21790887       2.10334611       3.98311325      -0.00458291      -0.00076219       0.00128227
C        4.99156780       4.21239004       4.03152629       0.00175724       0.00916617       0.00201961
C        3.74385444       6.34043437       4.07835999      -0.00648280      -0.00070889      -0.00560238
C        2.50840111       8.50849569       3.87099724      -0.00046942      -0.00774303       0.00724508
C        9.91221105      -0.03477156       3.90056922       0.00006498      -0.00201140       0.00442686
C        8.67526233       2.10266455       3.85284809       0.00153299       0.00387597       0.00040930
C        7.43457470       4.24182440       3.91975092      -0.00471345      -0.00616759      -0.00485464
C        6.20922178       6.38301032       4.00255942      -0.00589420       0.00102511       0.00131220
C        4.96861598       8.50452717       3.99034958      -0.00515877      -0.00518007       0.00302377
C        0.04044371       1.39591685       3.66405381      -0.00319082       0.01075198      -0.00429815
C       -1.26619618       3.51064864       3.41609306      -0.00053061      -0.00068264      -0.00560698
C       -2.48003823       5.67679180       3.62852678       0.00265747      -0.00869896       0.00516027
C       -3.67077954       7.81651675       3.87558583       0.00187526       0.00541704       0.00182639
C       -4.89435991       9.95731704       3.93606368       0.00268078      -0.00051625       0.00713889
C        2.51475178       1.42811635       3.87132284      -0.00156548       0.00030581       0.00035837
S        1.42537583       3.58585094       2.69929900       0.00142943      -0.00555221      -0.00190919
C       -0.13812665       5.66074775       3.08357367       0.00636733       0.00235547      -0.00034773
C       -1.21440923       7.82706815       3.63074485       0.00495094      -0.00191849       0.00061451
C       -2.42923102       9.95889905       3.92967022      -0.00114044      -0.00151149      -0.00619225
C        4.97672245       1.41830699       3.98843009       0.00107174      -0.01063019       0.00020803
N        3.81196469       3.54122723       4.04898896       0.01373454      -0.00398485       0.00100380
C        1.28412367       7.86329273       3.57805884       0.00129648       0.00065657      -0.00763470
C        0.03607365       9.94690805       3.87843436      -0.00227751       0.00604721      -0.00722447
C        7.44793731       1.38873869       3.94025615       0.00011847       0.01116321       0.00197665
C        6.22399129       3.51345005       3.98666377      -0.00547975      -0.00004618       0.00497145
C        4.97544306       5.65574112       4.04814463      -0.00523083       0.00686374       0.00039663
C        3.73097510       7.76073013       3.97592433      -0.00426297      -0.00724832       0.00460282
C        2.50941882       9.93690867       3.92786820      -0.00336270      -0.00232666       0.00464035
C        9.91516012       1.39103798       3.79516905      -0.00222034      -0.00006002       0.00412881
C        8.65835508       3.52714255       3.81295072      -0.00079993      -0.00288010      -0.00022163
C        7.42753267       5.67033165       3.92578699      -0.00331776      -0.00323151       0.00179415
C        6.20809797       7.80857073       3.99600254      -0.00581890      -0.00214745      -0.00449831
C        4.97235700       9.93318055       3.92352190       0.00526367      -0.00282078      -0.00097176
Tc       2.22843353       4.99497906       4.41436616       0.00705147       0.00713025       0.00097580
O        2.47519444       4.35252662       6.14733487      -0.00091437       0.00293075       0.01011975
O        1.52238097       5.46800914       6.52050907       0.01069615       0.00877415       0.00362030
H        2.08496901       6.00844392       7.11396661      -0.00118839      -0.00851737      -0.01399508
