51
Lattice="12.336457 0.0 0.0 -6.168228499999997 10.683685154694365 0.0 0.0 0.0 15.0" Properties=species:S:1:pos:R:3:initial_magmoms:R:1:forces:R:3 energy=-452.36754651051575 free_energy=-452.36754651051575 stress="-0.004205366730519577 -0.0008105912843013617 -7.720557257056528e-05 -0.0008105912843013617 -0.0031142050875203773 -0.00013732497289186562 -7.720557257056528e-05 -0.00013732497289186562 -0.00019941423395242663" pbc="T T T"
C       -0.02128548      -0.00799095       3.59727403       0.00000000       0.00371733      -0.00317955       0.01870147
C       -1.26504530       2.10148901       3.32270933       0.00000000      -0.01130039      -0.01702031       0.01463224
C       -2.51097868       4.25792998       3.24548377       0.00000000      -0.01001712      -0.02016278      -0.02275705
C       -3.73339350       6.40174367       3.46856363       0.00000000       0.00849493       0.00718812      -0.02361919
C       -4.95759525       8.53912326       3.70995827       0.00000000      -0.00969459      -0.00138603      -0.04580400
C        2.44617994       0.00154795       3.70993196       0.00000000       0.01359473      -0.00821838      -0.01661262
C        1.19747715       2.12576108       3.73927593       0.00000000      -0.02598342       0.02073850       0.01618604
C       -0.08273795       4.20188340       3.54440426       0.00000000       0.00393563       0.01100324       0.01305805
C       -1.28908526       6.39972935       3.50789098       0.00000000       0.00583491       0.01342989       0.03550051
C       -2.49118025       8.54022490       3.59910382       0.00000000      -0.00356721       0.00447165      -0.00834974
C        4.91096413      -0.00348873       3.64024375       0.00000000      -0.00765307      -0.01596657      -0.02317649
C        3.69601681       2.12994257       3.93803461       0.00000000      -0.02306750       0.01424936      -0.01854797
P        1.25804208       6.25000586       4.50980896       0.00000000      -0.01663917      -0.00148820      -0.02002670
C       -0.03213660       8.54860139       3.74896089       0.00000000      -0.00749512      -0.00163945       0.00191319
C        7.37960219      -0.01190975       3.51360691       0.00000000      -0.01516068      -0.00931933       0.06655541
C        6.15409850       2.11346203       3.57149541       0.00000000      -0.00421184       0.00556182      -0.04712609
C        4.99619650       4.21477143       4.07777636       0.00000000       0.00294708       0.04747524       0.01305429
P        3.74741808       6.41254535       5.20049520       0.00000000      -0.01686147      -0.02691685       0.05136519
C        2.46314816       8.60390114       3.99152954       0.00000000      -0.00983687       0.01088734       0.01686510
C        9.85241351      -0.01132363       3.50769823       0.00000000      -0.02115078      -0.01737533       0.04721987
C        8.60379008       2.11587566       3.28781622       0.00000000       0.04192709      -0.01118733       0.01258966
C        7.38024894       4.25975930       3.46737420       0.00000000       0.00996563      -0.02785845       0.01906920
C        6.18835727       6.39010066       3.92594906       0.00000000      -0.01202680      -0.04579629      -0.02126811
C        4.92291024       8.56221406       3.96004246       0.00000000       0.02492924       0.00912627      -0.02255071
C       -0.02889851       1.40744767       3.51443682       0.00000000       0.00102546      -0.01842614      -0.04121368
C       -1.28958185       3.52083438       3.26773429       0.00000000       0.00170447      -0.01679599       0.01740946
C       -2.51236948       5.68626706       3.34876645       0.00000000       0.01597940       0.00374057       0.03883775
C       -3.72595425       7.82666069       3.58641452       0.00000000      -0.00491305      -0.00276061       0.00234194
C       -4.95392758       9.96796674       3.67558433       0.00000000       0.01177326      -0.00638652       0.01352514
C        2.44707946       1.42014002       3.82990118       0.00000000      -0.04081553       0.01214380      -0.04606385
C        1.10029574       3.51842641       3.91855657       0.00000000       0.03137845       0.02675069       0.00904765
C       -0.12134064       5.61941013       3.67709131       0.00000000      -0.00527785       0.01410249       0.03709378
C       -1.26058737       7.82443639       3.62247793       0.00000000      -0.01218954       0.00920961       0.02221513
C       -2.49232582       9.96730360       3.66317535       0.00000000       0.01455104      -0.00463940      -0.01451862
C        4.92135375       1.41279944       3.70880608       0.00000000      -0.02619970       0.02404835      -0.03843373
C        3.78014288       3.50032898       4.27465962       0.00000000       0.03236052       0.00129451      -0.03696844
C        1.20933432       7.90954774       4.04936628       0.00000000      -0.01007344       0.01445493       0.01919816
C       -0.02464350       9.96701010       3.61106122       0.00000000      -0.01520247      -0.00032604       0.02068031
C        7.37702441       1.40449332       3.40783676       0.00000000       0.03372044      -0.00685007       0.03529979
C        6.17788982       3.53073697       3.66069397       0.00000000      -0.01784386      -0.00478459      -0.02336910
C        5.07431154       5.61525017       4.29980200       0.00000000      -0.04618206       0.03940869      -0.00464904
C        3.69092632       7.94251897       4.27882025       0.00000000       0.03046633       0.05761092      -0.01894920
C        2.45205999       9.97781555       3.62875432       0.00000000      -0.01612472      -0.00440109      -0.01080699
C        9.83921039       1.39851837       3.31642176       0.00000000       0.02101146      -0.01850373       0.00326563
C        8.59828649       3.54555397       3.27177409       0.00000000       0.01930450      -0.02311942       0.03774447
C        7.38510912       5.68402907       3.57699501       0.00000000       0.00702749      -0.02364182       0.03304866
C        6.16141540       7.83181159       3.89587558       0.00000000       0.00558500      -0.02955614      -0.01628026
C        4.91614226       9.96713537       3.66081054       0.00000000      -0.01247221       0.01318615      -0.04168475
Tc       2.30001360       4.43593653       5.33036691       0.00000000      -0.03032948      -0.10923650      -0.43158900
O        4.00125786       6.58499134       6.67176273       1.00000000       0.03619152       0.03040014      -0.02317837
O        1.91828078       3.55367596       6.73307240       1.00000000       0.05486402       0.08646062       0.40112561
