52
Lattice="12.336457 0.0 0.0 -6.168228499999997 10.683685154694365 0.0 0.0 0.0 15.0" Properties=species:S:1:pos:R:3:forces:R:3 energy=-455.468301350343 free_energy=-455.468301350343 stress="-0.004940796989093836 -0.0017817206053621646 -2.0958495891240023e-06 -0.0017817206053621646 -0.004761061227548047 1.670375333277432e-05 -2.0958495891240023e-06 1.670375333277432e-05 2.627827546673377e-05" pbc="T T T"
C        0.07442021       0.00522239       3.69111503      -0.00494567       0.00008485       0.01414349
C       -1.17835379       2.11008882       3.49528797       0.00042135      -0.00130063      -0.00730404
C       -2.42053058       4.26496711       3.39701084       0.00562551       0.01065149      -0.00126085
C       -3.63603406       6.41213815       3.54371269       0.00384332      -0.00120414      -0.00490025
C       -4.85866463       8.55183489       3.73980915       0.00275237      -0.00139040       0.00487314
C        2.53984226       0.01365272       3.77941217      -0.00320927       0.00031140       0.00525896
C        1.28399892       2.13535734       3.89537148      -0.00981570      -0.00363559       0.01003278
C        0.00164138       4.19862284       3.72556741       0.00039890       0.00779908       0.00314502
C       -1.18927699       6.40528965       3.62988794      -0.00666704       0.01181732       0.01204443
C       -2.39133184       8.54950517       3.68151721      -0.00066314      -0.00560671      -0.00422212
C        5.00010196       0.00997740       3.73019974      -0.00087730       0.00105960       0.00313742
C        3.77414684       2.15129115       3.99107734       0.00048780       0.00667655      -0.00296847
P        1.45530430       6.22748196       4.37415394      -0.01229243       0.00024554      -0.00824214
C        0.06591720       8.55878845       3.86714758      -0.00572948      -0.00822539       0.00310665
C        7.46567266       0.00925435       3.66936631      -0.00178146      -0.01772617       0.00435907
C        6.23191903       2.12945605       3.62051424       0.01028319       0.00252752       0.00824404
C        5.05458221       4.23176645       4.02925886      -0.00784804       0.00350024       0.00081646
P        3.82070419       6.37157339       5.11922142       0.01305016      -0.01035936      -0.00316187
C        2.55468681       8.63131504       4.10698257       0.00334641       0.00560160       0.01703744
C        9.94234575       0.00743410       3.65488183      -0.00060479      -0.00482395       0.00386212
C        8.69221256       2.12893052       3.43313203       0.00887816      -0.00768792      -0.00240827
C        7.46375804       4.27222642       3.51946877      -0.00357649      -0.00265992       0.00682093
C        6.27316107       6.40985811       3.89974099      -0.00288254       0.00205532      -0.01555408
C        5.02734594       8.57880934       4.00742749       0.00532269       0.01406360       0.00242255
C        0.06254331       1.41950828       3.65738675      -0.00673076      -0.00389100       0.00044102
C       -1.20479876       3.52433633       3.45427494       0.00388147       0.00330816       0.00447268
C       -2.41552700       5.69318348       3.47876976       0.00512794       0.01171100       0.00329713
C       -3.62672891       7.83791127       3.64326724       0.00246197      -0.00577009       0.00387869
C       -4.85717896       9.97919353       3.73642428      -0.00420612      -0.00020709       0.00469440
C        2.53387961       1.43023554       3.92127329      -0.00389201       0.00490770      -0.00614150
C        1.18486580       3.52054997       4.12339279       0.00269692       0.00145188      -0.00955522
C       -0.02973095       5.61626301       3.78192882      -0.01123743       0.00688207      -0.01144213
C       -1.15986034       7.83284603       3.72875600      -0.00322457      -0.00015662      -0.00505686
C       -2.39818140       9.97752363       3.73844287      -0.00107098      -0.00386338      -0.00538875
C        4.99916555       1.43029081       3.76210112       0.00543562       0.00808528      -0.00102088
C        3.84791189       3.53222015       4.28817434       0.00635799       0.00034428       0.00147099
C        1.31567328       7.92379810       4.13773374       0.00221330       0.00635073       0.00421594
C        0.06549794       9.98123489       3.74476537      -0.00752524      -0.01456907      -0.00703886
C        7.46235163       1.42119346       3.53211901       0.00934191      -0.01284967       0.00761927
C        6.24858236       3.54806370       3.66086748      -0.00697252       0.00353397       0.00668093
C        5.13042351       5.64053083       4.21290392      -0.00306548       0.00358613      -0.00755321
C        3.79613837       7.96496108       4.34540326       0.01202697       0.01206301       0.00677748
C        2.53991394      10.00556621       3.78324796       0.00131923      -0.00700902      -0.00846892
C        9.92714181       1.41286790       3.47952130       0.00530859      -0.00976614      -0.00288243
C        8.68723792       3.55568062       3.39707614       0.00469228       0.00144064       0.00000493
C        7.47576707       5.69756314       3.61243965       0.00116374      -0.00210013      -0.00210815
C        6.25633017       7.84389734       3.90405850       0.00097415       0.00517841      -0.00499326
C        5.01143016       9.98450061       3.75393865      -0.00225625       0.00576850      -0.00755274
Tc       2.41195673       4.44676302       5.54188514      -0.00938973      -0.00976891      -0.01159312
O        2.46577279       3.33845910       6.81781303       0.00331394       0.00071052       0.00169370
O        1.25455021       5.57148556       6.76485243      -0.00587862      -0.00134787       0.01165087
H        0.98486486       5.20866824       7.62434404       0.00561720      -0.00579724      -0.01538440
