52
Lattice="12.336457 0.0 0.0 -6.168228499999997 10.683685154694365 0.0 0.0 0.0 15.0" Properties=species:S:1:pos:R:3:forces:R:3 energy=-458.6002347733179 free_energy=-458.6002347733179 stress="0.00014924396067915146 -1.3955074614098087e-05 -1.974644065928486e-06 -1.3955074614098087e-05 0.005526835833726099 -1.0732464062287317e-05 -1.974644065928486e-06 -1.0732464062287317e-05 -1.7929369367329598e-06" pbc="T T T"
C        0.01089451      -0.00473322       3.78561958       0.00122177       0.00037626       0.00698914
C       -1.22620852       2.12500503       3.75284865       0.00418267       0.00598874      -0.00309188
C       -2.45168133       4.26258431       3.68194774       0.00106457      -0.00211456       0.00353995
C       -3.68484207       6.40174077       3.69595170       0.00328317      -0.00033265      -0.00125515
C       -4.92085175       8.54653200       3.74711518      -0.00578797       0.00019868      -0.00097636
C        2.48333683       0.01111253       3.85065185       0.00532481       0.00287218      -0.00477274
C        1.23931616       2.15614064       3.98623223      -0.00146241      -0.00933272       0.00303495
C        0.01176204       4.29447580       3.87639253       0.00048652       0.00476245      -0.00226249
C       -1.22322755       6.41169371       3.72179072      -0.00378779      -0.00271822      -0.00115710
C       -2.44804565       8.54672168       3.74525348       0.00202097      -0.00358324       0.00322057
C        4.95646866      -0.00471032       3.78648029      -0.00791822      -0.00142575      -0.00094874
C        3.72754111       2.15574607       3.98588011       0.00066120       0.00231126       0.00252295
O        1.17152623       6.41605503       3.72250293      -0.00314698       0.00575976       0.00371953
C        0.02462054       8.51508862       3.72715821       0.00050375       0.00097894      -0.00267231
C        7.42829714      -0.04102395       3.71646740       0.00053719      -0.00213547      -0.00262414
C        6.19288334       2.12560056       3.75312008      -0.00338448      -0.00057790      -0.00195873
C        4.95542121       4.29509123       3.87973372      -0.00523772      -0.00085458       0.00075369
O        3.79463374       6.41704536       3.74713122       0.00637500       0.00395845      -0.00167237
C        2.48347349       8.44109204       3.70791599       0.00193357      -0.00418927      -0.00338053
C        9.87487251      -0.04127159       3.71719488       0.00172219       0.00008522      -0.00169702
C        8.65139947       2.11388059       3.68188305       0.00453581       0.00455811       0.00659715
C        7.41852124       4.26275408       3.68278007       0.00069849       0.00075387       0.00596736
C        6.19026959       6.41214828       3.72609455      -0.00088571      -0.00548697      -0.00102668
C        4.94269614       8.51519198       3.73020971      -0.00480784       0.00319159      -0.00557227
C        0.00602539       1.41943668       3.82235460      -0.00080200      -0.00232830      -0.00216612
C       -1.22060880       3.55857053       3.73783373       0.00053432       0.00367822       0.00210136
C       -2.45381734       5.68648497       3.69544713      -0.00075949      -0.00552232      -0.00067703
C       -3.68446107       7.83215022       3.72866666      -0.00084685       0.00064397      -0.00025411
C       -4.91689463       9.97661532       3.79851215       0.00326313       0.00294178      -0.00242767
C        2.48318552       1.44108462       3.97275731       0.00640972       0.00143063      -0.00223622
C        1.18706325       3.56122284       4.17019675      -0.01366320      -0.01154093      -0.00368213
C       -0.00835002       5.72501850       3.78179495       0.00102582       0.00744123       0.00357285
C       -1.22288570       7.82892678       3.72669800       0.00324873      -0.00353331      -0.00106881
C       -2.45244864       9.97690807       3.79812520      -0.00173452      -0.00406416      -0.00156919
C        4.96123864       1.41936849       3.82332550      -0.00616256      -0.00099722      -0.00601040
C        3.77970776       3.56079623       4.16815121       0.00485339      -0.00035533       0.00486749
C        1.21621886       7.79043468       3.70811030       0.00118536       0.00102986      -0.00104954
C        0.02305923       9.94996790       3.73871713      -0.00554339       0.00119465       0.00251469
C        7.42361544       1.39821840       3.70654351       0.00328576       0.00168344      -0.00134059
C        6.18759013       3.55915245       3.73960391      -0.00228858      -0.00076926      -0.00216559
C        4.97559005       5.72593682       3.79176398      -0.00201351      -0.00119710       0.00326241
C        3.75080477       7.79139176       3.71345444       0.00089820      -0.00067581       0.01283108
C        2.48333632       9.89438965       3.70919858       0.00229143      -0.00532368      -0.00497191
C        9.87916413       1.39795098       3.70732957       0.00420341       0.00296673      -0.00619140
C        8.65159899       3.54376203       3.66805633       0.00164094       0.00407317       0.00018659
C        7.42059008       5.68652063       3.69679330       0.00418027      -0.00020507       0.00046527
C        6.19039341       7.82913403       3.73025318      -0.00950269      -0.00371560      -0.00107691
C        4.94407767       9.95005222       3.73988375       0.00194246       0.00127633      -0.00255590
Tc       2.48303187       4.33834514       5.53036899       0.00439381       0.00631139       0.01447433
O        2.49472812       3.28462567       6.87249226      -0.00610589       0.00934447      -0.00035917
O        2.44971226       6.14206916       6.05342763       0.00658152      -0.00915368       0.00250321
H        2.40555064       6.44262592       6.98330670       0.00135183       0.00232174      -0.00825339
