51
Lattice="12.336457 0.0 0.0 -6.168228499999997 10.683685154694365 0.0 0.0 0.0 15.0" Properties=species:S:1:pos:R:3:initial_magmoms:R:1:forces:R:3 energy=-452.1646724064247 free_energy=-452.1646724064247 stress="-0.002203032005924817 0.0002025294405150902 -5.865108747464036e-05 0.0002025294405150902 0.00854862500236454 1.972635089327556e-05 -5.865108747464036e-05 1.972635089327556e-05 -1.4366431820999574e-05" pbc="T T T"
C       -0.02878969       0.02317875       3.70879184       0.00000000      -0.01434046       0.01524378      -0.00723650
C       -1.28357581       2.13515265       3.71563459       0.00000000      -0.00113900      -0.00715401       0.03911189
C       -2.52928817       4.28248096       3.63349673       0.00000000      -0.01721154      -0.00825562      -0.01945010
C       -3.74636583       6.43362163       3.55386811       0.00000000       0.01239722       0.00161084      -0.01983722
C       -4.96857143       8.57913219       3.60021040       0.00000000      -0.00451207       0.01870725      -0.00759198
C        2.44528412       0.07710975       3.73933536       0.00000000      -0.01094100      -0.01455139      -0.03068250
C        1.19772150       2.19086944       3.92885503       0.00000000       0.00338306      -0.02390728      -0.02068761
C       -0.12364874       4.28757577       3.99807754       0.00000000       0.01556244       0.01907306       0.02016364
C       -1.31934216       6.43884591       3.77522138       0.00000000      -0.00821746       0.00619679       0.00358824
C       -2.50757853       8.58622493       3.67852606       0.00000000      -0.00521066       0.00918118       0.01287632
C        4.90368703       0.02736001       3.72563756       0.00000000       0.01289992       0.01617204       0.00529152
C        3.71830163       2.20829707       3.77360273       0.00000000      -0.01889818       0.00305182      -0.01018547
C        1.09225268       6.41175492       4.23780023       0.00000000       0.00515861       0.00669834       0.00366837
C       -0.02976413       8.54612287       3.83490605       0.00000000       0.00534416      -0.00815108      -0.02537369
C        7.37956754      -0.02416916       3.70978974       0.00000000       0.01734594       0.01748332       0.03564750
C        6.14758517       2.14664172       3.60113564       0.00000000      -0.00876569      -0.01321201      -0.04133374
C        4.93943694       4.28899607       3.47892600       0.00000000       0.01404614      -0.00171643       0.01031081
O        3.77093208       6.41781828       3.67663704       0.00000000      -0.00283620       0.01132577       0.00497407
C        2.46064791       8.48375939       3.83754353       0.00000000      -0.00326040      -0.01715460      -0.00992164
C        9.83574120      -0.02424518       3.68674687       0.00000000      -0.01273841      -0.02698139       0.02040915
C        8.60170923       2.12848351       3.59210618       0.00000000       0.00532800       0.01008816       0.02214903
C        7.36843169       4.28713472       3.47176077       0.00000000      -0.03560073       0.00142205       0.02051019
C        6.13403478       6.41853130       3.45316276       0.00000000       0.01263844       0.01016940       0.00683017
C        4.90744311       8.53198401       3.65226863       0.00000000       0.01084705       0.01144903       0.00654545
C       -0.02945970       1.44864911       3.78245869       0.00000000      -0.00060267       0.00297216      -0.00146665
C       -1.31937066       3.55844075       3.74961565       0.00000000       0.00105529       0.00561746      -0.00585198
C       -2.52997365       5.71574742       3.64102479       0.00000000      -0.00039915      -0.01549799      -0.00638333
C       -3.73524398       7.86620062       3.60011946       0.00000000      -0.00366541       0.01712796      -0.00001225
C       -4.95446369      10.01891426       3.68268066       0.00000000      -0.02227472       0.01215630       0.04266165
C        2.46191857       1.51611096       3.83482530       0.00000000      -0.00946709      -0.02959817      -0.01466852
C        1.09230087       3.58239090       4.18727254       0.00000000       0.01584311      -0.02106265       0.01322366
C       -0.12149329       5.71060563       4.01629512       0.00000000       0.00907924       0.02645711      -0.00249166
C       -1.28504016       7.86224178       3.75999103       0.00000000      -0.00711770       0.00457924       0.02978740
C       -2.50197357      10.02116702       3.71344442       0.00000000       0.00807110       0.00400590       0.01126168
C        4.91249463       1.46372353       3.69790783       0.00000000      -0.01515536       0.00402987       0.00394094
O        3.78856973       3.58724105       3.80246238       0.00000000       0.01314530       0.00031258      -0.00439519
C        1.20038950       7.80328270       3.97262894       0.00000000      -0.00015523      -0.01523143      -0.01105971
C       -0.03105125       9.97087801       3.75126803       0.00000000       0.02330817       0.00078317       0.00094658
C        7.36873050       1.41462138       3.62515978       0.00000000       0.01127988       0.01684021      -0.02895298
C        6.13933564       3.57434855       3.47591382       0.00000000      -0.01111199      -0.01213446      -0.00157113
C        4.93700091       5.70472396       3.45364245       0.00000000       0.00433111       0.00542871       0.00773651
C        3.71261598       7.79213713       3.73006867       0.00000000      -0.00556955       0.00970878      -0.03113431
C        2.44526538       9.92064425       3.74087736       0.00000000      -0.01102888      -0.02853857      -0.02723640
C        9.83020855       1.41060556       3.64727550       0.00000000      -0.00496080      -0.02305320       0.02934098
C        8.59322704       3.56126053       3.54819443       0.00000000      -0.03370977       0.00898428      -0.02121891
C        7.36532902       5.70742734       3.46827901       0.00000000       0.00775119      -0.00448967       0.00874189
C        6.14310964       7.84870825       3.55574281       0.00000000       0.01183829       0.00738040       0.00051361
C        4.90387037       9.96818544       3.68771855       0.00000000      -0.00012816      -0.00002311      -0.02195679
Tc       2.01994221       4.95725569       5.24220282       0.00000000       0.02778252      -0.00140357      -0.00699342
O        3.37911775       3.98427566       6.29819465       1.00000000       0.01552592       0.00496944       0.01588596
O        3.85649062       5.18755948       5.76506672       1.00000000       0.00505620      -0.01710979       0.00157647
