52
Lattice="12.336457 0.0 0.0 -6.168228499999997 10.683685154694365 0.0 0.0 0.0 15.0" Properties=species:S:1:pos:R:3:forces:R:3 energy=-450.4765174025152 free_energy=-450.4765174025152 stress="-0.009196168151125257 -0.0005703648585007587 1.0083208933315734e-06 -0.0005703648585007587 -0.000459835300662956 -1.1798207736438031e-05 1.0083208933315734e-06 -1.1798207736438031e-05 2.0943335003283444e-05" pbc="T T T"
C        0.02657632       0.00626780       3.81064370      -0.00003207       0.00286208      -0.00569492
C       -1.22358668       2.13265429       3.72503029       0.00181248       0.00123350       0.00027874
C       -2.46236043       4.27999021       3.99627113      -0.00167222      -0.00272301      -0.00775648
C       -3.66973323       6.43655283       4.12318427       0.00140871       0.00160043       0.00218460
C       -4.89367921       8.58397454       4.03598022       0.00477946       0.00149009      -0.01041373
C        2.49805594       0.01984439       3.76766769       0.00029092      -0.00125467      -0.00708098
C        1.24450406       2.08856304       3.34074693      -0.00123804       0.00899382       0.01174817
C       -0.11786420       4.33390174       3.52399231       0.00783350      -0.00390117       0.00426772
C       -1.26738843       6.44931264       3.91977953       0.00632668       0.00763261       0.00400379
C       -2.44424653       8.58099472       3.98392281      -0.00888704      -0.00310695       0.00483397
C        4.96707087       0.01009883       3.78409418       0.00085681      -0.00366075      -0.00563794
C        3.74344182       2.09724569       3.34852128      -0.00418835       0.00284626      -0.00487490
C        1.18612015       6.38962756       3.68749608       0.00157946      -0.00576725       0.00683834
C        0.02361566       8.54833654       3.85532567       0.00148293       0.00165852       0.00876005
C        7.43800312      -0.01991059       3.84598157       0.00207375       0.00050175       0.00758138
C        6.20718060       2.14214157       3.76309129       0.00212223       0.00185984      -0.00597318
C        5.09287859       4.35987053       3.64696716      -0.00163129       0.00352630      -0.00181244
N        3.85248621       6.40202476       3.79032683      -0.00678397      -0.00305184       0.00176384
C        2.50816790       8.49672533       3.84497253      -0.00221429      -0.00444848      -0.00490701
C        9.89341438      -0.02233341       3.86040711      -0.00149589       0.00189769       0.00753668
C        8.66235765       2.12932561       3.93173196      -0.00126296      -0.00579287      -0.00297212
C        7.44877312       4.28396451       4.05982831      -0.00400798       0.00899818      -0.01622610
C        6.25363419       6.46079686       4.05047930      -0.00500947       0.00239178       0.00164505
C        4.97667713       8.54068051       3.93991872       0.00877238      -0.00054523      -0.00785977
C        0.01826037       1.42875566       3.62002317      -0.00040831       0.00416823       0.01152045
C       -1.25967342       3.55540398       3.76928936       0.00164888       0.00017173      -0.01056151
C       -2.46244046       5.71226991       4.04004244       0.00684746       0.00292811       0.01192593
C       -3.66751935       7.86586109       4.07387370      -0.00491370      -0.00341479       0.00063063
C       -4.90111107       9.99998686       3.88583382       0.00246522       0.00123496      -0.00362303
C        2.49723104       1.42975870       3.46219781      -0.00472051       0.00215021      -0.00407712
S        1.14621193       3.66710347       2.56027643       0.00742325      -0.01516536       0.00579509
C       -0.06359310       5.73334705       3.70927663       0.00179619      -0.00299603       0.00031511
C       -1.22269206       7.86654654       3.93938614      -0.00232268       0.00951955      -0.01075519
C       -2.43820400       9.99872913       3.85807893      -0.00163183      -0.00671019      -0.00036955
C        4.96976960       1.43826461       3.63011051      -0.00062776       0.00267626      -0.00336602
S        3.82053292       3.72400219       2.66960029      -0.00008367      -0.00134060      -0.00143848
C        1.25954496       7.79835187       3.79676192      -0.00230079      -0.00719090       0.00363038
C        0.03226960       9.96727667       3.83752094       0.00347193       0.00110279       0.00571686
C        7.42791488       1.41579905       3.86498008       0.00126611      -0.00366631      -0.00164631
C        6.23634868       3.56876883       3.85208243      -0.00410742       0.00356488       0.00928242
C        5.05519898       5.76357528       3.83423525      -0.00608831      -0.00099418       0.00770925
C        3.76066766       7.77853832       3.87217839       0.00278516      -0.00241742      -0.01080831
C        2.50079210       9.93075139       3.86317147      -0.00113989      -0.00165341      -0.00603279
C        9.89513540       1.41263752       3.85357541       0.00249701       0.00131500       0.01429406
C        8.66185309       3.55600204       4.03561867      -0.00720479      -0.00362588      -0.00236500
C        7.45321091       5.71455104       4.11940433      -0.00350912       0.00853409       0.00005208
C        6.21848317       7.87189648       4.03810200       0.00826734       0.00150908      -0.00136343
C        4.96195508       9.96180109       3.88016059      -0.00024009       0.00216027       0.00683860
Tc       2.41317241       4.89448748       4.13232712      -0.00277836      -0.00236571       0.00158946
O        2.83478547       5.32619583       5.91684265      -0.00712568      -0.01381277       0.01244821
O        1.78365767       4.51368036       6.56335020       0.01636439       0.00711687       0.00107664
H        2.33534506       4.01147099       7.20217126      -0.00654578       0.00396090      -0.01665122
