53
Lattice="12.336457 0.0 0.0 -6.168228499999997 10.683685154694365 0.0 0.0 0.0 15.0" Properties=species:S:1:pos:R:3:forces:R:3 energy=-462.88933923464515 free_energy=-462.88933923464515 stress="-0.0023891254552792828 0.0021113875097851314 1.403280886366384e-05 0.0021113875097851314 -0.009639604109795943 -1.2050189892119776e-05 1.403280886366384e-05 -1.2050189892119776e-05 7.52344724953695e-06" pbc="T T T"
C        0.01833186      -0.01437801       3.99364733      -0.00760057      -0.01063166      -0.00285011
C       -1.20398156       2.13322244       4.01676911       0.00087099      -0.00937745      -0.00247116
C       -2.44053877       4.26588893       3.93849718       0.00145451      -0.00381092       0.00159444
C       -3.68767330       6.39412059       3.88250323      -0.00079903      -0.00193524      -0.00234115
C       -4.93033085       8.51706133       3.92649973      -0.01034836      -0.00084232      -0.00304973
C        2.47944483      -0.04065760       3.88500825       0.00378374       0.00193111      -0.01196823
C        1.26454568       2.11400877       3.96699602      -0.00109238       0.00247584       0.00735244
C        0.03232586       4.25666655       3.92490865      -0.00146049       0.00067084       0.00634485
C       -1.21524636       6.39464790       3.73219471       0.00589992      -0.00335263      -0.00761800
C       -2.44614236       8.51710345       3.78306474      -0.00559485      -0.00153522      -0.00289261
C        4.94593474      -0.02364215       3.75196891       0.00749881       0.00273143       0.00751326
C        3.71993947       2.07272372       3.77625931       0.00582439       0.00388377       0.00737951
C        2.54566215       4.19934340       4.02723619       0.00663057      -0.01362661       0.00445068
S        1.38019589       6.31893347       2.92672373      -0.00241470      -0.00434179      -0.00679636
C        0.00479980       8.55601852       3.59509188      -0.00367193       0.01194164      -0.00752230
C        7.41300405       0.01537210       3.76753778       0.01306997       0.00254237       0.00315487
C        6.19068232       2.10754135       3.77172021       0.00069508      -0.00193988       0.00206054
C        4.97405511       4.18879824       3.66473711      -0.00821929       0.00893575       0.01007968
S        3.98348042       6.22907542       2.23258959       0.00338783      -0.01061539       0.01163176
C        2.47478924       8.61428951       3.71528965       0.00234903       0.01243641      -0.00335171
C        9.89524418       0.02133599       3.94284101      -0.00076660      -0.00340750      -0.01093401
C        8.65996999       2.13691117       3.90304033       0.00433846       0.00541083       0.00286657
C        7.42980393       4.25627323       3.83278675      -0.01122415       0.00046566      -0.00695906
C        6.18127147       6.39605655       3.82113052      -0.00407513      -0.00093611      -0.01485689
C        4.92707206       8.53348850       3.97513710      -0.00090957       0.00110057      -0.00376906
C        0.02709660       1.41284016       4.00475191       0.00102470      -0.00918834      -0.00269709
C       -1.20587359       3.55396330       3.99086982       0.00436421      -0.00533311       0.00372148
C       -2.45134178       5.68409958       3.87029501       0.00518257      -0.00327578       0.00297332
C       -3.69076777       7.81133104       3.86804869      -0.00843684       0.00075181       0.00001502
C       -4.92449674       9.94031965       3.94841378      -0.00331553      -0.00103486      -0.01309766
C        2.48438579       1.37986920       3.88329715       0.00772393       0.00350270      -0.00187445
C        1.29326645       3.55340356       3.96937437      -0.00236974      -0.00383417      -0.01373848
C       -0.02786456       5.63591080       3.65101384       0.01181627       0.00220108       0.01105387
C       -1.21427580       7.81484696       3.66773191      -0.00489345      -0.00454694      -0.01010980
C       -2.45383550       9.94122848       3.79819656       0.00636466       0.00048418       0.00495964
C        4.95580365       1.39062481       3.75672754       0.00138487       0.00173760       0.00069411
C        3.73711169       3.49604913       3.76976283      -0.00162259       0.00128370       0.01246361
C        1.25752452       7.95019930       3.45669838      -0.00122576       0.01228830      -0.01072876
C        0.01261648       9.97801636       3.70292513       0.00699275       0.00952697       0.00941230
C        7.42371063       1.42585328       3.81834434       0.00686907       0.00060571       0.01662127
C        6.20232891       3.52495708       3.74966415      -0.01474552      -0.00050204       0.00558515
C        4.95929840       5.63509684       3.52512258       0.00418525      -0.00188979      -0.01555384
C        3.66708474       7.88883255       3.96583201      -0.00310183       0.00912612      -0.00246833
C        2.48462423      10.02560784       3.80669842       0.00759669       0.00184568      -0.00124997
C        9.89672959       1.43535542       3.96992091      -0.00352240      -0.00207081       0.00240585
C        8.66002158       3.55544200       3.90515882      -0.00506723       0.00455628       0.00382329
C        7.40816460       5.68518494       3.86164002      -0.00115240      -0.00303739       0.00020814
C        6.16170971       7.79948051       3.92108240      -0.00862521      -0.00494149       0.01607080
C        4.95062332       9.97145523       3.98822618      -0.00598047      -0.00687786      -0.00161705
Tc       3.13527266       6.05260771       4.71946441       0.01015429      -0.00354998       0.00740128
O        4.14137785       5.83407632       6.11303247      -0.00437349       0.01076396       0.00952810
O        1.68397748       6.42026774       5.99505787       0.00958912       0.00867884       0.00015695
H        1.94950971       6.39651894       6.93692322      -0.01244216      -0.00544387      -0.01100699
