52
Lattice="12.336457 0.0 0.0 -6.168228499999997 10.683685154694365 0.0 0.0 0.0 15.0" Properties=species:S:1:pos:R:3:initial_magmoms:R:1:forces:R:3 energy=-466.9102467161667 free_energy=-466.9102467161667 stress="-0.001900739810756628 -0.0001745738528470863 -3.526778236579448e-06 -0.0001745738528470863 -0.0005412344126885123 5.493746377345068e-06 -3.526778236579448e-06 5.493746377345068e-06 1.4057342779725944e-06" pbc="T T T"
C        0.02787724      -0.03560508       3.58477442       0.00000000      -0.00248885      -0.00113605       0.00772124
C       -1.20645759       2.10288121       3.65493910       0.00000000      -0.00577495      -0.00496941      -0.00267091
C       -2.43772670       4.23778640       3.65881675       0.00000000      -0.00190630       0.00159008       0.00579483
C       -3.67194025       6.37503824       3.60383239       0.00000000       0.00225637       0.00053480       0.00035528
C       -4.90403656       8.51251014       3.57158843       0.00000000      -0.00012742       0.00310229      -0.00476868
C        2.49706773      -0.03544419       3.58608057       0.00000000      -0.00040067       0.00060910      -0.00422798
C        1.25615810       2.09167785       3.70360192       0.00000000       0.00322289       0.00069121      -0.00067191
C        0.02979587       4.25045813       3.83391306       0.00000000       0.00071135       0.00297885       0.00305354
C       -1.21124368       6.38293146       3.66795676       0.00000000       0.00097051      -0.00248150       0.00162193
C       -2.43809325       8.51224767       3.57320404       0.00000000       0.00029561      -0.00098592      -0.00301092
C        4.96492759      -0.03626608       3.60985431       0.00000000       0.00145694       0.00412823       0.00176879
C        3.73427801       2.09409614       3.73335516       0.00000000      -0.00224012       0.00257732       0.00066927
C        2.48521092       4.14663918       4.17147942       0.00000000      -0.00004725       0.00207513      -0.00406209
N        1.14678777       6.43693112       4.07416385       0.00000000      -0.00823535       0.00277210       0.00066298
C        0.02337298       8.50639816       3.65283606       0.00000000       0.00333469      -0.00753934       0.00275449
C        7.43297636      -0.04580457       3.65454509       0.00000000       0.00389830       0.00043667       0.00243344
C        6.19677819       2.10413460       3.69303784       0.00000000       0.00315973       0.00087831       0.00151361
C        4.95827287       4.25524070       3.89856816       0.00000000      -0.00090958      -0.00448031       0.00347738
N        3.85220900       6.45452248       4.13821298       0.00000000       0.00080257       0.00328928      -0.00345065
C        2.49753504       8.47569469       3.79737016       0.00000000      -0.00085545       0.00509096      -0.00080800
C        9.89451082      -0.04571786       3.64110284       0.00000000       0.00214494      -0.00203426       0.00304060
C        8.66323916       2.09810783       3.65052730       0.00000000      -0.00090003       0.00176951       0.00083807
C        7.42708174       4.23818488       3.68640239       0.00000000       0.00335517      -0.00129921      -0.00018882
C        6.20382774       6.38434102       3.70298347       0.00000000       0.00583564      -0.00084098      -0.00612368
C        4.97222102       8.50994761       3.65718512       0.00000000      -0.00159629      -0.00638291       0.00089426
C        0.02589155       1.38816283       3.63274413       0.00000000      -0.00030833      -0.00131178       0.00074502
C       -1.20131761       3.53211602       3.70201847       0.00000000      -0.00184811       0.00016273       0.00735883
C       -2.43791758       5.66286229       3.63442139       0.00000000       0.00036867       0.00009478       0.00158236
C       -3.67085839       7.79804063       3.57286369       0.00000000       0.00138404       0.00014797      -0.00435659
C       -4.90593942       9.93845265       3.56734681       0.00000000      -0.00278607       0.00113914      -0.00286071
C        2.49626606       1.38481138       3.66716835       0.00000000       0.00125240      -0.00409922      -0.00006165
C        1.25251157       3.51575982       3.89284579       0.00000000       0.00098042       0.00048015       0.00377133
C        0.01911461       5.68847094       3.84094909       0.00000000       0.00641452       0.00728494      -0.00243699
C       -1.20891662       7.79959745       3.62517670       0.00000000      -0.00061123      -0.00290171      -0.00192590
C       -2.43643797       9.93779030       3.57850684       0.00000000       0.00083937       0.00199762      -0.00148512
C        4.96506336       1.38824072       3.66949846       0.00000000      -0.00068819       0.00624633      -0.00033988
C        3.73269791       3.51922084       3.93456358       0.00000000      -0.00401117      -0.00113140       0.00459153
C        1.23870993       7.78586876       3.81235624       0.00000000       0.00489639      -0.00130856       0.00300570
C        0.03036533       9.93173697       3.62897937       0.00000000       0.00175918      -0.00395556      -0.00238422
C        7.42963688       1.38468426       3.65647029       0.00000000       0.00269858      -0.00297074      -0.00021404
C        6.19047846       3.53401658       3.75047166       0.00000000      -0.00133169      -0.00171690       0.00037721
C        4.98084930       5.69337670       3.90748978       0.00000000       0.00162789      -0.00152199      -0.00362235
C        3.75981264       7.79863950       3.83971968       0.00000000      -0.00515360       0.00141741      -0.00230915
C        2.49585214       9.91068470       3.68466613       0.00000000       0.00360248       0.00446859       0.00430276
C        9.89691036       1.38449654       3.63692456       0.00000000      -0.00269365      -0.00362342       0.00070453
C        8.66320430       3.52439370       3.65479289       0.00000000      -0.00580198       0.00523834       0.00014428
C        7.43043801       5.66310462       3.65618097       0.00000000       0.00009823       0.00159345      -0.00381439
C        6.20354048       7.80085722       3.63323340       0.00000000      -0.00714609       0.00569083       0.00062203
C        4.96215240       9.93402078       3.61118993       0.00000000      -0.00140517      -0.00502020       0.00053708
Tc       2.49898451       5.68117536       5.42558443       0.00000000      -0.00312319      -0.00416001      -0.01846880
O        1.25484444       6.01278359       6.86271745       1.00000000      -0.00484575      -0.00182610      -0.00222182
O        2.15127153       7.09433974       6.70960020       1.00000000       0.00986958      -0.00078862       0.01214286
