51
Lattice="12.336457 0.0 0.0 -6.168228499999997 10.683685154694365 0.0 0.0 0.0 15.0" Properties=species:S:1:pos:R:3:initial_magmoms:R:1:forces:R:3 energy=-452.0798081256614 free_energy=-452.0798081256614 stress="-0.004567243705661634 -0.00027947101911987105 -0.00013788315824240802 -0.00027947101911987105 -0.0025606787197925015 -2.6347091921365038e-05 -0.00013788315824240802 -2.6347091921365038e-05 -0.00038107769439049856" pbc="T T T"
C       -0.01153586      -0.02675238       3.57143856       0.00000000      -0.02021641      -0.01730654      -0.01547003
C       -1.25291396       2.08825817       3.38693189       0.00000000      -0.00366953       0.03072286      -0.03279529
C       -2.48142481       4.22979626       3.29719192       0.00000000      -0.07513960       0.06501287      -0.00310283
C       -3.70359176       6.37791140       3.47013193       0.00000000      -0.00259005      -0.01954861       0.00032016
C       -4.94694960       8.51505567       3.63676780       0.00000000       0.05234673       0.02081068      -0.00022843
C        2.44959888      -0.03649111       3.54611253       0.00000000      -0.00930233       0.00834507       0.04842756
C        1.20881844       2.13221804       3.66903211       0.00000000       0.03616432      -0.04411504       0.04720734
C       -0.04953597       4.23580241       3.46685499       0.00000000       0.00221571      -0.02727893      -0.01004712
C       -1.25893383       6.38536252       3.34179373       0.00000000       0.00175033       0.02408922       0.01083415
C       -2.48301322       8.51799343       3.44402326       0.00000000       0.01571635      -0.01406790      -0.02738665
C        4.93265803      -0.05143563       3.57922008       0.00000000      -0.02189370       0.00922957       0.00724739
C        3.68905709       2.00583049       3.95804109       0.00000000      -0.00219523      -0.04314465       0.00149961
C        1.12238215       6.34332080       3.96480078       0.00000000      -0.03929740      -0.00426935      -0.01223879
C       -0.00763472       8.48835558       3.59597229       0.00000000       0.03189945       0.02914735      -0.01854637
C        7.39128321      -0.05036949       3.59410068       0.00000000       0.03911990      -0.01196665      -0.00614595
C        6.17717877       2.08807869       3.75602266       0.00000000      -0.01507347       0.02295139      -0.04146609
C        5.12481367       4.26100464       4.37970519       0.00000000       0.02681910      -0.03174721      -0.01714584
P        3.71890728       6.46127611       5.25561419       0.00000000      -0.03605300      -0.01094823       0.02945696
C        2.45238316       8.51785797       3.93025024       0.00000000      -0.00484899      -0.02392552       0.03806323
C        9.85444172      -0.04199433       3.59883618       0.00000000       0.01368138      -0.01372903      -0.01929491
C        8.62436928       2.09014683       3.45539946       0.00000000      -0.01895869      -0.00412993       0.00320484
C        7.42807197       4.23576108       3.65243510       0.00000000       0.00236407       0.00871227       0.00917739
C        6.24714856       6.39555803       4.05104428       0.00000000      -0.00804253       0.02143973      -0.02574355
C        4.93921864       8.54043839       3.95025033       0.00000000      -0.02454361       0.00205438       0.01389261
C       -0.01515476       1.39622048       3.50376203       0.00000000       0.00177573      -0.00672217       0.00970016
C       -1.25901459       3.50845721       3.28703819       0.00000000      -0.07267869       0.05839181       0.04071745
C       -2.48289231       5.66155796       3.31931372       0.00000000      -0.00957771       0.03455753       0.00225067
C       -3.71268561       7.80490342       3.50238599       0.00000000       0.03200963      -0.01859163      -0.03591175
C       -4.94905089       9.93822107       3.57117043       0.00000000      -0.00260648       0.02524710      -0.04430952
C        2.43726406       1.37268080       3.71274155       0.00000000       0.03439609      -0.01803573      -0.00128220
C        1.11765603       3.54536011       3.83829739       0.00000000       0.02572948      -0.02576350       0.06241266
C       -0.04505129       5.67081778       3.51714020       0.00000000      -0.02083993      -0.01977449       0.01633378
C       -1.24910045       7.80238359       3.43512722       0.00000000       0.03388243       0.02296395       0.03137041
C       -2.47789629       9.93818710       3.50685662       0.00000000      -0.03149161      -0.01320622       0.03599936
C        4.94512577       1.36157685       3.76433912       0.00000000      -0.00686700      -0.01020724       0.01194156
P        3.59560249       3.52964978       4.73658678       0.00000000      -0.02258294      -0.01625902       0.03844840
C        1.21355952       7.76087702       3.84249199       0.00000000       0.00028651      -0.01189166      -0.02188561
C       -0.00641500       9.91276169       3.58199405       0.00000000       0.01658423       0.01984563      -0.01657596
C        7.39338637       1.37768399       3.57123252       0.00000000      -0.01410563       0.00337320       0.03178367
C        6.23188247       3.50864552       3.90721709       0.00000000       0.03403961       0.01214272       0.01972367
C        5.15183170       5.66376618       4.52063608       0.00000000      -0.01660538      -0.01841312      -0.04832710
C        3.69662763       7.91433885       4.24346221       0.00000000      -0.03708925      -0.03381375      -0.02461548
C        2.45220869       9.92778214       3.68032981       0.00000000       0.03292586      -0.04487901      -0.02862211
C        9.85211616       1.37537276       3.44530301       0.00000000       0.00010544      -0.00548113      -0.04726129
C        8.63194497       3.51851209       3.42173383       0.00000000      -0.04020420       0.00803085       0.00499158
C        7.43250215       5.66481824       3.70290997       0.00000000      -0.00807314      -0.00846863      -0.03750095
C        6.18572143       7.81965109       3.90672295       0.00000000       0.01512874       0.03158512      -0.05065181
C        4.92729124       9.94628736       3.67943177       0.00000000      -0.00886350      -0.03511304      -0.02288592
Tc       1.92485629       4.91455652       5.21622941       0.00000000       0.03561807       0.04301654      -0.35318131
O        3.85365446       6.75994680       6.71993360       1.00000000       0.03292864       0.01970033       0.01244539
O        0.87089958       4.74563556       6.53921574       1.00000000       0.05592224       0.03142772       0.43517288
