51
Lattice="12.336457 0.0 0.0 -6.168228499999997 10.683685154694365 0.0 0.0 0.0 15.0" Properties=species:S:1:pos:R:3:initial_magmoms:R:1:forces:R:3 energy=-449.36402741365026 free_energy=-449.36402741365026 stress="-0.01038355750171108 0.003373461311997941 -4.785225081426391e-06 0.003373461311997941 -0.00695890877133761 -4.720615146196931e-06 -4.785225081426391e-06 -4.720615146196931e-06 -5.6176422905606334e-06" pbc="T T T"
C       -0.01300017      -0.01270067       3.68606084       0.00000000      -0.00368859      -0.00038374       0.00729848
C       -1.24071159       2.12648051       3.57057287       0.00000000      -0.00293735      -0.00204136       0.00811589
C       -2.49256236       4.26813553       3.66516200       0.00000000       0.00038385      -0.00312715       0.01341805
C       -3.72909835       6.40402006       3.75194015       0.00000000       0.00109801      -0.00261174       0.00335338
C       -4.96405162       8.53336151       3.73093252       0.00000000       0.00170363      -0.00442094       0.00469186
C        2.44931982      -0.02029871       3.86889304       0.00000000       0.00228800      -0.00247602      -0.00690889
C        1.25389840       2.07436771       3.50379182       0.00000000      -0.00042422      -0.00921055      -0.00910730
C       -0.11214595       4.33644524       3.36650190       0.00000000      -0.00120668       0.00272975       0.00673091
C       -1.30684583       6.43604666       3.74066203       0.00000000      -0.00919749       0.00000100      -0.00144325
C       -2.50458360       8.54674650       3.90531815       0.00000000      -0.00098662      -0.00203461       0.00091633
C        4.92273315      -0.01575432       3.98386495       0.00000000      -0.00207433       0.00218801      -0.00315247
C        3.71090956       2.11149117       3.85079774       0.00000000      -0.00036487       0.00460754       0.01190308
C        1.13562528       6.41574614       3.77021895       0.00000000       0.00056410      -0.00266971       0.01063960
C       -0.03297166       8.54606154       3.92604770       0.00000000      -0.00040800       0.00249094      -0.00219237
C        7.39717630      -0.01858461       3.94138033       0.00000000       0.00732239       0.00428247       0.00150181
C        6.18673762       2.09838881       3.90097415       0.00000000       0.00400313       0.00232786      -0.00102191
C        5.00476831       4.20974994       3.63235600       0.00000000      -0.00156283      -0.00056297       0.00707020
P        3.49490597       6.25371214       2.78656043       0.00000000      -0.00770206      -0.00461159      -0.00152124
C        2.43901298       8.54999437       3.76325401       0.00000000       0.00158484      -0.00270437      -0.00362012
C        9.86271188      -0.01150034       3.75834424       0.00000000       0.00138636      -0.00352732       0.00332345
C        8.64026303       2.11613768       3.79744923       0.00000000       0.00856130       0.00567935       0.00770074
C        7.41713271       4.24991304       3.73755117       0.00000000      -0.00136139       0.00403114       0.01124069
C        6.18171481       6.39178812       3.54028268       0.00000000      -0.00188936       0.00116383       0.00450888
C        4.91380085       8.53315922       3.57779182       0.00000000      -0.00280685      -0.00058015       0.01020695
C       -0.00434881       1.41334945       3.57725786       0.00000000      -0.00470778      -0.00419653      -0.00271832
C       -1.27368816       3.55367386       3.51610314       0.00000000       0.00097624      -0.00053848       0.00372907
C       -2.50822800       5.69510957       3.72427826       0.00000000      -0.00251726      -0.00286511      -0.00410464
C       -3.73219135       7.82894332       3.80310139       0.00000000       0.00188451      -0.00651009       0.00589187
C       -4.95460253       9.95778484       3.77113144       0.00000000       0.00034243      -0.00210469      -0.01119439
C        2.46924633       1.39578584       3.77832019       0.00000000       0.00277687      -0.00120282      -0.00350616
P        1.42080353       3.68702203       2.78012921       0.00000000       0.00791424      -0.00030255      -0.00220031
C       -0.09612615       5.73546280       3.59950247       0.00000000      -0.00866439       0.00624251      -0.00637137
C       -1.27795140       7.84596750       3.88563666       0.00000000      -0.00582626      -0.00099124      -0.00094446
C       -2.48922546       9.96296583       3.95037751       0.00000000      -0.00020052      -0.00169596      -0.00489540
C        4.94173875       1.39783048       3.94122974       0.00000000      -0.00114266       0.00362624      -0.00416941
C        3.77298612       3.52906857       3.79813847       0.00000000      -0.00369366      -0.00200748      -0.00401259
C        1.19770439       7.83315466       3.83165032       0.00000000       0.00134010       0.00133325      -0.00552708
C       -0.01421304       9.95928725       3.97770935       0.00000000       0.00155703       0.00672549      -0.00306216
C        7.41311471       1.39776558       3.90674158       0.00000000       0.00728291       0.00483947      -0.00827552
C        6.21601190       3.50925780       3.76619012       0.00000000      -0.00038399      -0.00394473      -0.01023279
C        5.01918663       5.60874481       3.39964968       0.00000000       0.00213039       0.00109013      -0.00572447
C        3.65618176       7.87198513       3.49812012       0.00000000       0.00063231      -0.00117415      -0.01083363
C        2.45849432       9.96610997       3.85302974       0.00000000       0.00513591      -0.00181687       0.00196105
C        9.87228447       1.41275445       3.71918090       0.00000000       0.00264794      -0.00324042       0.00043585
C        8.63797517       3.54096612       3.74866928       0.00000000      -0.00016931       0.00486231      -0.00138900
C        7.40080105       5.67693184       3.68307954       0.00000000       0.00162226       0.00709212      -0.00412210
C        6.14954073       7.81929153       3.58356651       0.00000000      -0.00187810       0.00029989       0.00530450
C        4.92204562       9.95932417       3.68334772       0.00000000      -0.00302128       0.00164547      -0.00852072
Tc       2.44793951       4.97288706       4.46684728       0.00000000       0.00349417       0.00900071      -0.00627098
O        2.93262119       5.46457743       6.32419761       1.00000000       0.01414333       0.00223607       0.01085438
O        1.94963548       4.50476528       6.33381019       1.00000000      -0.01396037      -0.00494226      -0.00375396
