52
Lattice="12.336457 0.0 0.0 -6.168228499999997 10.683685154694365 0.0 0.0 0.0 15.0" Properties=species:S:1:pos:R:3:forces:R:3 energy=-455.1955340426479 free_energy=-455.1955340426479 stress="-0.005271702780639032 2.1894546120336183e-05 4.880700600104421e-05 2.1894546120336183e-05 -0.007486797882620744 -6.5672329334228155e-06 4.880700600104421e-05 -6.5672329334228155e-06 -1.6692987037378787e-05" pbc="T T T"
C        0.04481800       0.01093305       3.73797193       0.00159078       0.00648369       0.00011861
C       -1.19126006       2.13466021       3.69950926       0.00690566       0.00424054       0.00899297
C       -2.40899563       4.26811085       3.55120480      -0.00499658      -0.00002785      -0.00183683
C       -3.64215641       6.40619491       3.50680321       0.00382615       0.00431480      -0.00390303
C       -4.89217385       8.54590379       3.62592187       0.00000484       0.00130436      -0.00606464
C        2.49886358      -0.02418879       3.77366119      -0.00166746       0.00323319       0.00580690
C        1.26066970       2.14377906       4.04608748       0.01190059      -0.00595631       0.01271382
C        0.02240860       4.26187930       3.93805646       0.00059647      -0.00385711      -0.00186376
C       -1.19036279       6.40797931       3.68759704       0.00070206      -0.00092562      -0.00316148
C       -2.42535192       8.53724078       3.63373112       0.00348693       0.00081147      -0.00592979
C        4.98087454      -0.02949315       3.73503922      -0.00279392      -0.00553965       0.00015328
C        3.73985487       2.01508333       4.05361930       0.00314157       0.00027305       0.01762127
C        1.18896242       6.40578052       4.29783120      -0.00810028       0.01208948      -0.00026067
C        0.04127724       8.52884898       3.82232023       0.00748708      -0.00150805       0.00327799
C        7.43832657      -0.00354707       3.70784423      -0.00099011      -0.00627876      -0.00310571
C        6.21760261       2.11493752       3.68834556      -0.00428214      -0.00102605       0.00369606
C        5.06646925       4.27393950       3.79899549       0.00381626      -0.00457810      -0.00098019
P        3.62725912       6.31280983       4.50450447      -0.00508871       0.00951561      -0.00625542
C        2.48358499       8.58728974       3.97948978       0.00248351      -0.00288417       0.00445229
C        9.90902320       0.00731007       3.71043593      -0.00626798      -0.00003066       0.00117015
C        8.68172788       2.13109835       3.56969615      -0.00257423      -0.00423098      -0.00729990
C        7.46999530       4.26584093       3.50426182       0.00385525       0.00354637      -0.00667479
C        6.24958541       6.42842980       3.62112695       0.00273617      -0.00059980       0.00412501
C        4.99023466       8.57433479       3.82182205      -0.00402007       0.00019285      -0.00969791
C        0.04122247       1.43233898       3.82056425       0.00924041       0.01024828      -0.00313686
C       -1.19006411       3.55329866       3.68415690      -0.00270082       0.00373628       0.00263523
C       -2.40937914       5.69338102       3.55281314      -0.00179746      -0.00186003      -0.00931223
C       -3.65536313       7.83017173       3.56756484       0.00147557       0.00720602       0.00584217
C       -4.89826637       9.96503892       3.70528567      -0.00235973       0.00338377       0.00391016
C        2.48333651       1.37461747       3.97834340       0.00835596       0.00177917      -0.00269220
C        1.18685964       3.55513416       4.29947177       0.00393910      -0.00894565      -0.01420443
C        0.02261634       5.69938123       3.93840212       0.00014797       0.00173859       0.00032103
C       -1.19172055       7.82661358       3.70337197       0.00687270      -0.00104047       0.00023585
C       -2.42778615       9.95416637       3.70974790      -0.00469960      -0.00182617      -0.00208507
C        4.99004954       1.38714570       3.81634887      -0.00225053      -0.00778641       0.00851895
P        3.63336703       3.64482137       4.51859254      -0.00962813      -0.00372514       0.00269169
C        1.26117103       7.81840473       4.04659823       0.00450537       0.00246124       0.00787285
C        0.04483878       9.95037055       3.73946295       0.00178392      -0.00507248      -0.00514879
C        7.44494234       1.41540797       3.62766630      -0.00622728      -0.00235587      -0.00710216
C        6.25018429       3.53240767       3.62254229       0.00749792       0.00205165      -0.00156656
C        5.06621599       5.68598437       3.79711559      -0.00199964      -0.00041934      -0.00919392
C        3.73966413       7.94628984       4.05662134       0.00030195       0.00143721       0.01888691
C        2.49922113       9.98609832       3.77530788      -0.00472452      -0.00712174       0.00997712
C        9.91161981       1.42403611       3.63248688       0.00157653      -0.00167038      -0.00176842
C        8.69487679       3.55501057       3.50738164      -0.00212399      -0.00434338      -0.00727106
C        7.46954208       5.69502433       3.50373690       0.00973466       0.00285808      -0.00796818
C        6.21705392       7.84618692       3.68935870      -0.00104914      -0.00422833       0.00080824
C        4.98091515       9.99080960       3.73730703      -0.00018379       0.00215015      -0.00111225
Tc       2.22238129       4.98380460       5.62015437      -0.00725236      -0.00097457       0.00873814
O        3.50158142       5.01818260       6.86852082      -0.01228147       0.00586754      -0.00983481
O        0.69847890       4.97507972       6.84888466       0.00585350      -0.00205099      -0.00299244
H        0.96037040       4.98981001       7.78343391      -0.01375897      -0.00005932       0.00985679
