51
Lattice="12.336457 0.0 0.0 -6.168228499999997 10.683685154694365 0.0 0.0 0.0 15.0" Properties=species:S:1:pos:R:3:initial_magmoms:R:1:forces:R:3 energy=-449.0507018173266 free_energy=-449.0507018173266 stress="-0.005266285311612029 -0.00199951796348829 -0.0003434250304064121 -0.00199951796348829 0.003536156390228384 0.00018965580917492718 -0.0003434250304064121 0.00018965580917492718 0.00030318417730353054" pbc="T T T"
C        0.01089516      -0.01200830       3.75356176       0.00000000       0.00529846      -0.00165045       0.00330360
C       -1.24196035       2.10851184       3.58907320       0.00000000       0.01633395       0.01332302       0.01737696
C       -2.45163759       4.25732318       3.49031260       0.00000000       0.01924441       0.02517372       0.02262430
C       -3.65644710       6.40591624       3.60515694       0.00000000      -0.00210432      -0.01091475       0.01987605
C       -4.89660941       8.55777064       3.76011251       0.00000000       0.00816113      -0.02746435       0.00641180
C        2.47171422       0.02381298       3.73365066       0.00000000       0.00164703      -0.00729606      -0.01200176
C        1.18221073       2.13941588       3.75058307       0.00000000      -0.00544940      -0.04998317      -0.01232492
C       -0.04795291       4.25600864       3.53441303       0.00000000      -0.01988564       0.01699218      -0.00284454
C       -1.21344840       6.39111431       3.43426114       0.00000000      -0.00411859       0.01333644       0.01482449
C       -2.43945598       8.54496614       3.58601290       0.00000000      -0.00298787      -0.01408991       0.02908095
C        4.95005057      -0.01052459       3.67681257       0.00000000      -0.00329752       0.01951404      -0.02066627
C        3.69994344       2.12487111       3.62006132       0.00000000      -0.01263033       0.04595718      -0.05311198
O        1.16868351       6.39325289       3.55270428       0.00000000       0.04565210      -0.05005598       0.04669970
C        0.01733276       8.50658999       3.58881557       0.00000000      -0.00458330       0.00686741       0.01585973
C        7.41728010      -0.04706509       3.69042810       0.00000000       0.00997288      -0.01817903      -0.01758596
C        6.19336156       2.11820877       3.70344585       0.00000000      -0.00764731      -0.00836632      -0.02961385
C        5.03852103       4.30949541       3.89909252       0.00000000       0.01581651      -0.02935621      -0.03068892
C        3.84354411       6.40653141       4.24058459       0.00000000      -0.10275097      -0.10826631       0.05357644
C        2.45674922       8.46096398       3.81781136       0.00000000       0.00475241       0.02296246       0.00498662
C        9.87058107      -0.05303122       3.72768160       0.00000000      -0.01680217       0.02414992       0.01285510
C        8.64709695       2.10330311       3.63038925       0.00000000      -0.00161483      -0.00858158       0.00439909
C        7.45518973       4.25902951       3.72569487       0.00000000      -0.00737607       0.00016130      -0.00330462
C        6.27615203       6.43153395       3.92257709       0.00000000      -0.01167643       0.01100506      -0.01174409
C        4.95907552       8.52561032       3.90858930       0.00000000      -0.01979648       0.03091468      -0.01888875
C       -0.00426201       1.41959262       3.69355928       0.00000000      -0.01010360       0.02675178      -0.00822656
C       -1.23374110       3.53472103       3.48313918       0.00000000       0.00770674       0.00253258       0.01366444
C       -2.43942636       5.67813358       3.47806006       0.00000000      -0.00641763      -0.01415445       0.03440965
C       -3.67118119       7.83633542       3.63964152       0.00000000      -0.00476984       0.01557090       0.02980493
C       -4.91517988       9.98309555       3.75793312       0.00000000      -0.01306446      -0.00362737       0.00425847
C        2.44194453       1.45928874       3.73484904       0.00000000      -0.00868219       0.00189917      -0.04959949
O        1.09090998       3.52669342       3.86613833       0.00000000       0.03138555       0.04894420       0.04819903
C       -0.02177857       5.67159685       3.46354858       0.00000000      -0.02906292      -0.01360411       0.01052679
C       -1.21756388       7.81888205       3.50775876       0.00000000      -0.01284987       0.00333440       0.01620960
C       -2.45760276       9.97995440       3.66745095       0.00000000       0.00352602      -0.02227668       0.00993272
C        4.94228099       1.42242912       3.68444027       0.00000000       0.00071636      -0.01422081      -0.04887168
P        3.64909814       3.77860533       3.00487824       0.00000000      -0.07565434       0.11803095       0.11923817
C        1.21445048       7.77691398       3.65220477       0.00000000      -0.00373127       0.04930769       0.00331148
C        0.01593031       9.94121387       3.65732672       0.00000000       0.01008880       0.00032493       0.01871521
C        7.41602657       1.39097225       3.67847559       0.00000000       0.00321798      -0.01426107       0.00968482
C        6.23237794       3.54109233       3.78467822       0.00000000      -0.01374790       0.01970988      -0.01351708
C        5.06832546       5.72989759       4.06800571       0.00000000      -0.01139414      -0.00761236       0.00080506
C        3.72454850       7.78625746       4.00696816       0.00000000      -0.00715519       0.02469796      -0.02241378
C        2.47035291       9.89683017       3.74096542       0.00000000      -0.00947314       0.00325309       0.00523837
C        9.87795691       1.38459209       3.63177244       0.00000000       0.00023033      -0.02302198       0.02059592
C        8.66121102       3.53590771       3.60223067       0.00000000       0.00160406      -0.00551573       0.00839423
C        7.47178893       5.69200733       3.75065323       0.00000000       0.00431278       0.00234700       0.00062068
C        6.22191419       7.84847082       3.88479790       0.00000000      -0.00160581      -0.00817105      -0.01684452
C        4.94752600       9.94208667       3.79366391       0.00000000       0.00738703      -0.00126750      -0.00837322
Tc       2.70438606       5.05018763       5.17604108       0.00000000      -0.10481924       0.04067477      -0.04612179
O        1.50581331       5.94360743       6.01501745       1.00000000       0.03033202      -0.03989618      -0.14604630
O        3.19682664       3.77236917       6.20083533       1.00000000       0.30786623      -0.08590332      -0.03269434
