51
Lattice="12.336457 0.0 0.0 -6.168228499999997 10.683685154694365 0.0 0.0 0.0 15.0" Properties=species:S:1:pos:R:3:initial_magmoms:R:1:forces:R:3 energy=-446.9183178982314 free_energy=-446.9183178982314 stress="-0.008973905654302826 -0.005194793825201757 9.117902605773601e-05 -0.005194793825201757 -0.0032772464255748954 9.802358279373716e-05 9.117902605773601e-05 9.802358279373716e-05 0.00017037191429472267" pbc="T T T"
C       -0.01563592       0.00453639       3.90585468       0.00000000      -0.00330982      -0.08213245       0.02304635
C       -1.29373772       2.10054488       3.94603210       0.00000000      -0.09707386       0.03900026      -0.01524182
C       -2.51890895       4.25592547       3.80438828       0.00000000      -0.07916361      -0.08542720      -0.00661689
C       -3.69959160       6.41527478       3.68782060       0.00000000      -0.00785138       0.04895156       0.03606353
C       -4.91885540       8.56737550       3.78569227       0.00000000       0.01036731       0.07922859       0.00712789
C        2.45660860       0.01638855       3.87742146       0.00000000       0.00986208      -0.04883337       0.02560692
C        1.16979060       2.15941345       3.98370757       0.00000000       0.06169504       0.18102623       0.03109847
C       -0.10565670       4.19392464       3.93448667       0.00000000       0.00856352      -0.05163181       0.01208265
C       -1.26457924       6.39040378       3.72869789       0.00000000       0.04170363      -0.05516641       0.00470030
C       -2.45705290       8.54558412       3.75023028       0.00000000       0.02082912       0.03743062       0.04600961
C        4.91865475       0.00586054       3.68968174       0.00000000      -0.07116618      -0.11342767       0.00608048
C        3.63530650       2.10296289       3.54648492       0.00000000       0.06117433      -0.07428977       0.01426989
S        1.37372306       6.18318883       3.14131124       0.00000000      -0.04743804       0.08085741      -0.03309384
C        0.00166896       8.52508640       3.65749931       0.00000000      -0.00749616      -0.03522016      -0.01054819
C        7.37656806      -0.00870743       3.67808265       0.00000000      -0.00802960      -0.00054944       0.03064318
C        6.13162745       2.13928112       3.45477086       0.00000000       0.02053749       0.08917650       0.05108661
C        5.02627976       4.35662867       3.19875552       0.00000000       0.00893171       0.05012356       0.01819766
C        3.80214819       6.41380453       3.75073214       0.00000000      -0.05330625       0.00034235       0.00321460
C        2.47198670       8.54067229       3.71978648       0.00000000      -0.06056970      -0.07390516       0.02551161
C        9.84250039      -0.01713555       3.82025450       0.00000000       0.02548717      -0.01911517       0.01515524
C        8.59191440       2.12178921       3.70255518       0.00000000      -0.02014979       0.07258564       0.02303308
C        7.40058272       4.28202587       3.50050503       0.00000000       0.01405295      -0.06305434       0.05799383
C        6.22538519       6.45953147       3.52319412       0.00000000       0.07557985      -0.10951050      -0.01155250
C        4.94484015       8.55588173       3.75035396       0.00000000       0.04700744      -0.08090556       0.04893135
C       -0.04413809       1.42468697       3.97231473       0.00000000      -0.06114610      -0.17706106      -0.02549892
C       -1.32776476       3.50729249       3.94000594       0.00000000      -0.01609802      -0.06104010      -0.04818997
C       -2.49746592       5.67820587       3.75803399       0.00000000       0.02224840       0.11780204      -0.01476940
C       -3.69290350       7.84375261       3.75015252       0.00000000       0.00805266      -0.06221080      -0.04311158
C       -4.93863874       9.98759476       3.88428042       0.00000000      -0.00783914      -0.03131761      -0.01411299
C        2.43023341       1.44934961       3.86300914       0.00000000      -0.00344764      -0.06333045      -0.00427306
N        1.07780847       3.52755567       4.07123391       0.00000000       0.07265529      -0.03955650      -0.00581319
C       -0.11338969       5.58713294       3.71290796       0.00000000      -0.04264971       0.05100049       0.03559711
C       -1.23068181       7.82101682       3.68343916       0.00000000      -0.00647912      -0.10053575       0.04663017
C       -2.47347468       9.98107027       3.78812959       0.00000000      -0.03881366       0.04478605      -0.04907443
C        4.89619765       1.43539902       3.55000136       0.00000000       0.02574808       0.10532927      -0.01667680
S        3.47967359       3.70210114       2.87428344       0.00000000       0.03253413      -0.00991014      -0.09392925
C        1.25389610       7.85746775       3.59552572       0.00000000      -0.01839912      -0.02159488      -0.06887399
C       -0.01235448       9.96244720       3.68001116       0.00000000      -0.07164679       0.09176449      -0.03271055
C        7.35686098       1.42281694       3.60856043       0.00000000      -0.02397376       0.00895891      -0.03672192
C        6.17348469       3.56893158       3.33686990       0.00000000       0.03857618      -0.14300963       0.03403867
C        5.00207362       5.74892591       3.43500881       0.00000000       0.01432013       0.05302707      -0.02182446
C        3.71462028       7.81668483       3.73295743       0.00000000       0.08105614       0.03667115      -0.00342428
C        2.44415543       9.96276447       3.75173146       0.00000000       0.10074887       0.07042385      -0.00527826
C        9.81909071       1.39801871       3.83889897       0.00000000       0.01502605       0.08664743      -0.01265049
C        8.59605890       3.54733830       3.67531339       0.00000000       0.04356064      -0.00757723      -0.02226274
C        7.41967404       5.70928080       3.55448807       0.00000000      -0.00794887       0.05166592      -0.01969011
C        6.19509187       7.86403950       3.69727751       0.00000000      -0.04815879       0.07292958      -0.02385053
C        4.92250665       9.96772741       3.84098803       0.00000000      -0.03262305       0.11333029      -0.02598813
Tc       2.60985623       4.95323401       4.63074936       0.00000000       0.04618334       0.12982661       0.29761707
O        2.17943927       4.76822339       6.53273243       1.00000000       0.05358060       0.05730759      -0.34704405
O        3.54587070       5.09342722       6.29932126       1.00000000      -0.12530399      -0.15988032       0.11908609
