51
Lattice="12.336457 0.0 0.0 -6.168228499999997 10.683685154694365 0.0 0.0 0.0 15.0" Properties=species:S:1:pos:R:3:initial_magmoms:R:1:forces:R:3 energy=-446.6475552598963 free_energy=-446.6475552598963 stress="-0.010097936241923178 -0.0008165786592470015 4.264662455361207e-06 -0.0008165786592470015 -0.0010661855640029527 -1.666330243994123e-05 4.264662455361207e-06 -1.666330243994123e-05 2.0279996167518327e-05" pbc="T T T"
C       -0.00236252      -0.00158459       3.75497256       0.00000000      -0.00290647      -0.00013551      -0.00025990
C       -1.25428272       2.12523221       3.66674283       0.00000000       0.00671017       0.01382762       0.00227931
C       -2.49454427       4.27394670       3.93055190       0.00000000       0.00231395      -0.00680198       0.00749590
C       -3.69879811       6.43022220       4.05200208       0.00000000       0.00240539      -0.00403780      -0.00484412
C       -4.92121607       8.57690979       3.95964537       0.00000000       0.00341452      -0.00527525       0.00230137
C        2.47072426       0.01014252       3.70761220       0.00000000      -0.00147287      -0.00071479       0.00255353
C        1.21290395       2.07584212       3.28372324       0.00000000       0.00888868      -0.00470427      -0.00710010
C       -0.15656065       4.32978482       3.46453557       0.00000000       0.00414938      -0.00078601       0.00212044
C       -1.29374755       6.44079405       3.89787589       0.00000000      -0.00196127      -0.00290593       0.00397537
C       -2.47079956       8.57318332       3.93828050       0.00000000      -0.00221369       0.00587168       0.00205016
C        4.94052151       0.00108929       3.73397381       0.00000000      -0.00429609      -0.00148086      -0.00448105
C        3.71573727       2.08083992       3.27679052       0.00000000       0.00018807       0.00506258       0.00001591
C        1.16559122       6.37709315       3.73469878       0.00000000       0.01137368      -0.00981263      -0.00979303
C       -0.00024542       8.54110766       3.84844744       0.00000000      -0.00421540       0.00257607       0.00948218
C        7.40988435      -0.02692574       3.80502273       0.00000000       0.00125825       0.00692479      -0.00022108
C        6.18013914       2.13451684       3.67451661       0.00000000      -0.00717394       0.00087446      -0.00324819
C        5.08524924       4.35955084       3.49236164       0.00000000       0.00195599      -0.00598026      -0.00954847
N        3.82500465       6.39809216       3.69510930       0.00000000       0.00464985       0.00058561       0.01063666
C        2.48015859       8.49030462       3.82612297       0.00000000      -0.00320779      -0.00289832      -0.00135346
C        9.86470267      -0.02868050       3.81597023       0.00000000       0.00370097       0.00168600      -0.00019587
C        8.63247543       2.12269747       3.86501758       0.00000000       0.00180614      -0.00247907      -0.00221557
C        7.42121196       4.27956760       3.95553097       0.00000000       0.00688856       0.00261653       0.00372487
C        6.22807288       6.45549955       3.93020479       0.00000000      -0.00780581      -0.00059184      -0.00252110
C        4.94825639       8.53396117       3.86954057       0.00000000       0.00044361      -0.00603817       0.00186115
C       -0.01150759       1.42149217       3.56807786       0.00000000       0.00366513       0.00619056      -0.00182272
C       -1.29379621       3.54806730       3.70234497       0.00000000       0.00499349       0.00818663       0.01301714
C       -2.49168026       5.70495258       3.98842434       0.00000000       0.00060099      -0.01084660      -0.00007585
C       -3.69569128       7.85892640       4.00784357       0.00000000       0.00514668      -0.00173301       0.00583441
C       -4.92925416       9.99273960       3.82220838       0.00000000      -0.00148510      -0.00282358       0.00494300
C        2.46702904       1.41783063       3.40143132       0.00000000       0.00727598      -0.00200033       0.00771858
S        1.11295338       3.65693379       2.51383044       0.00000000      -0.00128092      -0.00051237      -0.00855264
C       -0.09433940       5.71997892       3.69926382       0.00000000       0.00282163      -0.00022354      -0.01034125
C       -1.24854219       7.85923118       3.91734439       0.00000000      -0.00574918       0.00267994       0.00607792
C       -2.46472716       9.99037568       3.80617627       0.00000000      -0.00422043       0.00314343       0.00500567
C        4.94295473       1.42812014       3.55907428       0.00000000      -0.00742099      -0.00222266       0.00128710
S        3.77918814       3.69833554       2.59040075       0.00000000      -0.01605040       0.00263208       0.00732478
C        1.23398919       7.79595521       3.81164557       0.00000000      -0.00302491      -0.00339806      -0.00386083
C        0.00540682       9.96046476       3.80533792       0.00000000      -0.00017021       0.00461046       0.00822237
C        7.39890562       1.40913875       3.79742760       0.00000000      -0.00585526       0.00612816       0.00837164
C        6.21225500       3.56424678       3.72993861       0.00000000       0.00337477       0.00295367       0.00200140
C        5.03859162       5.75940790       3.69194512       0.00000000      -0.00263461      -0.00681779       0.00027896
C        3.73438385       7.77378282       3.81378829       0.00000000      -0.00012113      -0.00166398      -0.00305113
C        2.47265850       9.92503695       3.82885062       0.00000000       0.00064107       0.00091480       0.00449595
C        9.86576090       1.40588224       3.80175852       0.00000000       0.00681225       0.00589992      -0.00601278
C        8.63098002       3.54939792       3.95768944       0.00000000       0.00345099      -0.00557986      -0.00628614
C        7.42547718       5.70830750       4.01780258       0.00000000      -0.00248968       0.00450323      -0.00762446
C        6.19155887       7.86626589       3.94762233       0.00000000      -0.00039547      -0.00373632      -0.00302535
C        4.93319819       9.95612584       3.82697730       0.00000000      -0.00006983      -0.00686640      -0.00185399
Tc       2.39430131       4.91581722       4.13993985       0.00000000      -0.00353236      -0.00441653      -0.00448016
O        3.01589059       5.14795805       5.93755426       1.00000000      -0.00615567       0.00437585      -0.01348450
O        1.96900541       4.19053742       5.92810151       1.00000000      -0.00302069       0.01523967      -0.00682202
