53
Lattice="12.336457 0.0 0.0 -6.168228499999997 10.683685154694365 0.0 0.0 0.0 15.0" Properties=species:S:1:pos:R:3:forces:R:3 energy=-465.0216395827222 free_energy=-465.0216395827222 stress="-0.0012502999476930903 0.0013488143764968663 -8.827219231026316e-06 0.0013488143764968663 -0.00587876774738435 -1.1536188724907004e-05 -8.827219231026316e-06 -1.1536188724907004e-05 1.6995844233306028e-05" pbc="T T T"
C        0.02006652      -0.03248413       4.02878426       0.00399705       0.00730426       0.00654869
C       -1.20899195       2.11083175       4.09169208      -0.00735430       0.00318987      -0.01145171
C       -2.44573936       4.24683099       3.96199662       0.00001060       0.00536362      -0.00531940
C       -3.68855239       6.37505864       3.85062319      -0.00054473       0.00970513      -0.00418541
C       -4.92081260       8.50629142       3.90013483       0.00520529      -0.00630513      -0.00066247
C        2.48479319      -0.05196461       3.98275428      -0.00413615      -0.00331815      -0.00064039
C        1.26093895       2.10188593       4.10916493      -0.00296777      -0.00650314      -0.00863253
C        0.02199069       4.23319742       3.94051110       0.00086975      -0.00077204      -0.00058084
C       -1.21864369       6.36919885       3.63928870      -0.00341960      -0.00427314       0.01163075
C       -2.44618322       8.50400296       3.76761213       0.00433460       0.00020654       0.00069586
C        4.94807571      -0.03832236       3.82325292      -0.00355757      -0.00334716       0.00091545
C        3.71959955       2.06771688       3.96409867       0.00288675       0.00173415       0.00223826
C        2.53671027       4.21199964       4.12667462       0.00196308      -0.00852086       0.00003979
P        1.42499043       6.24505476       2.73310557       0.00748830      -0.00024088      -0.00095911
C       -0.00254145       8.55268022       3.45087504      -0.00449330      -0.00985625      -0.01049985
C        7.40693839       0.00193198       3.75470524       0.00366359      -0.00693513      -0.00174778
C        6.18444610       2.09869281       3.89259429      -0.00236966      -0.00457608       0.00780040
C        4.95879041       4.18644035       3.76752059      -0.00152786       0.00871686       0.01219009
P        3.78380848       6.41238523       2.35859439      -0.01322398       0.00017971       0.00847005
C        2.46417612       8.64483274       3.35403667       0.00153094      -0.00705681      -0.00006451
C        9.89121846      -0.00066647       3.89625295       0.00521775      -0.00141771      -0.00888194
C        8.65525237       2.11593736       3.97808436      -0.00068455      -0.00321936      -0.00593418
C        7.42381246       4.24013626       3.89223142       0.00098707       0.00117767       0.00096783
C        6.17348067       6.37553890       3.76183817      -0.00561625       0.00500847       0.00563907
C        4.95996609       8.53580405       3.76167207       0.00112670       0.00882292       0.00249211
C        0.02526367       1.39259206       4.09818347      -0.00701694       0.00430079       0.00490877
C       -1.21175793       3.53149876       4.03896735      -0.00447681       0.00219063       0.00479608
C       -2.45135895       5.66634260       3.83457893      -0.00535660       0.00840410      -0.00009563
C       -3.68694552       7.79727665       3.84429001       0.00569682       0.00594129       0.00143340
C       -4.91937113       9.92604603       3.98640405      -0.00158412      -0.00318630      -0.00418449
C        2.48584337       1.36957814       4.04294546       0.00217665       0.00023673       0.00332782
C        1.27807664       3.53609157       4.08288099       0.00203794      -0.00692301      -0.00077299
C       -0.02370244       5.60015068       3.54962623       0.00832358       0.00304611       0.01727917
C       -1.21767964       7.80301621       3.58564780      -0.00522818      -0.01075098       0.00465462
C       -2.45172839       9.92660774       3.85626646      -0.00367628      -0.00248374      -0.00158400
C        4.95191996       1.37798757       3.89848850      -0.00085156      -0.00494058      -0.00051558
C        3.73425925       3.48870393       3.94072903       0.00331711       0.00116677       0.00692515
C        1.24977283       7.95182394       3.15449869      -0.00431049       0.00047091      -0.00287349
C        0.00784510       9.96122177       3.67404480      -0.00078036      -0.00661222       0.00299820
C        7.41763955       1.40635486       3.89687983      -0.00214676      -0.00449063      -0.00002065
C        6.19188961       3.51519088       3.85308408      -0.00442018       0.00100203       0.00544379
C        4.92196673       5.62629983       3.62146373      -0.00207282       0.00817242      -0.00730055
C        3.69525599       7.87226235       3.46190891       0.00678584       0.00481483      -0.00477692
C        2.48195877      10.00943617       3.67067763       0.00708129      -0.00789806      -0.00937848
C        9.89172127       1.40667826       4.01867533      -0.00217866      -0.00480810      -0.00821892
C        8.65473236       3.53728186       3.96846450       0.00712526      -0.00196125       0.00280477
C        7.40555064       5.66845405       3.85502429       0.00296624       0.00359062      -0.01054917
C        6.16832216       7.79551438       3.81474384       0.00197361       0.00070068      -0.00260153
C        4.95579589       9.94781574       3.91644426       0.00709596       0.00838488       0.00377981
Tc       3.10720210       6.17126917       4.67376185      -0.00391037       0.01010219       0.00371907
O        4.01045683       6.14682052       6.11241674      -0.00113942      -0.00424690      -0.00390463
O        1.66887349       6.71699604       5.93757554       0.00233115       0.01247332      -0.00308424
H        1.84972017       6.76793464       6.89637347       0.00285233      -0.00176391      -0.00227759
