52
Lattice="12.336457 0.0 0.0 -6.168228499999997 10.683685154694365 0.0 0.0 0.0 15.0" Properties=species:S:1:pos:R:3:initial_magmoms:R:1:forces:R:3 energy=-469.50786109795337 free_energy=-469.50786109795337 stress="-0.0016131972818273406 -0.0015890285430573553 2.4565124932710627e-05 -0.0015890285430573553 2.7573649868621442e-05 -9.334578614832407e-06 2.4565124932710627e-05 -9.334578614832407e-06 1.1117775246764556e-06" pbc="T T T"
C       -0.01495716      -0.01000654       3.60942919       0.00000000       0.00453013      -0.00125171       0.00043088
C       -1.25761763       2.12057759       3.68492753       0.00000000       0.00062120      -0.00148932      -0.00543524
C       -2.49113574       4.25732903       3.67612348       0.00000000       0.00073670      -0.00004612       0.00305529
C       -3.71480911       6.39874988       3.60021437       0.00000000       0.00719436       0.00082927      -0.00203068
C       -4.94343182       8.53951275       3.57294165       0.00000000      -0.00151266      -0.00073996       0.00327815
C        2.45419140      -0.01014448       3.58586546       0.00000000       0.00127452       0.00159532      -0.00188420
C        1.21351214       2.11612275       3.72124750       0.00000000      -0.00493861      -0.00062395      -0.00226999
C       -0.03155048       4.25241922       3.88708264       0.00000000       0.00259705      -0.00158927      -0.00389439
C       -1.25836972       6.39862132       3.72048383       0.00000000       0.00129046       0.00051201       0.00015568
C       -2.47989842       8.53642541       3.58739711       0.00000000       0.00015503       0.00011960      -0.00250954
C        4.92107348      -0.01085141       3.60792943       0.00000000      -0.00020552      -0.00273126      -0.00173501
C        3.67835348       2.13504511       3.68724888       0.00000000      -0.00623888       0.00494002       0.00758238
C        2.43186200       4.20833415       4.13812184       0.00000000       0.00226542      -0.00116338      -0.00631820
C        1.16532078       6.40510654       4.14079280       0.00000000      -0.01505604       0.00487580      -0.00704592
C       -0.01014906       8.52353724       3.70113428       0.00000000       0.00461842      -0.00272318      -0.00366384
C        7.38646537      -0.02140160       3.66247992       0.00000000      -0.00200490       0.00142520       0.00643882
C        6.14437276       2.13028131       3.65203617       0.00000000      -0.00287025      -0.00352974      -0.00411441
C        4.90597771       4.28646005       3.80683857       0.00000000       0.00448108       0.00051734       0.01144391
N        3.81261216       6.47039179       4.13526875       0.00000000      -0.00098669      -0.00154769       0.01120175
C        2.46657558       8.51291911       3.83087092       0.00000000       0.00626333      -0.00414986      -0.00791802
C        9.85036432      -0.02009472       3.66507005       0.00000000      -0.00333083      -0.00573777      -0.00044895
C        8.61168197       2.12067605       3.64770873       0.00000000       0.00417674       0.00211506      -0.00330121
C        7.37680284       4.26380499       3.64703644       0.00000000      -0.00294091       0.00212544      -0.00100156
C        6.16113952       6.41122830       3.67236889       0.00000000       0.00008815      -0.00038923       0.00063749
C        4.93389331       8.53706465       3.68556793       0.00000000       0.00376218       0.00365864      -0.00350943
C       -0.01861771       1.41190189       3.66312528       0.00000000      -0.00025824      -0.00149481      -0.00651399
C       -1.25698588       3.54548194       3.73937345       0.00000000       0.00154326      -0.00072527       0.00249317
C       -2.48487930       5.68452877       3.65456471       0.00000000       0.00646819      -0.00089320       0.00197844
C       -3.71038305       7.82364520       3.57392972       0.00000000      -0.00092867       0.00090923       0.00150660
C       -4.94701483       9.96496433       3.57728042       0.00000000       0.00432787      -0.00090861       0.00047481
C        2.44961193       1.41352188       3.65553943       0.00000000      -0.00418657       0.00275098       0.00682940
C        1.21213573       3.54148529       3.90903830       0.00000000       0.00148432      -0.00110543      -0.00245122
C       -0.02340822       5.68510808       3.90937722       0.00000000      -0.00535514      -0.00249571       0.00102864
C       -1.24919913       7.82026519       3.66131273       0.00000000       0.00248377      -0.00006481       0.00137605
C       -2.47972402       9.96129125       3.58152568       0.00000000       0.00023424      -0.00016526      -0.00188801
C        4.91284556       1.41872581       3.63544132       0.00000000      -0.00642040      -0.00037840       0.00764740
C        3.66044557       3.56984891       3.85281202       0.00000000       0.00091132       0.00717484      -0.00432939
C        1.22404405       7.79054484       3.86763197       0.00000000       0.00430313      -0.00131890       0.00286701
C       -0.01350752       9.95077679       3.64591594       0.00000000       0.00158590      -0.00336463      -0.00151484
C        7.37812656       1.40818414       3.64315297       0.00000000       0.00277048       0.00291663      -0.00145661
C        6.13365556       3.56372002       3.68555045       0.00000000      -0.00026446      -0.00336892       0.00623124
C        4.93602199       5.72598101       3.85714211       0.00000000      -0.00268439       0.00009120      -0.00064090
C        3.72842911       7.81889884       3.87437447       0.00000000       0.00538061      -0.00054096      -0.00446973
C        2.45434918       9.93727894       3.70621698       0.00000000      -0.00464187      -0.00443017       0.00017085
C        9.84673278       1.40662162       3.65553475       0.00000000       0.00122147      -0.00395403      -0.00609882
C        8.61073713       3.54738143       3.64387276       0.00000000      -0.00128174       0.00212812       0.00529610
C        7.38666001       5.68797705       3.62600746       0.00000000       0.00424422       0.00182703      -0.00292014
C        6.16484991       7.83067026       3.63400136       0.00000000       0.00024599      -0.00112072       0.00288094
C        4.92032836       9.95980627       3.64114664       0.00000000       0.00233959       0.00244195       0.00062783
Tc       2.53067324       5.72089290       5.57567020       0.00000000      -0.00775232       0.01383390       0.00973189
O        3.55319917       4.78686695       6.60808876       1.00000000      -0.00067248      -0.01174870      -0.00542421
O        2.15726540       7.03690549       6.63077866       1.00000000      -0.00906752       0.00900344      -0.00057629
