53
Lattice="12.336457 0.0 0.0 -6.168228499999997 10.683685154694365 0.0 0.0 0.0 15.0" Properties=species:S:1:pos:R:3:forces:R:3 energy=-473.6308692715558 free_energy=-473.6308692715558 stress="-0.0016232657916667233 -0.0008719020013519843 -2.5506775444857136e-05 -0.0008719020013519843 -0.001159255282332286 5.6661573010863956e-05 -2.5506775444857136e-05 5.6661573010863956e-05 3.830742434441417e-05" pbc="T T T"
C        0.04034183       0.00627165       3.68427532       0.00889973       0.00827356       0.00207912
C       -1.19793201       2.14186894       3.75564516      -0.00255578       0.00080015      -0.00065980
C       -2.43032477       4.27778008       3.73576484      -0.00247726      -0.00253349      -0.00226792
C       -3.66028067       6.41636355       3.65034150       0.00600941       0.00299649       0.00382359
C       -4.89098051       8.55558271       3.63104343       0.00438234      -0.00022850      -0.00004684
C        2.50906786       0.00535963       3.68340774       0.00217534       0.00495372      -0.00218180
C        1.26907281       2.12890809       3.83096530      -0.00615597      -0.00305522      -0.00345764
C        0.03305387       4.27530382       3.96243758       0.00048202      -0.00151395       0.00557172
C       -1.20211850       6.41909129       3.77683950      -0.00600441       0.00665499      -0.00429309
C       -2.42640009       8.55486179       3.65633736       0.00348190       0.00082920      -0.00401807
C        4.97587015       0.00755467       3.70354951      -0.00653289      -0.00254600       0.00234748
C        3.73985503       2.14104849       3.82593888       0.00219233       0.00730740       0.00776609
C        2.49772225       4.18898280       4.30959998       0.00192795       0.00558120      -0.00590421
C        1.20273797       6.45286828       4.23274886      -0.01056058       0.00344342      -0.01583826
C        0.03883608       8.55356932       3.78519181       0.00117611      -0.00318802      -0.00080200
C        7.44365260       0.00224173       3.75203851      -0.00582245       0.00027657      -0.00051941
C        6.20344322       2.14859604       3.75557372       0.00215747       0.00121029      -0.00631746
C        4.96430954       4.30000600       3.90645256      -0.00329733       0.00285354       0.00107858
N        3.84687302       6.48009657       4.09750391      -0.00549864      -0.00665745      -0.00219697
C        2.52063774       8.53951675       3.91598590       0.00149331      -0.00670843      -0.00358505
C        9.90786398       0.00158647       3.73516265       0.00089068       0.00053128       0.00576883
C        8.67141835       2.14255317       3.72077654       0.00382548      -0.00152072       0.00365149
C        7.43484809       4.28264276       3.71470969      -0.00251338       0.00036328       0.00501636
C        6.21154773       6.42733545       3.70700811      -0.00375175      -0.00459340      -0.00216883
C        4.98710864       8.55420424       3.73178335      -0.00037290       0.00521695      -0.00391026
C        0.03760814       1.42782950       3.74650285      -0.00669667       0.00132797       0.00282570
C       -1.19618353       3.56639349       3.80461290      -0.00298655      -0.00240347       0.00276130
C       -2.42822600       5.70414086       3.70758559      -0.00029830       0.00244499       0.00703137
C       -3.65719762       7.84094050       3.63050381       0.00412076       0.00296230       0.00500326
C       -4.89291957       9.98051059       3.65485649       0.00548844       0.00469158      -0.00450349
C        2.50663294       1.42534728       3.78040171      -0.00041200       0.00619234      -0.00228499
C        1.26445962       3.54949731       4.02770546       0.00332022      -0.00261746      -0.00528463
C        0.03211807       5.70806870       3.97904623      -0.00840897       0.00478336       0.00110202
C       -1.19489691       7.84190980       3.73064251       0.00043881       0.00250362       0.00081155
C       -2.42470698       9.97888876       3.66848784      -0.00328464      -0.00290254       0.00637666
C        4.97241852       1.43320737       3.75094792       0.00112666      -0.00207804       0.00083599
C        3.73457418       3.56752036       4.00766641       0.00262462       0.00676945       0.00520685
C        1.27399522       7.83103732       3.96614668      -0.00139663       0.00333371       0.00597568
C        0.04137342       9.97566567       3.73422086      -0.00595079      -0.00345300       0.00511479
C        7.43752759       1.43002265       3.73137741       0.00136465       0.00202559      -0.00108927
C        6.19477899       3.57949312       3.77921485      -0.00409903       0.00349243      -0.00167404
C        4.98151491       5.74038831       3.88043928      -0.00745355      -0.00146630       0.00207589
C        3.77621852       7.83524514       3.90962857       0.00160015      -0.00732268      -0.00082753
C        2.51098908       9.96376081       3.78918315      -0.00237210      -0.00469786       0.00159183
C        9.90589975       1.42842443       3.72365133       0.00308370      -0.00289847       0.00393450
C        8.67035745       3.56838544       3.71045608       0.00113667      -0.00321210       0.00023775
C        7.43988116       5.70634796       3.67648185       0.00513327       0.00205612       0.00478140
C        6.21441917       7.84599836       3.67513632      -0.00064967      -0.00211369      -0.00055842
C        4.97526071       9.97632214       3.70528313       0.00826108       0.00923073       0.00268218
Tc       2.53293014       5.69489050       5.59898497       0.01239213      -0.00945493      -0.00202316
O        3.88331165       5.68984240       6.66573565      -0.00620729       0.00319321      -0.00965591
O        1.12274341       5.53923753       6.88133453       0.01106400      -0.01417326      -0.00578128
H        1.37447200       5.48589033       7.82296446       0.00551033      -0.01496046      -0.00360169
