52
Lattice="12.336457 0.0 0.0 -6.168228499999997 10.683685154694365 0.0 0.0 0.0 15.0" Properties=species:S:1:pos:R:3:forces:R:3 energy=-451.39793222599667 free_energy=-451.39793222599667 stress="-0.0007132792579242269 -0.0019576270022532653 -1.2805644928368324e-05 -0.0019576270022532653 -0.0009398710225751066 -2.0879609790294347e-05 -1.2805644928368324e-05 -2.0879609790294347e-05 6.0393754592488e-05" pbc="T T T"
C        0.05571566      -0.05200411       3.89111794       0.00613025       0.00564638       0.01430106
C       -1.18407083       2.08859338       3.98990298       0.00408575       0.00554049       0.00132211
C       -2.42589390       4.22814263       3.79660535      -0.00140868      -0.00467502      -0.00842442
C       -3.63849894       6.36699959       3.63744154       0.00401945       0.00007931       0.00340694
C       -4.87256016       8.50183514       3.70144824      -0.00720966      -0.00935523      -0.00259195
C        2.53453216      -0.07805432       3.78621061      -0.00072915       0.00172642       0.00536188
C        1.32568389       2.02026689       4.17445294       0.00025351      -0.00341011       0.01507342
C       -0.03391474       4.29471309       4.24725957      -0.00209154      -0.00072694      -0.00006094
C       -1.20502449       6.38545680       3.82467462       0.00526811      -0.00241732       0.00418599
C       -2.40098024       8.49886955       3.69173005       0.00782816       0.00068267      -0.00077753
C        5.00155138      -0.05294499       3.63055089      -0.00665680       0.00512773       0.00655686
C        3.72325019       2.03172152       3.50102214      -0.00221357       0.00532350       0.00321603
C        1.19876120       6.40853717       4.43232178       0.00663340       0.00004654       0.00084774
C        0.07643706       8.49423034       3.82248072       0.00414726       0.01026299       0.00171364
C        7.46606577      -0.05393387       3.69820367       0.00360163      -0.00887388       0.00214494
C        6.20995636       2.11004999       3.47957310       0.00788645      -0.00682787       0.00350563
C        5.03346266       4.33626721       3.24227206      -0.00507387      -0.00215652      -0.00394807
O        3.84568474       6.43641171       3.36166188       0.00345627      -0.00952294       0.00555504
C        2.55449385       8.45910489       3.83644080      -0.00483237      -0.00697539      -0.00626878
C        9.92341968      -0.05581798       3.80672072      -0.00523671       0.00753588      -0.00116061
C        8.68612939       2.09173994       3.70404620       0.00210580       0.00433035      -0.00633936
C        7.45432032       4.23912832       3.53412511      -0.00397370       0.00293388       0.00097843
C        6.24943604       6.39774330       3.50879629       0.00074933      -0.00873897      -0.00671264
C        4.99965381       8.49989169       3.70594963      -0.00860923       0.00621708       0.00257251
C        0.05698009       1.36968652       4.05302326       0.00352327       0.00573767       0.01246314
C       -1.20303827       3.51795477       4.00220025      -0.00072615      -0.00039692      -0.00150203
C       -2.41780324       5.65359105       3.73536931       0.00129571      -0.00475629       0.00528855
C       -3.63375319       7.78994737       3.66671331       0.00279079       0.00088177      -0.00006487
C       -4.87687423       9.91726446       3.81142661       0.00021806      -0.00325959      -0.00438298
C        2.53654074       1.33197266       3.85548701      -0.00056864       0.00335324       0.00249448
P        1.50663732       3.64151939       4.77589140      -0.01156046       0.00078777      -0.00110282
C        0.00091732       5.70556873       4.14535266       0.00751024      -0.00288386      -0.00682194
C       -1.17248056       7.79661299       3.76525644       0.01069610       0.00096731      -0.00790955
C       -2.39573673       9.91537520       3.68789661      -0.00243125       0.00119134       0.00573102
C        4.98309904       1.38472849       3.51080679       0.00002345       0.00201395      -0.00352558
S        3.48242811       3.64769354       2.91057233      -0.00807540      -0.00375726      -0.00391997
C        1.30446111       7.76782894       4.02680809      -0.00204916       0.00118710      -0.00167497
C        0.06955601       9.91627209       3.69874103      -0.00379797       0.00797410      -0.00762635
C        7.44567647       1.38514835       3.61476493       0.00954304      -0.00873828       0.00550878
C        6.20644668       3.54636139       3.40835033      -0.00428643      -0.00080893       0.00748828
C        5.04596435       5.74224179       3.33251075      -0.00247053      -0.00332006      -0.00116764
C        3.80074926       7.78213288       3.65968712      -0.00296334      -0.00139022      -0.01019307
C        2.53317080       9.89530469       3.77190114      -0.00037520      -0.00794750      -0.00421002
C        9.92286165       1.37912296       3.83494443       0.00116747       0.00856713       0.00046294
C        8.68593376       3.51761158       3.67070797      -0.00643405       0.00308060       0.00644138
C        7.46902054       5.65652402       3.55240414       0.00453744       0.00067687       0.00089527
C        6.23955173       7.80835023       3.63761617      -0.01126435      -0.01090118       0.00593320
C        4.98832372       9.92380969       3.81504081      -0.00090267       0.01275282       0.00479192
Tc       2.24700289       5.41212612       5.92664084       0.01038250       0.00766735      -0.00625617
O        3.93753951       5.66984384       5.94072782      -0.00117356      -0.00736398      -0.00878106
O        1.43370015       5.69765927       7.58495722      -0.00250259       0.00970963      -0.01410910
H        1.51299837       5.09571221       8.34420934       0.00176359      -0.00279758      -0.00870877
