52
Lattice="12.336457 0.0 0.0 -6.168228499999997 10.683685154694365 0.0 0.0 0.0 15.0" Properties=species:S:1:pos:R:3:forces:R:3 energy=-453.06487395337115 free_energy=-453.06487395337115 stress="-0.008723902989009656 -0.004794741136468422 3.557565472230204e-05 -0.004794741136468422 -0.002505176622654032 -3.6318478093012945e-06 3.557565472230204e-05 -3.6318478093012945e-06 -7.217549230428864e-06" pbc="T T T"
C        0.03168424      -0.01652545       4.02274003      -0.00267212      -0.00343992      -0.00686311
C       -1.24290589       2.08413958       3.98841759       0.00398349      -0.00172385       0.00148787
C       -2.46690531       4.24034311       3.88278206       0.00279757       0.00507003      -0.00214683
C       -3.64422547       6.40118271       3.86983093      -0.00281202      -0.00446340       0.00130080
C       -4.86766697       8.55233706       3.96538447      -0.00297965      -0.00119648      -0.00140229
C        2.50490641       0.00359070       3.92806675      -0.00592273      -0.00212461      -0.00251267
C        1.21984813       2.14311011       3.95431970      -0.00345027       0.00136653      -0.00340297
C       -0.05694557       4.18062117       3.79361236      -0.00001235       0.00412352      -0.00170356
C       -1.20822893       6.37169915       3.70409424       0.00910037       0.00092179       0.00117228
C       -2.40607241       8.52946810       3.83102795       0.00686742      -0.00566693      -0.00444086
C        4.96201909      -0.00989778       3.75058680       0.00428245       0.00409065       0.00606238
C        3.68933378       2.09128778       3.54916017       0.00603817       0.00236200      -0.00399712
S        1.41453429       6.21637444       2.95060351       0.00736652      -0.00136798       0.00843203
C        0.04691040       8.51261803       3.66964786       0.00396406      -0.01044214      -0.00445403
C        7.42306169      -0.02633640       3.81569766      -0.00579789      -0.00018387       0.00462189
C        6.18271990       2.12665382       3.63334676      -0.00024244       0.01248663      -0.00072585
C        5.07971009       4.34346642       3.42124554      -0.00112804       0.00098303      -0.00620557
C        3.83884656       6.39290013       3.94695727       0.00260038      -0.00296269       0.00315488
C        2.50906190       8.51473894       3.83439701      -0.00243675       0.00161651       0.00703531
C        9.88712726      -0.03661034       3.98529622       0.00222818       0.00134763      -0.00177901
C        8.63843284       2.10629530       3.88192651      -0.00049968      -0.00443084      -0.00477417
C        7.44662551       4.26451792       3.76390832      -0.00621864      -0.00777146       0.00719710
C        6.27542595       6.43623773       3.81351204      -0.00212749       0.00089276       0.00072672
C        4.98970420       8.53289713       3.97077863      -0.00674022       0.00553770       0.01116862
C        0.00665649       1.40361708       4.00606844      -0.00029852      -0.00556743      -0.00114990
C       -1.27072597       3.49029683       3.90266012       0.00205591       0.00102602      -0.00078681
C       -2.43982698       5.66573103       3.83618731       0.00588696       0.00731336       0.00128039
C       -3.64067470       7.82820129       3.89841391       0.00114034      -0.00247437      -0.00553905
C       -4.88805424       9.97235331       3.99802881      -0.00711199      -0.00340588       0.00600401
C        2.48154537       1.43889395       3.85257840       0.00037190       0.00100102      -0.00732038
N        1.12433020       3.51192254       3.95893454      -0.00367625       0.00240950       0.00492130
C       -0.06443595       5.57555394       3.56154236       0.00357435       0.00059319      -0.00955840
C       -1.18305665       7.80487213       3.70656415       0.00853239      -0.00716032      -0.00781229
C       -2.42867591       9.96569802       3.84223851       0.00140042      -0.00085060      -0.00412007
C        4.94375683       1.42357472       3.63132352       0.00802043       0.01026575       0.00868019
S        3.58927582       3.70362773       2.84417670       0.00887527      -0.00267681      -0.00114711
C        1.30005005       7.84923229       3.56729607       0.00295571      -0.00541822       0.00347353
C        0.03094107       9.94891980       3.75231822      -0.00050507      -0.00840056      -0.01168410
C        7.40365840       1.40666885       3.78659189      -0.00553828       0.00300573      -0.00846283
C        6.22187402       3.55424147       3.58676932      -0.00608503       0.00387007      -0.00031964
C        5.05394083       5.72816270       3.70270092       0.00285413      -0.00462392       0.00267279
C        3.75774525       7.79343038       3.91872425      -0.00401027      -0.00101093       0.00544362
C        2.48930555       9.94104938       3.90369412      -0.00122884       0.00434103       0.00152156
C        9.86712331       1.38212391       3.97442880       0.00418983      -0.00258114      -0.00215378
C        8.64623935       3.53086674       3.86208008       0.00016251      -0.00182243      -0.00099439
C        7.47134777       5.69241501       3.81885878      -0.00539943      -0.00734829       0.00944025
C        6.24223833       7.84654326       3.94143484      -0.00663845       0.00521501       0.00064923
C        4.96676010       9.94934941       4.01036439      -0.00072252       0.00361321       0.00112987
Tc       2.58939890       4.92331235       4.61520682      -0.00106965       0.01836697      -0.00728511
O        3.31943294       4.00634638       5.87994008       0.00307037       0.00304492       0.01220205
O        1.51495328       5.79067378       6.01174990      -0.00161780      -0.00320452       0.01518073
H        1.85656317       5.73102430       6.92533047      -0.01537674      -0.00254497      -0.01221750
