52
Lattice="12.336457 0.0 0.0 -6.168228499999997 10.683685154694365 0.0 0.0 0.0 15.0" Properties=species:S:1:pos:R:3:initial_magmoms:R:1:forces:R:3 energy=-463.82117894372817 free_energy=-463.82117894372817 stress="-2.8251208261505586e-05 -0.000842548530909334 0.00012831317082800502 -0.000842548530909334 0.0001383960608315652 5.346592674432088e-05 0.00012831317082800502 5.346592674432088e-05 0.00021069168089643225" pbc="T T T"
C        0.04880378      -0.04743315       3.76185223       0.00000000      -0.00001283      -0.01160477      -0.06128415
C       -1.18816399       2.09065366       3.71494032       0.00000000      -0.01503085       0.02306575       0.02315422
C       -2.42192835       4.22384761       3.61726174       0.00000000       0.02913059       0.01808492      -0.06324824
C       -3.65782681       6.35862004       3.56904302       0.00000000      -0.01701812       0.03439096       0.00967246
C       -4.89118204       8.49739132       3.69067634       0.00000000       0.04509714      -0.04935449      -0.04364822
C        2.51865044      -0.05043629       3.62520975       0.00000000      -0.05624106      -0.01326024      -0.04385934
C        1.27438235       2.08091050       3.75561978       0.00000000       0.00429576      -0.06820116       0.00663101
C        0.04704948       4.24267749       3.79523814       0.00000000       0.04082924       0.00835908       0.03041796
C       -1.19610060       6.37018988       3.51153559       0.00000000       0.01591756      -0.04728440       0.05658981
C       -2.42451091       8.49544915       3.48376348       0.00000000       0.04248067       0.07205160       0.02232331
C        4.98422195      -0.05047983       3.47412435       0.00000000      -0.01148804       0.00744066       0.01363068
C        3.75148865       2.08257383       3.67521493       0.00000000       0.00807534       0.00393879       0.01615015
C        2.50909408       4.13871385       4.18556440       0.00000000      -0.00214975       0.07103116       0.06674835
N        1.14487908       6.43224613       4.00035256       0.00000000       0.16100686      -0.03676563       0.11802344
C        0.04808832       8.48759162       3.46846383       0.00000000      -0.05942612       0.01275693       0.05763295
C        7.45650447      -0.06112589       3.54882896       0.00000000       0.01940298       0.00659055       0.03824271
C        6.21516777       2.09236474       3.54521508       0.00000000      -0.02474646       0.00338419       0.06927000
C        4.97324255       4.24621117       3.81905114       0.00000000      -0.02318091       0.00069888      -0.00610900
O        3.81925320       6.40389593       3.95549231       0.00000000       0.00624249       0.03757658       0.02236561
C        2.52490936       8.45650556       3.74386195       0.00000000      -0.02826246      -0.06822574       0.04734637
C        9.91559365      -0.05846417       3.74232486       0.00000000      -0.06772428       0.00364595      -0.07667203
C        8.68259196       2.08485744       3.61526021       0.00000000      -0.02944703       0.01698965      -0.03576264
C        7.43883171       4.22722333       3.59004784       0.00000000       0.00821850      -0.03734040       0.08604068
C        6.21543469       6.36728136       3.76231974       0.00000000      -0.05626809      -0.02773424      -0.03235042
C        4.98884327       8.49646705       3.83386711       0.00000000      -0.04756106       0.04031980      -0.02751396
C        0.04463906       1.37723879       3.73727688       0.00000000      -0.00926369      -0.01771725       0.02644435
C       -1.18444362       3.52033012       3.69208658       0.00000000       0.00465799       0.00689283       0.00220807
C       -2.42095571       5.64694389       3.55321729       0.00000000      -0.01364627       0.04015929      -0.04440634
C       -3.65664018       7.78269845       3.57426790       0.00000000       0.03152522       0.04109467      -0.00731141
C       -4.88348589       9.92608408       3.70453044       0.00000000      -0.03299197      -0.01061505      -0.04517509
C        2.51295320       1.37072321       3.68008987       0.00000000       0.02838151      -0.00028429       0.02414469
C        1.26770916       3.50764196       3.91723573       0.00000000       0.05392180       0.00714607      -0.05811560
C        0.03651563       5.68082998       3.71574315       0.00000000       0.07932244      -0.03165345       0.10854137
C       -1.19084611       7.78504851       3.44910791       0.00000000      -0.03506878      -0.01592647       0.07935928
C       -2.41768650       9.92218959       3.51432037       0.00000000      -0.03982686       0.02646314      -0.01016697
C        4.98119917       1.37618863       3.53716901       0.00000000       0.02251240      -0.02391406       0.06489381
C        3.74617496       3.50069907       3.90238966       0.00000000      -0.01455691       0.01046669      -0.05326198
C        1.25265869       7.76106503       3.67816827       0.00000000      -0.03479191       0.03795885       0.06780916
C        0.05239653       9.91559682       3.46668755       0.00000000       0.00304647       0.00709077       0.01456285
C        7.45052797       1.36999573       3.55265174       0.00000000      -0.02463529       0.05478797       0.00713065
C        6.20662995       3.52076576       3.62273901       0.00000000      -0.01748260       0.00751206       0.08736195
C        5.02681970       5.64842040       3.88596620       0.00000000       0.02288864       0.01514319      -0.00098588
C        3.77067065       7.83046501       3.87587650       0.00000000       0.05865688       0.01208101      -0.08137203
C        2.51850988       9.90359021       3.67187165       0.00000000      -0.00507612      -0.07898527      -0.02891331
C        9.91676328       1.37452110       3.69329256       0.00000000      -0.02622973       0.00405965      -0.03545408
C        8.67927857       3.51177686       3.59212022       0.00000000       0.05284828      -0.04021048       0.01260242
C        7.44537316       5.64796897       3.63283170       0.00000000      -0.00020386      -0.03538501       0.02179304
C        6.22487134       7.78993204       3.78013460       0.00000000       0.03564313      -0.01209462      -0.02258099
C        4.98264447       9.92553218       3.79870761       0.00000000      -0.03210586       0.04022063      -0.05501121
Tc       2.47748026       5.68357030       5.42577571       0.00000000       0.17140122       0.01822733      -0.61393959
O        1.61721451       6.79631012       6.80521570       1.00000000       0.07707699       0.15939725      -0.06799626
O        1.03472674       5.52635355       6.61254341       1.00000000      -0.29814323      -0.22246984       0.31404736
