53
Lattice="12.336457 0.0 0.0 -6.168228499999997 10.683685154694365 0.0 0.0 0.0 15.0" Properties=species:S:1:pos:R:3:forces:R:3 energy=-470.357077978478 free_energy=-470.357077978478 stress="0.00017904780123139703 -0.0008150818679679992 -1.0778596669729066e-05 -0.0008150818679679992 0.0018745209681325576 1.410413752987582e-05 -1.0778596669729066e-05 1.410413752987582e-05 -2.390381843273417e-05" pbc="T T T"
C        0.00364385      -0.07540082       3.67793074      -0.00640235       0.00691256      -0.00524144
C       -1.23324007       2.05893279       3.78178451      -0.00303684       0.00357130      -0.00158031
C       -2.46355386       4.19495478       3.77965075      -0.00056779       0.00537088      -0.00586469
C       -3.69502041       6.33214098       3.67950620       0.00464586      -0.00094691      -0.00340844
C       -4.93034820       8.47082688       3.62034367       0.00180572      -0.00336701       0.00339672
C        2.47486916      -0.07556620       3.69384476      -0.00484211       0.00353881      -0.00876843
C        1.23417594       2.04934783       3.83291409       0.00160685       0.00419324      -0.00030330
C        0.00605758       4.20904392       4.00133048       0.00138434      -0.00145904      -0.00417213
C       -1.23410225       6.34037807       3.79019091       0.00342930       0.00123190       0.00287758
C       -2.45918454       8.47093308       3.67929920       0.00229695       0.00232166       0.00049362
C        4.94296420      -0.07526300       3.70907787      -0.00222187      -0.00097108      -0.00467404
C        3.70580198       2.06378479       3.81727793       0.00092053      -0.00154402       0.00012889
C        2.46546524       4.08941556       4.37049698       0.00488797      -0.00542034       0.00359519
N        1.12477249       6.39218350       4.25708472      -0.00185103       0.00089880      -0.00332056
C        0.00847269       8.45907708       3.76236193      -0.00279099       0.00392305      -0.00095844
C        7.41403024      -0.09183570       3.72900613      -0.00267633      -0.00099365       0.00298536
C        6.16891390       2.06972155       3.75201294      -0.00455762      -0.00274201      -0.00420045
C        4.91912274       4.24115242       3.81777402       0.00313958      -0.00335998      -0.00191971
O        3.79544553       6.38154685       3.57516805      -0.00597593      -0.00741797       0.01155108
C        2.48861229       8.40745972       3.74754836       0.00116098       0.00505485       0.00044116
C        9.86886481      -0.09238177       3.69694223      -0.00157598      -0.00003016       0.00665304
C        8.63680885       2.05699138       3.73995136       0.00119657      -0.00511877      -0.00048885
C        7.39703112       4.20028216       3.72140894       0.00245511      -0.00149625      -0.00476758
C        6.17599901       6.34267239       3.63253378       0.00249802      -0.00338165       0.00068907
C        4.94441044       8.46762464       3.60450335       0.00208763       0.00309423      -0.00200152
C        0.00168723       1.34667518       3.75800296      -0.00171027       0.00841884       0.00431640
C       -1.22756651       3.48860984       3.84354932      -0.00210817       0.00483228      -0.00754779
C       -2.46170481       5.61939940       3.74710920       0.00416178       0.00338186      -0.00075408
C       -3.69271017       7.75725246       3.65080078       0.00574965      -0.00207939       0.00233897
C       -4.92760102       9.89961417       3.65461196      -0.00568317       0.00038096      -0.00347688
C        2.47153681       1.34614971       3.78002179       0.00012921       0.00429067       0.00151932
C        1.23611619       3.47409639       4.06228142       0.00131632      -0.00167055       0.00296970
C       -0.00771463       5.64681145       3.99731294      -0.00063792      -0.00270689       0.00968211
C       -1.23075788       7.75699651       3.74349067       0.00096829       0.00135225      -0.00723276
C       -2.45848478       9.89801576       3.68508196      -0.00321152       0.00343348      -0.00037526
C        4.93886575       1.35239806       3.74545209      -0.00404108      -0.00262279       0.00762702
C        3.69146404       3.49446798       3.98601502       0.00754405      -0.00575718       0.00928027
C        1.21818534       7.73416759       3.90322273      -0.00088871       0.00425786       0.00060717
C        0.00980768       9.88872415       3.72124268      -0.00277297       0.00126551      -0.00487512
C        7.40398074       1.34420031       3.73402441      -0.00262074      -0.00286381      -0.00138391
C        6.15408278       3.50502238       3.75642665       0.00102913      -0.00220926      -0.00174161
C        4.95895540       5.65575964       3.67357703       0.00171811      -0.00701494       0.00410442
C        3.74362199       7.75672074       3.61911701      -0.00000278      -0.00131076      -0.00018827
C        2.47643892       9.85586258       3.71864872      -0.00140911       0.00391001      -0.00678036
C        9.87094373       1.34266449       3.73377038       0.00040774      -0.00308007       0.00698613
C        8.63674309       3.48345554       3.74371665       0.00120957      -0.00240891      -0.00594423
C        7.40686270       5.61959005       3.67652821       0.00362493      -0.00175241      -0.00105005
C        6.18117419       7.76287689       3.59765315       0.00037564      -0.00255921       0.00203614
C        4.93660964       9.89545253       3.65480972      -0.00346074       0.00417475      -0.00410573
Tc       2.20164414       5.53832699       5.77910847       0.00319105       0.00702167      -0.00084954
O        1.04248565       5.10538616       6.94130394      -0.00630429      -0.00993005       0.00993652
O        3.63298043       6.64152878       6.29986688      -0.01002554       0.00738929      -0.00174522
H        3.63243734       7.18839596       7.10742213       0.01643500      -0.00800563       0.00550480
