51
Lattice="12.336457 0.0 0.0 -6.168228499999997 10.683685154694365 0.0 0.0 0.0 15.0" Properties=species:S:1:pos:R:3:initial_magmoms:R:1:forces:R:3 energy=-453.6979096583039 free_energy=-453.6979096583039 stress="-0.0033556160180638465 -0.0026852299563329637 -7.804479380001412e-06 -0.0026852299563329637 0.0061842884561403196 -4.171776756617398e-06 -7.804479380001412e-06 -4.171776756617398e-06 1.755610165534319e-05" pbc="T T T"
C       -0.01446416       0.00577866       3.91351738       0.00000000      -0.00863394      -0.00162364      -0.00609858
C       -1.27033014       2.11623702       3.86729331       0.00000000       0.00398403      -0.00320052      -0.00380507
C       -2.48442286       4.25941054       3.74003082       0.00000000      -0.00361187      -0.00014984      -0.00475599
C       -3.69046848       6.41747168       3.72543678       0.00000000      -0.00470778      -0.00296920      -0.00918440
C       -4.92847944       8.56765564       3.84173167       0.00000000      -0.00250547      -0.00066797      -0.00491989
C        2.45419349       0.03133075       3.83734488       0.00000000       0.00216489       0.00522506      -0.00044411
C        1.18885548       2.18935685       3.94106673       0.00000000      -0.00035001       0.00456039       0.00052999
C       -0.05061418       4.24675725       3.91203183       0.00000000       0.00249770      -0.00290337      -0.00615472
C       -1.25166356       6.40789816       3.74115571       0.00000000      -0.00243159      -0.00208133       0.00331025
C       -2.47111621       8.55716926       3.76290856       0.00000000       0.00069235      -0.00525328       0.00221079
C        4.92052806      -0.00146860       3.64530859       0.00000000       0.00974540      -0.00257723       0.00286083
C        3.64598104       2.10731612       3.43067811       0.00000000       0.00161575       0.00015094       0.00859953
N        1.15117350       6.35902196       3.80827405       0.00000000      -0.00409148       0.00338425      -0.00485824
C       -0.00311399       8.50637833       3.71722746       0.00000000      -0.00132362       0.00467255       0.00642486
C        7.38907268      -0.04120337       3.67994859       0.00000000       0.00499554       0.00069971       0.00702774
C        6.14917009       2.12962600       3.46562949       0.00000000      -0.00245357       0.00192202       0.00146513
C        5.03284988       4.36326762       3.26553852       0.00000000       0.00269466       0.00014113      -0.00206828
N        3.80460700       6.37873601       3.78190391       0.00000000       0.00617018       0.00794426      -0.00652102
C        2.45797237       8.45356935       3.81996523       0.00000000      -0.00194895      -0.00326495       0.00382952
C        9.84212789      -0.04362191       3.83020160       0.00000000      -0.01044779      -0.00034299      -0.00768539
C        8.61112844       2.11137783       3.68244055       0.00000000      -0.00152121       0.00227742      -0.00087434
C        7.41473163       4.27485018       3.56694405       0.00000000      -0.00313192      -0.00010963       0.00538640
C        6.21879538       6.44911949       3.65006072       0.00000000       0.00054198      -0.00866343      -0.00276487
C        4.93181410       8.52529853       3.85562332       0.00000000       0.00473505       0.00199800      -0.00669263
C       -0.02249338       1.43949842       3.92683102       0.00000000       0.00294509      -0.00277365      -0.00885972
C       -1.26931039       3.53496894       3.82936639       0.00000000      -0.00150440      -0.00246560       0.00066688
C       -2.47287515       5.68945400       3.73242712       0.00000000      -0.00445768       0.00018110      -0.00233614
C       -3.69824008       7.84628232       3.78277395       0.00000000      -0.00298120      -0.00448677       0.00552552
C       -4.94030226       9.99330295       3.89477952       0.00000000      -0.00324694       0.00345779       0.00083517
C        2.43834192       1.46883438       3.78107715       0.00000000      -0.00165295       0.00673623       0.00507625
N        1.11995493       3.56783791       4.09324017       0.00000000       0.00359434       0.00273480       0.00609023
C       -0.03671003       5.69396999       3.81137613       0.00000000      -0.00053169      -0.00138927      -0.00463760
C       -1.24359018       7.82929384       3.72974130       0.00000000       0.00081661      -0.00203899       0.00593036
C       -2.48011864       9.98937406       3.75509180       0.00000000       0.00689616      -0.00163949       0.00129372
C        4.90376950       1.43207667       3.49613805       0.00000000       0.00066828      -0.00187862       0.00582018
S        3.49598805       3.74043962       2.79394738       0.00000000       0.00505419       0.00155142       0.00430052
C        1.21157821       7.73962318       3.77189228       0.00000000      -0.00645910       0.00277589       0.00406679
C       -0.01038003       9.94135516       3.67339272       0.00000000       0.00938216       0.00265870       0.01065819
C        7.37300293       1.40083259       3.60490864       0.00000000      -0.00127719       0.00139682      -0.00015951
C        6.18131219       3.56716317       3.40647317       0.00000000       0.00027653       0.00120769       0.00527978
C        5.01257662       5.75067280       3.53419197       0.00000000      -0.00037086      -0.00118366      -0.00531897
C        3.71855450       7.76791511       3.85308765       0.00000000       0.00612762       0.00584860      -0.00247380
C        2.44870670       9.89918611       3.77904286       0.00000000      -0.00374637      -0.00648108       0.00260646
C        9.83790452       1.39108525       3.79823736       0.00000000      -0.00171007       0.00112450       0.00910472
C        8.62464732       3.54298736       3.66227660       0.00000000      -0.00439226       0.00257411       0.00327736
C        7.42707196       5.70388662       3.64401964       0.00000000      -0.00203761      -0.00495330      -0.00699193
C        6.18501279       7.85532774       3.80585889       0.00000000       0.00183844      -0.00746401      -0.00757513
C        4.91926841       9.95239604       3.88409570       0.00000000      -0.01149011       0.00138874       0.00055993
Tc       2.60199162       5.00427570       4.77291202       0.00000000       0.01033462       0.00078348       0.00838902
O        2.12558649       5.97626440       6.11227027       1.00000000       0.00593030       0.00185431       0.00393386
O        3.51872878       3.87639324       5.69922995       1.00000000      -0.00068421       0.00131194      -0.01987967
