51
Lattice="12.336457 0.0 0.0 -6.168228499999997 10.683685154694365 0.0 0.0 0.0 15.0" Properties=species:S:1:pos:R:3:initial_magmoms:R:1:forces:R:3 energy=-443.8620207722096 free_energy=-443.8620207722096 stress="-0.005315788953090381 -0.004190413406023511 -6.617471172870406e-06 -0.004190413406023511 -0.005032275171765588 -2.908596703483923e-06 -6.617471172870406e-06 -2.908596703483923e-06 -2.1409890362032835e-05" pbc="T T T"
C       -0.06173991      -0.04620580       3.68279571       0.00000000       0.00167356      -0.00596237      -0.00303285
C       -1.32799122       2.07867117       3.89123551       0.00000000      -0.00398021      -0.00058882       0.00344493
C       -2.55114141       4.23557641       3.67918887       0.00000000      -0.00674984       0.00504366       0.00066573
C       -3.73135895       6.38818940       3.41977298       0.00000000      -0.00470373       0.00356351      -0.00531406
C       -4.96466673       8.53115411       3.44762038       0.00000000      -0.00239954      -0.00584922      -0.00253893
C        2.41452133      -0.05661406       3.68229116       0.00000000       0.00113760       0.00048040       0.00953373
C        1.15968506       1.98360959       4.23575981       0.00000000      -0.00068664      -0.00016556       0.00287680
C       -0.27434938       4.23093338       4.50191038       0.00000000      -0.00705711      -0.00557912       0.00209480
C       -1.34683780       6.38851923       3.93929817       0.00000000      -0.00267792      -0.00042470       0.00180826
C       -2.50335116       8.51387654       3.60264929       0.00000000       0.00493160       0.00918197      -0.00264607
C        4.87616450      -0.02088589       3.58465107       0.00000000       0.00321142       0.00125978       0.01353261
C        3.59914215       2.06121714       3.65340249       0.00000000       0.00624766      -0.00016605       0.00225781
P        1.23889265       6.38386331       4.93079345       0.00000000      -0.00202339       0.00039550       0.00088983
C       -0.05708364       8.53876708       3.85714319       0.00000000       0.00114792      -0.00072461      -0.00455478
C        7.34359808      -0.03104232       3.56820848       0.00000000      -0.00269194       0.00218168      -0.00279946
C        6.09016518       2.12285953       3.38962938       0.00000000      -0.00131741      -0.00406825      -0.00248336
C        4.96381466       4.34802409       3.30088531       0.00000000       0.00118370       0.00249112       0.00266610
N        3.84011033       6.39094562       3.88870498       0.00000000       0.00990421       0.00414042      -0.00611471
C        2.44419966       8.51598528       3.82949120       0.00000000       0.00406359      -0.00183064      -0.00160599
C        9.80866957      -0.04038214       3.60294803       0.00000000       0.00043790      -0.00040999      -0.00675707
C        8.56668833       2.10343499       3.49920686       0.00000000       0.00406829       0.00213538      -0.00623126
C        7.36609369       4.25915533       3.28997454       0.00000000      -0.00367154      -0.00519875       0.00672793
C        6.17646986       6.43785082       3.27100041       0.00000000      -0.00109019      -0.00047132      -0.00779836
C        4.90173815       8.51212271       3.54814379       0.00000000      -0.00130158       0.00020545      -0.00231613
C       -0.08097739       1.35799098       3.95433381       0.00000000      -0.00116412      -0.00454059       0.00257203
C       -1.37552338       3.49869867       4.01954614       0.00000000      -0.01093270       0.00060030       0.00228441
C       -2.53667953       5.66337131       3.64928956       0.00000000      -0.00586422       0.00580965       0.00093167
C       -3.73234852       7.81049275       3.46730024       0.00000000       0.00355856       0.00399444       0.00019033
C       -4.98949629       9.93655976       3.60441508       0.00000000       0.00253339      -0.00694180      -0.00278071
C        2.39613788       1.34373328       3.89300877       0.00000000       0.00545646       0.00044427       0.01716984
P        1.15059485       3.45174721       5.22840884       0.00000000       0.00403453       0.00958684       0.01163853
C       -0.25466607       5.63837922       4.42371117       0.00000000      -0.00113814      -0.00648158      -0.00666738
C       -1.28759241       7.80929019       3.80683108       0.00000000       0.00117466       0.00115591      -0.00193651
C       -2.51244077       9.93864921       3.60445598       0.00000000       0.00282478       0.00872044       0.00624964
C        4.85484988       1.41893803       3.51816218       0.00000000       0.00246602      -0.00335012      -0.00170083
S        3.37668185       3.74084021       3.33205409       0.00000000      -0.00115553      -0.00024954       0.00434211
C        1.19672739       7.90057680       4.09374697       0.00000000       0.00242641       0.00335751       0.00209737
C       -0.05690727       9.95254774       3.64111711       0.00000000      -0.00143116      -0.00094871      -0.00607599
C        7.32509026       1.40010264       3.45235407       0.00000000       0.00140529       0.00255384       0.00029918
C        6.11776083       3.55319434       3.27410242       0.00000000      -0.00361168      -0.00649845      -0.00253384
C        4.95543293       5.75687388       3.40394304       0.00000000       0.00288645      -0.00014145      -0.00087583
C        3.70260935       7.76212795       3.76712636       0.00000000       0.00441447      -0.00023482      -0.00678289
C        2.41772808       9.93098859       3.62721768       0.00000000      -0.00050329       0.00111630      -0.00253159
C        9.79752161       1.38477736       3.63977980       0.00000000       0.00166272       0.00060331      -0.00581357
C        8.57607959       3.52962848       3.45299413       0.00000000      -0.00058652       0.00079989       0.00163460
C        7.38107228       5.68415384       3.27364306       0.00000000      -0.00523319      -0.00321536       0.00031474
C        6.14365535       7.83867179       3.39709062       0.00000000      -0.00614832      -0.00270783      -0.00443894
C        4.87726904       9.93127637       3.59646928       0.00000000      -0.00021336      -0.00055513      -0.00141676
Tc       2.89116969       4.99692878       5.29127905       0.00000000       0.00344287       0.00062810      -0.00809236
O        4.57186629       4.84068357       6.32136360       1.00000000       0.00331609      -0.00795073      -0.00266848
O        3.97866185       6.00198669       6.64109617       1.00000000      -0.00127689       0.00480586       0.01228573
