52
Lattice="12.336457 0.0 0.0 -6.168228499999997 10.683685154694365 0.0 0.0 0.0 15.0" Properties=species:S:1:pos:R:3:forces:R:3 energy=-447.1839215175661 free_energy=-447.1839215175661 stress="-0.006442531449139161 -0.0016328838239522035 1.5179523475370654e-05 -0.0016328838239522035 -0.002543148842275065 1.6198973821757123e-06 1.5179523475370654e-05 1.6198973821757123e-06 3.521112563828212e-05" pbc="T T T"
C        0.08441415      -0.00492934       3.99395108       0.00037617      -0.00636039      -0.00549764
C       -1.17989377       2.11076493       3.71644128       0.00548331      -0.00076441       0.00271429
C       -2.42179883       4.26615815       3.85947576      -0.00156045       0.00169708       0.00773267
C       -3.59965453       6.41771806       4.13581344      -0.00177058       0.01212847       0.00478569
C       -4.82419963       8.56501366       4.20166218       0.00269489       0.01490251      -0.00001566
C        2.55823787      -0.00900719       3.92216592      -0.00145848      -0.00672183       0.00178858
C        1.29145668       2.02860135       3.39970353      -0.00702933      -0.00631333       0.00522098
C       -0.19165402       4.26904820       2.98567364       0.01024862      -0.00787677       0.01192907
C       -1.22967459       6.42479863       3.54684673       0.01662816       0.00057015       0.00445719
C       -2.36630702       8.54552315       3.96522117      -0.00208093       0.00833063       0.00333007
C        5.02823227      -0.00662734       3.90674929       0.00438423       0.00366673       0.00099581
C        3.78866419       2.07913243       3.54503764      -0.00620688      -0.00798300       0.00147052
P        1.42229618       6.40364218       2.50497902       0.00141647       0.00575552       0.00214885
C        0.09048552       8.54349220       3.71668424       0.00126610      -0.00695327       0.00240934
C        7.49237020      -0.01666178       3.99758027      -0.00214870       0.00733210      -0.00240295
C        6.25703548       2.13720391       3.96679443       0.00002337       0.01092523       0.00250280
C        5.11942125       4.35939250       3.91502540      -0.01535722      -0.00487881       0.00321378
N        3.89612726       6.42439351       4.00085947      -0.01123668      -0.00871131      -0.00642596
C        2.56977603       8.52253044       3.88432216      -0.00305851      -0.00928917       0.01011862
C        9.95483779      -0.01842148       4.05486133      -0.00021664       0.00877875      -0.00212441
C        8.71654275       2.12570775       4.05447920      -0.00063890      -0.00195940      -0.00613119
C        7.50514383       4.28038119       4.19951220      -0.00702799      -0.01031357      -0.00347018
C        6.30603684       6.45388018       4.30011960      -0.00041802      -0.00795260      -0.01047726
C        5.03930893       8.53986151       4.16835620       0.00993344      -0.00143706       0.00366746
C        0.06022324       1.39880189       3.70526125       0.00046694      -0.01169853      -0.00037133
C       -1.25202826       3.52321280       3.51941246       0.00550352      -0.00229804       0.00906115
C       -2.40932116       5.69756197       3.86981792       0.00391146       0.01006271       0.00597414
C       -3.59570246       7.84316974       4.12522218      -0.00416986       0.01577954       0.00099637
C       -4.84065849       9.98049782       4.05984214       0.00018030       0.00525739       0.00275793
C        2.54878061       1.39231059       3.62835086      -0.00881573      -0.01314399       0.00269342
S        1.22391181       3.46512912       2.39604043      -0.00980062       0.01587191      -0.00370740
C       -0.14240536       5.68072910       3.01468351       0.01017158      -0.00782902      -0.00001136
C       -1.15565069       7.83715144       3.73372261       0.00156604       0.00392249       0.00369177
C       -2.37145591       9.96960927       3.95248412       0.00230267       0.00428632       0.00075214
C        5.02523232       1.42258535       3.82176440       0.00058833       0.00735986       0.00105476
P        3.83536201       3.73418141       2.87971626       0.00431222       0.01149783      -0.00252063
C        1.34681628       7.87847723       3.54201849      -0.00059890      -0.01589575      -0.00067283
C        0.09244787       9.96013015       3.90564440       0.00186630      -0.00171718      -0.00152706
C        7.48342760       1.41433503       4.04486842      -0.00221983       0.00806109      -0.00326437
C        6.28323630       3.56917653       4.06398852      -0.00933046       0.00034010      -0.00358585
C        5.08537122       5.77529957       4.12017149      -0.00673577      -0.00626117      -0.00713839
C        3.82230518       7.79120326       4.03095056       0.00239453      -0.00544186       0.00306064
C        2.55951392       9.94694925       4.02319483      -0.00162443       0.00323181      -0.00808811
C        9.95155596       1.40991665       3.97134132       0.00405823       0.00841810       0.00476705
C        8.71512443       3.55351735       4.08586888      -0.00371701      -0.00679741      -0.00106933
C        7.51478009       5.70911987       4.26184591       0.00086286      -0.00765346      -0.00148503
C        6.28096084       7.86138084       4.26779629       0.01260178      -0.00012515      -0.00642685
C        5.02367844       9.95966293       4.09461171       0.00028315       0.00250196      -0.00329693
Tc       2.26518864       4.93921685       4.01549826       0.01085702      -0.00328904      -0.00535741
O        2.46546830       5.37320147       5.84362276       0.00886056      -0.01339197      -0.00711588
O        1.59977764       4.21375984       6.08910972      -0.01262394       0.00397028      -0.00518415
H        0.85909072       4.61568528       6.59104094      -0.00339640       0.00840893      -0.00592691
