51
Lattice="12.336457 0.0 0.0 -6.168228499999997 10.683685154694365 0.0 0.0 0.0 15.0" Properties=species:S:1:pos:R:3:initial_magmoms:R:1:forces:R:3 energy=-443.61709717208913 free_energy=-443.61709717208913 stress="-0.003180406245951082 -0.0027082373716612058 -3.102511133055787e-06 -0.0027082373716612058 -0.006478458936198577 -1.1089887768629085e-05 -3.102511133055787e-06 -1.1089887768629085e-05 9.996017169134135e-06" pbc="T T T"
C        0.06569061      -0.07087360       3.71950835       0.00000000       0.00355577      -0.00033161      -0.00167628
C       -1.18610555       2.06325492       3.52451457       0.00000000       0.00071692       0.00458935       0.00203641
C       -2.42417693       4.21493696       3.64137827       0.00000000      -0.00112670       0.00191238      -0.01007511
C       -3.62379608       6.35858217       3.81810844       0.00000000      -0.00461130       0.00986235      -0.01062593
C       -4.85006836       8.48951068       3.84192608       0.00000000      -0.00947192      -0.00530522       0.00668084
C        2.53909883      -0.09745347       3.75930633       0.00000000       0.00208521      -0.00621687       0.00619130
C        1.30387510       1.97567675       3.35908871       0.00000000      -0.00963739      -0.00595655      -0.00307777
C       -0.08064066       4.20169315       3.01420346       0.00000000       0.00735631      -0.00313319       0.00276549
C       -1.20096504       6.37568230       3.47601238       0.00000000      -0.00748882      -0.00674523      -0.00017967
C       -2.38091723       8.48294400       3.74763590       0.00000000       0.00761145      -0.00120312      -0.00175015
C        5.00987093      -0.06162524       3.87368999       0.00000000      -0.00492676       0.00264440       0.00042295
C        3.72740235       2.01669486       3.97702675       0.00000000      -0.00474471      -0.01213552       0.00292257
P        1.41196866       6.40884919       2.30719724       0.00000000       0.01047716      -0.00541079      -0.00837830
C        0.08462104       8.50561493       3.59187225       0.00000000      -0.00029618       0.00033903       0.01470368
C        7.47149048      -0.04385796       3.88366393       0.00000000      -0.00442091      -0.00413879      -0.01697609
C        6.22374315       2.09810765       4.05108878       0.00000000      -0.00136893      -0.00858134       0.00881017
C        5.05900717       4.31702664       4.22981509       0.00000000       0.00325800       0.00615027      -0.00995965
N        3.81924900       6.40781613       4.01608363       0.00000000       0.00760682      -0.00177332      -0.00009209
C        2.55681087       8.50486441       3.72822211       0.00000000       0.00229449       0.00846733      -0.00225863
C        9.93884822      -0.05156354       3.82957411       0.00000000       0.00780616       0.00550367       0.00695567
C        8.69677374       2.08980035       3.86143350       0.00000000       0.00056880       0.00223289      -0.00077119
C        7.47366058       4.23462686       3.98031621       0.00000000       0.00032894       0.00829098      -0.00295841
C        6.26481258       6.39781766       3.99299414       0.00000000       0.00523181      -0.00080571       0.00753795
C        5.01977438       8.49467201       3.88933172       0.00000000      -0.00507118      -0.00420019       0.00111534
C        0.05473281       1.34535065       3.51441196       0.00000000      -0.00357814       0.00109808       0.00650081
C       -1.22431630       3.47534998       3.38404495       0.00000000       0.00435882       0.00180199       0.00116226
C       -2.40393268       5.64710054       3.65520316       0.00000000      -0.00852006       0.00130186       0.00287100
C       -3.61569779       7.77671770       3.80866460       0.00000000      -0.00083031       0.00698901      -0.00668863
C       -4.86681618       9.89987929       3.76445755       0.00000000       0.00242044      -0.00566246       0.00283940
C        2.52219961       1.31177283       3.69797949       0.00000000      -0.01015281      -0.00761776       0.00849972
S        1.39621185       3.48642115       2.47469876       0.00000000      -0.00768446       0.00362794      -0.00238641
C        0.00388869       5.62660657       3.15331650       0.00000000       0.00170576      -0.00428416       0.01354668
C       -1.15183859       7.77981796       3.59517834       0.00000000       0.00292541      -0.00652471       0.00484880
C       -2.38337780       9.89902828       3.80782659       0.00000000       0.00506752      -0.00281451       0.00012107
C        4.99516445       1.36725455       3.99958398       0.00000000      -0.00451269      -0.00336692       0.00652384
P        3.47101683       3.66363747       4.46861594       0.00000000       0.01018900       0.00890361      -0.00306356
C        1.34013237       7.84670761       3.41905804       0.00000000       0.00277836       0.00805585      -0.00169809
C        0.07675723       9.91888548       3.80793203       0.00000000      -0.00953429       0.00153464      -0.00279423
C        7.46035150       1.38400140       3.95628290       0.00000000       0.00113731      -0.00689184      -0.00448949
C        6.23741110       3.53344637       4.10933570       0.00000000       0.00053004      -0.00197021      -0.00876513
C        5.02052308       5.74006790       4.09759874       0.00000000       0.00915539       0.00519773      -0.01056987
C        3.79603464       7.76684513       3.87432886       0.00000000      -0.00205292      -0.00010935       0.01203665
C        2.54218841       9.92447242       3.84973908       0.00000000       0.00383513       0.00814121      -0.01373209
C        9.93386672       1.37267789       3.75275174       0.00000000       0.00227161       0.00527044      -0.00254110
C        8.69420946       3.51383106       3.84368432       0.00000000      -0.00116611       0.00600264      -0.00294206
C        7.47996771       5.65751549       3.94313407       0.00000000       0.00249109       0.00533706       0.00169771
C        6.25396674       7.79824562       3.91455002       0.00000000      -0.00992848      -0.00718269       0.00102957
C        5.00250037       9.91218403       3.81822418       0.00000000       0.00480959      -0.00182507      -0.00157093
Tc       1.88137321       5.22327747       4.18571490       0.00000000      -0.00359690      -0.00314329       0.01672692
O        1.72118212       6.27123530       5.85241130       1.00000000       0.00002352      -0.00219710      -0.00574640
O        0.97265230       5.13743869       5.98491236       1.00000000       0.00212515       0.00627281      -0.00277955
