51
Lattice="12.336457 0.0 0.0 -6.168228499999997 10.683685154694365 0.0 0.0 0.0 15.0" Properties=species:S:1:pos:R:3:initial_magmoms:R:1:forces:R:3 energy=-447.8123719267898 free_energy=-447.8123719267898 stress="-0.0021292424230192073 0.0012520536531567218 -1.576218926306613e-06 0.0012520536531567218 0.0011140095636043546 1.7751623691667843e-06 -1.576218926306613e-06 1.7751623691667843e-06 -5.457823461764544e-05" pbc="T T T"
C       -0.00034641       0.01101014       3.59973536       0.00000000       0.00153781      -0.00328759      -0.00024819
C       -1.23896420       2.14675592       3.82026922       0.00000000      -0.00069269       0.00117693      -0.00025813
C       -2.50980144       4.28672674       3.72182226       0.00000000      -0.00125346       0.00149996       0.00138529
C       -3.72932193       6.42684392       3.48244287       0.00000000       0.00111443       0.00209550       0.00077697
C       -4.94446028       8.56554052       3.43210740       0.00000000      -0.00239416      -0.00104764      -0.00031294
C        2.47889027       0.03093909       3.47729656       0.00000000      -0.00064851       0.00197317      -0.00121433
C        1.26959170       2.08774171       3.96433002       0.00000000      -0.00302296       0.00219695      -0.00182707
C       -0.21696721       4.32095465       4.49348425       0.00000000      -0.00006043      -0.00027013       0.00159516
C       -1.34370832       6.45708970       4.01102991       0.00000000       0.00146705      -0.00224772       0.00054911
C       -2.47830285       8.56507721       3.54524419       0.00000000       0.00035059      -0.00129756      -0.00425944
C        4.93612298       0.01036289       3.44776974       0.00000000      -0.00098888       0.00056744      -0.00017500
C        3.75322883       2.14074690       3.52584321       0.00000000       0.00051001       0.00039593      -0.00300976
P        1.15946870       6.57252604       5.20808972       0.00000000      -0.00070531      -0.00119907      -0.00038564
C       -0.02429705       8.58494287       3.82665235       0.00000000      -0.00049772       0.00000251       0.00274747
C        7.41349931      -0.00526142       3.52581613       0.00000000       0.00061162       0.00104173      -0.00142330
C        6.18507136       2.13639482       3.35510139       0.00000000      -0.00006397      -0.00027758       0.00117999
C        4.97185553       4.26241878       3.48096437       0.00000000       0.00184536      -0.00076325       0.00340110
N        3.80925117       6.40085510       4.00193429       0.00000000      -0.00232146      -0.00199060       0.00008550
C        2.48512393       8.54713717       3.86955735       0.00000000       0.00120659      -0.00032812      -0.00067183
C        9.87563093       0.00055011       3.60420991       0.00000000       0.00159764       0.00144232      -0.00223166
C        8.64355154       2.14161632       3.50302663       0.00000000      -0.00100738      -0.00094908       0.00080994
C        7.39220040       4.28675409       3.38106909       0.00000000       0.00148373      -0.00099766       0.00010614
C        6.14944786       6.41791032       3.40587145       0.00000000       0.00021889       0.00057862       0.00280550
C        4.93298337       8.53453399       3.60324641       0.00000000      -0.00122698       0.00188955       0.00026962
C        0.00894645       1.43385601       3.80315318       0.00000000      -0.00123226      -0.00228185      -0.00117162
C       -1.30564435       3.56675503       3.99839744       0.00000000      -0.00171563       0.00242467       0.00141501
C       -2.52486776       5.71734238       3.71344399       0.00000000       0.00120545       0.00094507      -0.00082786
C       -3.71514190       7.85251974       3.46433515       0.00000000      -0.00133159       0.00142477       0.00033093
C       -4.93366909       9.99531085       3.49193102       0.00000000       0.00115668      -0.00227293       0.00398853
C        2.50825733       1.45423004       3.62250770       0.00000000      -0.00060086       0.00314754       0.00192429
P        1.34783949       3.57533175       4.85949482       0.00000000       0.00238859       0.00161046       0.00014560
C       -0.25694621       5.72780861       4.54123429       0.00000000       0.00079498      -0.00130661       0.00196903
C       -1.27064339       7.86886329       3.80482024       0.00000000      -0.00021689      -0.00226543       0.00235090
C       -2.46687937       9.99265638       3.45939615       0.00000000      -0.00130674       0.00002357      -0.00071697
C        4.94655892       1.44128475       3.39390898       0.00000000       0.00054681      -0.00013510      -0.00458023
O        3.80518820       3.52486980       3.60874705       0.00000000      -0.00119871      -0.00104495      -0.00213143
C        1.22179152       7.95894114       4.14289660       0.00000000       0.00058047      -0.00186287      -0.00217164
C       -0.00129242       9.98391716       3.55866905       0.00000000      -0.00021217       0.00095344       0.00017838
C        7.40978463       1.42517384       3.42399044       0.00000000      -0.00092457       0.00073982       0.00113833
C        6.16855106       3.56141843       3.34482822       0.00000000       0.00155200      -0.00060461      -0.00065559
C        4.92997979       5.69499252       3.58340681       0.00000000      -0.00026454      -0.00083880      -0.00018083
C        3.72953260       7.78509774       3.84376427       0.00000000       0.00069893       0.00013965       0.00139027
C        2.48140240       9.96450387       3.63145762       0.00000000       0.00182274       0.00043683      -0.00281645
C        9.87865252       1.43274389       3.62129858       0.00000000       0.00010190       0.00094802      -0.00223098
C        8.62299053       3.57072777       3.49947304       0.00000000       0.00007348      -0.00178757      -0.00048814
C        7.37651451       5.70643222       3.38418153       0.00000000       0.00173113       0.00030875       0.00251781
C        6.15853672       7.84182339       3.46373147       0.00000000      -0.00270049       0.00078585      -0.00119693
C        4.93504781       9.96733627       3.59958014       0.00000000       0.00092392       0.00057041      -0.00087576
Tc       2.86724396       5.25956910       5.51890495       0.00000000      -0.00014077       0.00059763      -0.08381477
O        1.74728362       3.45271789       6.36397636       1.00000000       0.00291322      -0.00216745      -0.00385582
O        4.11361656       5.24306749       6.65595589       1.00000000      -0.00170489       0.00130708       0.09067145
