52
Lattice="12.336457 0.0 0.0 -6.168228499999997 10.683685154694365 0.0 0.0 0.0 15.0" Properties=species:S:1:pos:R:3:forces:R:3 energy=-449.1521240577948 free_energy=-449.1521240577948 stress="-0.007774909092784275 -0.006714205448595212 -6.976792202263267e-07 -0.006714205448595212 -0.002749316078686659 1.8358948722203143e-05 -6.976792202263267e-07 1.8358948722203143e-05 3.5017313006501354e-05" pbc="T T T"
C        0.00865158       0.00061435       4.02578697      -0.04391727       0.02606123      -0.00077984
C       -1.28476534       2.09619655       4.12801871      -0.06523823      -0.01606418       0.02094454
C       -2.50697163       4.25277865       3.99536507      -0.01744742       0.03041734       0.05085865
C       -3.66759981       6.41671672       3.88512973       0.01207183       0.00390229      -0.05540530
C       -4.88582095       8.57608546       3.90745613       0.03047029       0.00307959      -0.00274010
C        2.47672998       0.02748823       3.96124348       0.00653343      -0.02347690      -0.00004666
C        1.16927880       2.11044086       4.14056414      -0.01126881      -0.01015188      -0.01981210
C       -0.11765231       4.19376037       4.10203546      -0.02099486      -0.06598385       0.02282207
C       -1.23156134       6.37352315       3.82160239      -0.00503443       0.04421436       0.04794960
C       -2.43035614       8.54565269       3.84130515      -0.00277802       0.01460017       0.02737963
C        4.93764172       0.00193398       3.73366624      -0.02795015       0.01313095      -0.00875523
C        3.64724654       2.12338824       3.57490273       0.00874472      -0.00551335      -0.03480622
P        1.36010692       6.14440597       2.91134726       0.02919831       0.00411311       0.00518872
C        0.02598366       8.52218001       3.64615971      -0.02830492      -0.00132633      -0.04911083
C        7.39668754      -0.00842802       3.73138999       0.00681119      -0.01126443      -0.01123196
C        6.14427472       2.14840104       3.60961448       0.04067504       0.03772049      -0.00848748
C        5.00305585       4.37611807       3.40031911      -0.23031079       0.03824548      -0.02563148
N        3.89068814       6.47415516       3.67663884      -0.00237335      -0.00693121       0.02620268
C        2.50108107       8.53304148       3.64165273       0.02537146       0.02980727       0.01405729
C        9.85868107      -0.01566994       3.90244439       0.02114340      -0.01720194      -0.04103776
C        8.59834759       2.12708279       3.86338918       0.06728292      -0.05490665       0.07502753
C        7.40199473       4.28525839       3.73860503      -0.00220240      -0.02333474      -0.01431822
C        6.26556034       6.47980449       3.66005724      -0.01036233       0.01636145      -0.01941945
C        4.98985316       8.57264363       3.77754413      -0.03306385       0.01057490       0.01907704
C       -0.03073031       1.41309338       4.13877711      -0.05918635       0.02903810      -0.04045020
C       -1.30957672       3.50376685       4.14339939      -0.03826926      -0.02770874      -0.05265012
C       -2.46205872       5.67646391       3.92786935       0.01205599       0.04364626      -0.01054796
C       -3.66062386       7.84496071       3.89402206       0.03620699      -0.01189379      -0.01933956
C       -4.91028979       9.99695730       3.98996766      -0.00925147       0.01237312       0.01022978
C        2.43270255       1.46439345       3.93737958      -0.01221503      -0.04592077      -0.02676220
O        1.05713172       3.48379379       4.39921445       0.08697282       0.01189640      -0.02065116
C       -0.05166893       5.56724202       3.80767274       0.05262724      -0.04289817       0.04810228
C       -1.20437058       7.80740022       3.74564411      -0.03079962       0.02856489       0.01695732
C       -2.45569131       9.98146325       3.84308477       0.00384116      -0.01541397       0.04081356
C        4.90531760       1.43481189       3.62118618       0.02493195       0.02923148       0.02329687
P        3.52167770       3.69479576       2.67959758       0.05050355      -0.00019642       0.03445537
C        1.27594208       7.83947928       3.48985396       0.02514494      -0.02185087       0.00807284
C        0.00576040       9.96036489       3.70035762      -0.04016276      -0.00061522      -0.00349721
C        7.37148604       1.42343243       3.73316151       0.06898633      -0.01389037       0.01010535
C        6.17998092       3.57914401       3.56105528      -0.02512715       0.01078731       0.04437175
C        5.06025114       5.80078946       3.51224671      -0.02734852       0.02168443      -0.02350105
C        3.77780907       7.84790420       3.67090434      -0.00018919      -0.01233001       0.00681323
C        2.47062123       9.95861859       3.76605865       0.03290514       0.01220119       0.00711678
C        9.83475125       1.40608638       3.98285590       0.01721189      -0.07129958      -0.00410350
C        8.60298079       3.55315997       3.88261372       0.03390589      -0.03378161      -0.01122172
C        7.44887148       5.71544574       3.76513625      -0.00421127      -0.00157839       0.02827083
C        6.23244552       7.88285720       3.78808545      -0.02158321       0.02853139       0.02302164
C        4.94741412       9.97834734       3.91113430      -0.03591533       0.00904074       0.03191665
Tc       2.71865398       4.99780317       4.33569644       0.14416811       0.03238538      -0.13680758
O        3.09191803       4.44557980       6.13344907      -0.07739333      -0.01866222      -0.01468046
O        1.80235500       5.15569086       6.35764093       0.05640575      -0.03218655      -0.10476090
H        2.07430051       5.90175521       6.93080903      -0.01127101       0.04477284       0.11750425
