52
Lattice="12.336457 0.0 0.0 -6.168228499999997 10.683685154694365 0.0 0.0 0.0 15.0" Properties=species:S:1:pos:R:3:forces:R:3 energy=-452.04176468073547 free_energy=-452.04176468073547 stress="-0.0003110028895384208 -0.0018295755553393164 -3.8023894342826466e-06 -0.0018295755553393164 0.0020846579112285602 8.06812864563271e-07 -3.8023894342826466e-06 8.06812864563271e-07 1.50646920618796e-05" pbc="T T T"
C        0.04126305      -0.07725778       3.80007959       0.00364848       0.00131520      -0.00758814
C       -1.20183460       2.06882921       3.95346159      -0.00362550       0.00499601       0.00538436
C       -2.42528635       4.21905837       3.66159312      -0.00166547       0.00028414       0.00537599
C       -3.63351840       6.36001668       3.42281489      -0.00289407      -0.00045031      -0.00197674
C       -4.87536241       8.49976766       3.48418193       0.00158758      -0.00555398      -0.00405914
C        2.52022388      -0.08677266       3.88261045      -0.00247478      -0.00516117       0.00902332
C        1.25240258       1.92576316       4.44389072       0.00314128       0.00155367      -0.00617184
C       -0.06853593       4.29600328       4.23271288       0.00978963       0.00513435      -0.01026432
C       -1.19035393       6.37673729       3.69421900       0.00374578      -0.00295161      -0.00532525
C       -2.40385793       8.49573785       3.60033346      -0.00171319       0.00736029       0.00373880
C        4.99455734      -0.06228109       3.83166909      -0.00024156       0.00405440       0.00405342
C        3.75037031       2.01684607       4.27041183       0.00124436       0.00288410      -0.01608564
N        1.17284675       6.39629041       4.31279907       0.01001487      -0.00490705       0.01029641
C        0.06842377       8.47049019       3.77390957      -0.00580223      -0.00222984       0.01389143
C        7.46157783      -0.07449169       3.76649073      -0.00321273       0.00467614       0.00525942
C        6.20853587       2.10020155       3.78950093      -0.00327876      -0.00219324      -0.00421801
C        5.02241326       4.33860461       3.63948871       0.00647967      -0.01030083       0.00585358
O        3.83396793       6.41642626       3.41567403       0.00890038      -0.00019187      -0.00167634
C        2.54082867       8.41936483       3.74376766      -0.00201619      -0.00144370       0.00410440
C        9.91072762      -0.08018422       3.72935902       0.00240827      -0.00798198      -0.00496737
C        8.67814696       2.07768348       3.69452182       0.00102338      -0.00915787      -0.00092520
C        7.45484645       4.22565819       3.47810439      -0.00212502       0.00120502      -0.00348201
C        6.24698265       6.38930847       3.25264864      -0.01255845       0.01040373       0.00774332
C        4.99318286       8.49202669       3.47705307      -0.00303443       0.00938372      -0.00511056
C        0.02143897       1.32396914       4.07556972      -0.00181471       0.00234294       0.00484709
C       -1.21766304       3.51020601       3.93855078       0.00437004       0.00794855      -0.01067207
C       -2.40744733       5.64545079       3.56955778      -0.00056081      -0.00008556       0.00059561
C       -3.63397980       7.78618388       3.47290420       0.00425289      -0.00135867       0.00058647
C       -4.88304240       9.90685475       3.71668285       0.00030226      -0.00770427      -0.00394296
C        2.51241636       1.28946882       4.22492466       0.00262330      -0.00141576      -0.00511505
P        1.20756038       3.52511896       5.15684514       0.00250508       0.00554819      -0.00107242
C        0.01418298       5.71129746       4.04889177       0.00768822       0.00033938       0.00462380
C       -1.17295393       7.78434410       3.66680241      -0.00687691      -0.00034282       0.00665137
C       -2.40543805       9.90899920       3.76011442      -0.00113805       0.00781788      -0.00420763
C        4.98896269       1.36769495       3.96592463      -0.00041698       0.00134783      -0.00458375
P        3.70251767       3.74575080       4.62190476       0.00921253       0.00297502      -0.00546434
C        1.28274076       7.72146261       3.94052617      -0.00091435      -0.00687979      -0.00725151
C        0.06258640       9.89967549       3.77382102      -0.00264676       0.00177672       0.00066509
C        7.44395918       1.36727336       3.73483065      -0.00395069       0.00116373      -0.00342792
C        6.21498524       3.53340909       3.62166042       0.00216572      -0.00666147       0.00532975
C        5.03202607       5.72197199       3.34716990       0.00222971      -0.00584519       0.01155673
C        3.79063530       7.78207546       3.51717535       0.00244625       0.00162274       0.00623089
C        2.52113646       9.86496894       3.73677226      -0.00265306       0.00002764      -0.00150765
C        9.91183948       1.35922964       3.78161915       0.00182477      -0.00962000       0.00280235
C        8.68332616       3.50497885       3.59187883      -0.00083486      -0.00633021      -0.00105548
C        7.47094467       5.64819594       3.35189804      -0.01232059       0.00813106       0.00233572
C        6.23822462       7.80202255       3.35869971      -0.00703577       0.01060625       0.00217204
C        4.97835212       9.90574050       3.66033962       0.00463957       0.00293829      -0.00551037
Tc       2.48401151       5.32792536       5.71667506      -0.01075620       0.00034170       0.00580791
O        3.69040753       6.49837136       6.05503817       0.00437994      -0.00851951       0.00141529
O        1.16197611       5.98791255       7.05004491       0.00158178      -0.01857496      -0.00395573
H        1.15247704       5.52776919       7.90630065      -0.00564360       0.01768297      -0.00072713
