52
Lattice="12.336457 0.0 0.0 -6.168228499999997 10.683685154694365 0.0 0.0 0.0 15.0" Properties=species:S:1:pos:R:3:forces:R:3 energy=-449.3189991872124 free_energy=-449.3189991872124 stress="-0.004292968563862767 -0.0043184637056052425 2.9981653112036952e-05 -0.0043184637056052425 -0.004132746933927174 -1.961719733080086e-05 2.9981653112036952e-05 -1.961719733080086e-05 0.00019840167185045603" pbc="T T T"
C       -0.07126378       0.00855991       3.83973600      -0.01530719       0.01145327       0.00816114
C       -1.34512488       2.12581915       4.06967442      -0.00607791       0.01268865       0.01816645
C       -2.57121147       4.28365640       3.87189977      -0.01126692       0.01356208      -0.00312400
C       -3.74651566       6.43762075       3.59174772       0.02340469       0.02067799      -0.00126969
C       -4.97382468       8.58497725       3.59442016       0.00669049      -0.02686604       0.00044247
C        2.40619744      -0.00350894       3.87811424      -0.01458372       0.00478798       0.00142221
C        1.14592712       2.03917673       4.41422545       0.01591662      -0.00550573      -0.00005326
C       -0.27817733       4.27459937       4.64984915       0.02025699       0.00608929       0.00710853
C       -1.34967881       6.43251587       4.06636477       0.00099476       0.00499223      -0.00036772
C       -2.51174654       8.56366567       3.77237596      -0.01983654      -0.00637769      -0.01605780
C        4.86440380       0.03184503       3.74507320       0.00805318      -0.01975136      -0.02184942
C        3.57903979       2.11610554       3.77118128       0.03227952      -0.01011797      -0.01610532
P        1.31623269       6.37262816       4.82934465       0.03043252      -0.04181258       0.00342523
C       -0.05750994       8.57807614       3.93282699      -0.01302206       0.01553536      -0.00313731
C        7.32858070       0.02269095       3.67403895       0.01337569       0.01886372      -0.02247925
C        6.07438016       2.17517159       3.52678473      -0.03718910       0.01909496       0.00299966
C        4.94205487       4.39308486       3.34612328      -0.01882222       0.03825746       0.01391148
N        3.77385980       6.44461532       3.68879760      -0.01405122      -0.04350593       0.01902612
C        2.43716692       8.57015800       3.79766777      -0.01790698      -0.01997912       0.01027900
C        9.79885520       0.01730849       3.70190271       0.01301126      -0.00470525       0.00281527
C        8.54939407       2.15764495       3.66615128       0.00318601      -0.03613210      -0.01380151
C        7.34921472       4.31071095       3.44230765      -0.01893058       0.00969631       0.01586712
C        6.16881786       6.49197246       3.31743069       0.01439971      -0.01165992       0.00868017
C        4.89458200       8.57430669       3.56574556       0.02902329       0.00917502      -0.01117598
C       -0.09433565       1.40924460       4.13226721       0.02131514       0.00582145      -0.01063048
C       -1.39616029       3.54303844       4.20661907       0.00043728       0.01923777      -0.01200141
C       -2.55220094       5.71170283       3.82723741       0.00997167       0.02333740      -0.00169581
C       -3.74246720       7.86263401       3.63650332       0.01893524      -0.02434635       0.00693534
C       -4.99725811       9.98967848       3.77833965       0.00373818      -0.02191362      -0.00214329
C        2.38714442       1.40070097       4.07114815      -0.00859004      -0.00476178      -0.02029430
P        1.13936383       3.52066137       5.40255560       0.03537211      -0.00428393      -0.01743829
C       -0.23616165       5.67677507       4.49861165      -0.00234132      -0.02772723       0.00629597
C       -1.29121445       7.85219942       3.92761652      -0.00339962       0.02230129       0.01040963
C       -2.52231557       9.98932095       3.78703135      -0.00549871       0.00165251       0.00625906
C        4.83781923       1.47123229       3.66020218      -0.01332323      -0.01503233       0.00372659
S        3.33931670       3.78403974       3.34960097       0.00952232       0.01438322       0.04624150
C        1.20565936       7.92893789       4.07748754      -0.01371164       0.01258350       0.01159494
C       -0.06860500      10.00045092       3.75582937       0.01249408      -0.00220552       0.02501553
C        7.30859969       1.45542345       3.59372357      -0.01099508      -0.01146154       0.00836748
C        6.10098046       3.60390371       3.39201922      -0.02138331       0.00146529      -0.00132140
C        4.93965417       5.80900918       3.35230029      -0.02378122       0.00942009       0.01064046
C        3.68831391       7.82667893       3.67696580       0.01157532      -0.00235463       0.00682712
C        2.40595487       9.98889463       3.68155461       0.00678826      -0.00854990       0.00984559
C        9.78197134       1.43752524       3.79725572       0.01240544       0.01532229      -0.01485628
C        8.55467266       3.58310128       3.63906297       0.00874233      -0.01250145      -0.02266829
C        7.36965366       5.73642617       3.40940128      -0.00632505       0.00607861      -0.00939194
C        6.13933545       7.89411405       3.46177007       0.00255377      -0.01378762      -0.01488464
C        4.87087454       9.98988642       3.69110263      -0.01450672       0.02178705      -0.01141573
Tc       3.00090229       5.05934995       5.38174375       0.03826929       0.01042029       0.30295169
O        4.03435406       6.07510045       6.28463994      -0.00377812      -0.00789076      -0.10636604
O        3.88966520       3.64127328       6.49617005      -0.10236671       0.00647643      -0.32743538
H        4.85306100       3.57826715       6.61353256       0.01385006       0.02806881       0.11454878
