52
Lattice="12.336457 0.0 0.0 -6.168228499999997 10.683685154694365 0.0 0.0 0.0 15.0" Properties=species:S:1:pos:R:3:forces:R:3 energy=-459.6732112362258 free_energy=-459.6732112362258 stress="-0.001007514433621077 0.0010770221287265313 -1.853583075236331e-05 0.0010770221287265313 0.010361001833806506 -3.766818023672915e-05 -1.853583075236331e-05 -3.766818023672915e-05 1.5588618669378063e-06" pbc="T T T"
C        0.03003914      -0.00618956       3.90070431      -0.02050483       0.00367783      -0.02926998
C       -1.21534833       2.09934131       3.86901749      -0.02836111       0.00993280      -0.00710745
C       -2.45462486       4.23987232       3.73873118      -0.00910113      -0.00522964      -0.01865094
C       -3.68852368       6.39165175       3.69941880       0.00996380       0.00940070      -0.02127992
C       -4.91170905       8.54452224       3.79449601      -0.00184842      -0.00430968      -0.00560440
C        2.49302979       0.04961287       3.79692449      -0.00247959       0.00001686       0.02971686
C        1.24624152       2.20240829       3.97990386       0.03244271      -0.00321941       0.00797357
C       -0.02021048       4.24439059       3.91131377      -0.00232357      -0.00713744      -0.00136860
C       -1.24322689       6.39704118       3.71351279      -0.00613116      -0.00925461      -0.01378280
C       -2.45774182       8.54515406       3.71043247       0.00733465       0.00424557       0.00729486
C        4.95823145      -0.02225480       3.69514229      -0.01458824      -0.00454039       0.00700361
C        3.76706845       2.13491263       3.70347546       0.00477509       0.01146188      -0.01117718
N        1.14641547       6.36158031       3.92717650      -0.00539871      -0.02095949      -0.00684128
C        0.01617651       8.49095029       3.74440931       0.00711902       0.00441911       0.01598446
C        7.43488676      -0.07443528       3.75990319       0.02489009       0.00786211      -0.00246476
C        6.21038739       2.08899168       3.63929343      -0.00354533      -0.00916359       0.00649281
C        5.01600434       4.22816686       3.63246887       0.00004786      -0.01782624       0.00396224
N        3.80435290       6.32631052       4.04363801       0.04512511       0.03372446      -0.00825291
C        2.48859842       8.42099613       3.91853314      -0.00805166      -0.00292437      -0.02061764
C        9.88848809      -0.07011604       3.87185869       0.01219408      -0.00626515       0.00875240
C        8.66420568       2.08345759       3.74497045      -0.00358826      -0.00296246      -0.01571792
C        7.43255022       4.23860859       3.65616132       0.02520754       0.01713226       0.00682720
C        6.19907092       6.38324297       3.73314759      -0.01570611      -0.00110778      -0.01519320
C        4.95763709       8.48753083       3.90315825      -0.01129317      -0.01179833      -0.00277280
C        0.03709749       1.43289544       3.92567650      -0.01003160       0.01009690      -0.00028727
C       -1.23057118       3.51856900       3.81701916      -0.01888721       0.00921316      -0.01543457
C       -2.46454617       5.67140611       3.70899679      -0.00037433      -0.01315071      -0.03025136
C       -3.68703434       7.82553758       3.72810916       0.01381927       0.00039865      -0.00361019
C       -4.90090582       9.98598686       3.83921995      -0.00950285       0.00073627       0.01435986
C        2.50720538       1.50536152       3.83856726       0.02672798      -0.00547466       0.02355352
N        1.16921211       3.59652251       4.11752437       0.01249292       0.00144058      -0.02401407
C       -0.03580743       5.68295785       3.83043791      -0.00310749      -0.01208222      -0.00554132
C       -1.23094799       7.81835970       3.70577745       0.00476992       0.00133231       0.02134826
C       -2.45531360       9.98465113       3.72682870      -0.01310868      -0.00044672       0.01705480
C        4.96491000       1.41025392       3.66299217      -0.01329731       0.00243171       0.00363439
O        3.82351087       3.52564148       3.62876219      -0.00620009       0.00063280       0.00184059
C        1.22976232       7.74100390       3.85904807       0.00250238      -0.01171854       0.00316491
C        0.02391655       9.92029531       3.71951353       0.01033314       0.01052521       0.04295480
C        7.43006830       1.36517747       3.70699321       0.00601041       0.00346301       0.00647427
C        6.20976715       3.51269703       3.61665905       0.01828895      -0.00220491      -0.03101052
C        4.98709466       5.64871844       3.77338687      -0.01080261      -0.01529552       0.00685934
C        3.74143326       7.72169566       3.96946923      -0.00405670       0.00582380       0.00953626
C        2.49246338       9.87119857       3.85290620       0.01887422      -0.00262204      -0.00192898
C        9.89286072       1.36671215       3.82760367      -0.01376625       0.00245185       0.01278904
C        8.65777450       3.51733457       3.70511212       0.00429805      -0.00492218       0.00029679
C        7.42270896       5.66571753       3.68090570      -0.00128733       0.02560538       0.02244018
C        6.19811852       7.80784478       3.82320905      -0.01842912      -0.00930157      -0.01968443
C        4.96121113       9.92518874       3.90373952      -0.01159572      -0.01664903       0.00264667
Tc       2.43083586       5.08590569       4.98479258      -0.03615870       0.03449023       0.04549771
O        3.27206432       4.02690762       6.03473138      -0.00331471      -0.01750676       0.01031084
O        1.85410585       6.25464653       6.41156878      -0.01204765      -0.04959532      -0.02904773
H        2.03197021       5.92572593       7.31447398       0.03167243       0.05715332       0.00214196
