52
Lattice="12.336457 0.0 0.0 -6.168228499999997 10.683685154694365 0.0 0.0 0.0 15.0" Properties=species:S:1:pos:R:3:forces:R:3 energy=-451.6855142979441 free_energy=-451.6855142979441 stress="-0.0004518062449063173 -0.00025061428194448216 3.851400541306281e-05 -0.00025061428194448216 4.590648634075342e-05 1.1534515642176584e-05 3.851400541306281e-05 1.1534515642176584e-05 9.851506197553913e-06" pbc="T T T"
C        0.03182448      -0.00551037       3.62294919      -0.00787448       0.00543353       0.00461644
C       -1.21703420       2.12515620       3.80295299       0.00490060       0.00659588       0.00637995
C       -2.47231832       4.27349498       3.72576734       0.00123119      -0.00138138      -0.00771815
C       -3.68797903       6.41295618       3.58221690       0.00372199       0.00364809      -0.00012186
C       -4.90296935       8.54964847       3.52273429       0.00268480       0.00256336      -0.00720770
C        2.51236902       0.01938328       3.59888803       0.00123735      -0.01219288      -0.00161285
C        1.28142228       2.06118571       4.04999668      -0.00352426      -0.00528777       0.00400836
C       -0.10440601       4.27664095       4.27737054       0.00070440      -0.00740179      -0.00117215
C       -1.24686781       6.42646159       3.90236057       0.00768804       0.00286894       0.00649434
C       -2.43408534       8.54922819       3.63896522      -0.00571620       0.00885841       0.00639984
C        4.96228542       0.00709079       3.60400002       0.01380027      -0.00411190      -0.00007962
C        3.76636492       2.15458643       3.64549770      -0.00049556       0.00189729      -0.00441443
P        1.40322117       6.38961968       4.85770544      -0.00764869       0.00815140       0.00289854
C        0.02796156       8.56334744       3.85354464      -0.00941941      -0.00326919      -0.00535369
C        7.43334241       0.00035743       3.60169929      -0.00543708       0.00358458       0.00147700
C        6.19178603       2.14503444       3.51748472      -0.00040933      -0.00021820       0.00945490
C        4.95594720       4.25964538       3.49692899       0.00219250       0.00120651       0.00023982
N        3.75905606       6.41765379       3.74971759      -0.00013592      -0.00635005      -0.00096983
C        2.51936755       8.55554057       3.77830750       0.00330550      -0.00088098      -0.00330641
C        9.90291015      -0.00289441       3.58102519      -0.00210103       0.00116717       0.01615534
C        8.65907041       2.13889475       3.57382849       0.00363855      -0.00437697      -0.00847327
C        7.40663381       4.28335808       3.51492381      -0.00229370      -0.00025240       0.00182286
C        6.17002014       6.40225360       3.48829280      -0.00621404      -0.00332080      -0.00524411
C        4.97035315       8.53403248       3.55587646       0.01238004       0.00232440       0.00762703
C        0.02945857       1.40852442       3.82579589      -0.00399627       0.00482026       0.00662621
C       -1.26338655       3.54160550       3.91649331       0.00007212      -0.00222631       0.00446712
C       -2.46777004       5.70326405       3.72362574       0.00847102       0.00241081      -0.00112517
C       -3.67189300       7.83743589       3.56803258       0.00028441       0.00464230       0.00325697
C       -4.89620443       9.97875123       3.57172699      -0.01078013      -0.00179500       0.00022398
C        2.53068743       1.44304619       3.74076561      -0.00071014      -0.00893572       0.00855937
P        1.29577939       3.51521050       4.99251058      -0.01625295       0.00871323      -0.00607349
C       -0.07821648       5.68800253       4.23969046       0.00890350      -0.00939030      -0.00366631
C       -1.21035896       7.84550404       3.80992968      -0.01046279       0.00342934       0.00038499
C       -2.43315570       9.97983335       3.59588501       0.01097128       0.00258124      -0.00299170
C        4.96138439       1.44354804       3.56658563       0.00215152      -0.00244903       0.00206163
O        3.79148903       3.53442635       3.57165792       0.00387042       0.01372321       0.00103085
C        1.29129564       7.91441835       4.05592151      -0.00703340       0.00693324      -0.00829767
C        0.02866643       9.97834788       3.66640392       0.00547094      -0.00624278      -0.00371220
C        7.42130139       1.43080435       3.54149707      -0.00341900       0.00366046      -0.00645128
C        6.16654465       3.57368603       3.49025442       0.00212424      -0.00340281      -0.00339188
C        4.90575964       5.70194250       3.53533816      -0.01149599      -0.00786422       0.00067303
C        3.75339104       7.77521317       3.68640823       0.01210174      -0.00770966       0.00007824
C        2.50743259       9.96577410       3.61714982      -0.00597241       0.00593216       0.00068490
C        9.89714961       1.42252235       3.62764226       0.00705790      -0.00199671       0.01220153
C        8.64181566       3.56600321       3.58539693      -0.00117452      -0.00318637      -0.00367028
C        7.40257744       5.69917016       3.51262369       0.00042418       0.00330505      -0.01280213
C        6.19460139       7.82963815       3.50710567       0.00854077      -0.00046468      -0.00210126
C        4.96519013       9.96083654       3.57326663       0.00200405       0.00326539      -0.00044692
Tc       2.42828251       4.96721609       6.25822500      -0.01294288      -0.00423077      -0.00905195
O        4.10327818       4.67725280       6.13784595       0.01768944       0.00559427       0.00059897
O        1.93611661       5.11614233       8.04553775      -0.00926141      -0.00783995      -0.00173681
H        2.39574767       4.82762205       8.84900564      -0.00285120      -0.00053188       0.00277093
