51
Lattice="12.336457 0.0 0.0 -6.168228499999997 10.683685154694365 0.0 0.0 0.0 15.0" Properties=species:S:1:pos:R:3:initial_magmoms:R:1:forces:R:3 energy=-443.9428432611306 free_energy=-443.9428432611306 stress="-0.008251826641662144 0.004832094867677424 -1.6388592026973272e-06 0.004832094867677424 -0.004704952838274599 2.2346497697545404e-05 -1.6388592026973272e-06 2.2346497697545404e-05 3.1408341528793247e-06" pbc="T T T"
C        0.01628103      -0.07938863       3.75955302       0.00000000       0.00061573       0.00103765      -0.00867300
C       -1.19395320       2.08192517       3.84008074       0.00000000       0.00147949      -0.00181212       0.00873388
C       -2.42425869       4.22009192       3.48926280       0.00000000      -0.00734616       0.01072870      -0.00085646
C       -3.67108162       6.35599135       3.27886830       0.00000000       0.00292285       0.00570549       0.00510625
C       -4.93806991       8.48264155       3.41605594       0.00000000       0.00408807       0.00440959      -0.00839652
C        2.48272968      -0.08906555       3.79454845       0.00000000       0.00269833       0.01006828      -0.00172486
C        1.25758955       1.96493232       4.31652366       0.00000000      -0.00262926       0.00060497       0.01104062
C       -0.09261180       4.33176997       4.04930369       0.00000000      -0.00308052      -0.00148074      -0.01767768
C       -1.24960753       6.40147440       3.49336313       0.00000000       0.00251459      -0.00414716       0.00035155
C       -2.46993167       8.50641972       3.42522342       0.00000000      -0.00061940       0.00157701      -0.00343435
C        4.95481532      -0.06600929       3.70164865       0.00000000       0.00133407      -0.00417476      -0.00226974
C        3.76917028       1.95396010       4.31922635       0.00000000      -0.00809470       0.00250125      -0.00498818
N        1.05798089       6.47232328       4.17827757       0.00000000       0.00897888       0.00273543      -0.00825381
C       -0.01139362       8.50144305       3.59734830       0.00000000      -0.00905255      -0.00419570       0.00514987
C        7.42858109      -0.06467086       3.69010152       0.00000000       0.00320584      -0.00111144      -0.00738461
C        6.23407838       2.05395469       3.80229016       0.00000000      -0.00879812      -0.00169021       0.00410106
C        5.13188523       4.23542494       3.89201527       0.00000000       0.00008349      -0.00599215       0.01359696
S        3.48431924       6.13920135       3.18467021       0.00000000       0.00161610       0.00121159       0.00253193
C        2.45563468       8.48307466       3.73026993       0.00000000      -0.00100888       0.00060775       0.00939958
C        9.89666217      -0.06859002       3.70488894       0.00000000      -0.00363358      -0.00636326      -0.00556295
C        8.68897675       2.06909063       3.61042631       0.00000000       0.00805842      -0.00252304      -0.00700623
C        7.47916985       4.19797811       3.41894874       0.00000000      -0.00483482      -0.00174705       0.00622630
C        6.21714918       6.33975223       3.28341184       0.00000000       0.00384177      -0.00465412       0.00647108
C        4.93177080       8.46780451       3.49063326       0.00000000       0.00020324       0.00548774       0.00182065
C        0.02053722       1.33966653       3.98616046       0.00000000       0.00284071      -0.00180738      -0.00243746
C       -1.21856537       3.52180904       3.77721440       0.00000000      -0.00985492       0.00701927      -0.00403736
C       -2.44121730       5.64704993       3.38198812       0.00000000       0.00150029       0.00711638      -0.00863766
C       -3.69583745       7.78237866       3.33697805       0.00000000       0.00225469       0.00409720       0.00772943
C       -4.92544434       9.89636673       3.65060600       0.00000000       0.00468283       0.00797336      -0.00711096
C        2.50756215       1.28544225       4.17077432       0.00000000      -0.00631817       0.00764987       0.00190617
P        1.26708822       3.63211074       4.86274191       0.00000000       0.01409252      -0.00391407      -0.00085809
C       -0.05614849       5.75225327       3.86827597       0.00000000       0.00933587       0.00171976      -0.01513037
C       -1.24274286       7.80663408       3.46607064       0.00000000      -0.00751233      -0.00714541       0.00216398
C       -2.45447823       9.91362189       3.62011091       0.00000000       0.00022081       0.00182536      -0.00519722
C        4.98589872       1.33790760       3.94117972       0.00000000      -0.00938132      -0.00477841       0.00366798
P        3.92200661       3.58815101       5.00902755       0.00000000       0.00461731      -0.00736332       0.00330542
C        1.18935861       7.77773837       3.80634236       0.00000000      -0.00337273       0.00656364       0.00370203
C        0.01764171       9.91828402       3.63159363       0.00000000       0.00258433      -0.00397233       0.00019753
C        7.45135261       1.35398234       3.68073652       0.00000000      -0.00021593       0.00191077      -0.00635383
C        6.28949724       3.47004841       3.69275079       0.00000000      -0.00637874      -0.00138928       0.00250173
C        5.06652914       5.55505946       3.43539868       0.00000000       0.00424101      -0.00413131       0.01727057
C        3.67246754       7.81770120       3.53063746       0.00000000       0.00053434       0.00966967       0.00020354
C        2.48493698       9.90842010       3.70972960       0.00000000      -0.00040783      -0.00557880      -0.00005888
C        9.91700472       1.36410726       3.70585850       0.00000000       0.00617045      -0.00823605       0.00665376
C        8.70006712       3.48887123       3.46837448       0.00000000      -0.00145078       0.00070077       0.00457368
C        7.45662756       5.62282261       3.28915269       0.00000000       0.00408167      -0.00138585       0.00160486
C        6.16955578       7.76457286       3.35435295       0.00000000       0.00238884      -0.00050164       0.00165286
C        4.94972128       9.89762088       3.65168469       0.00000000      -0.00293949       0.00343206      -0.00640710
Tc       2.56380490       5.38603319       5.29273002       0.00000000      -0.00657084      -0.01703372       0.00091904
O        2.77197408       6.98059424       6.44304410       1.00000000       0.00700623       0.00969129      -0.01003032
O        1.72278079       6.24801160       6.86965924       1.00000000      -0.00469175      -0.00891552       0.00990531
