51
Lattice="12.336457 0.0 0.0 -6.168228499999997 10.683685154694365 0.0 0.0 0.0 15.0" Properties=species:S:1:pos:R:3:initial_magmoms:R:1:forces:R:3 energy=-441.22019989287037 free_energy=-441.22019989287037 stress="-0.00288475686314045 -0.004471499663998062 -6.840491553160629e-05 -0.004471499663998062 -0.0029876781028551846 -1.6945076965406987e-05 -6.840491553160629e-05 -1.6945076965406987e-05 9.658281722181444e-05" pbc="T T T"
C       -0.04630387      -0.04117371       3.64014780       0.00000000       0.00052238      -0.00326159       0.00289025
C       -1.32247761       2.07436446       3.89391855       0.00000000       0.00207249      -0.00169687       0.00520085
C       -2.54527559       4.23301619       3.68900100       0.00000000       0.00046981       0.00076460       0.00327216
C       -3.71364595       6.38507939       3.40505943       0.00000000       0.00017966       0.00101890       0.00161245
C       -4.94687062       8.53022253       3.38460029       0.00000000       0.00043033      -0.00178003       0.00154878
C        2.43012132      -0.06212272       3.73549009       0.00000000      -0.00485332       0.00116216       0.00321714
C        1.15630260       1.96063241       4.32445236       0.00000000      -0.00225961      -0.00262490       0.00614891
C       -0.28220962       4.22198783       4.54916370       0.00000000       0.00108476       0.00204554      -0.00306052
C       -1.32399528       6.37998792       3.94279794       0.00000000      -0.00028546       0.00134385       0.00249958
C       -2.48062028       8.50853453       3.61459168       0.00000000       0.00318293      -0.00092622       0.00032119
C        4.89607132      -0.02693400       3.63897562       0.00000000      -0.00258394       0.00085160       0.00023906
C        3.61900003       2.05375833       3.81460618       0.00000000      -0.00017000       0.00052026      -0.00384537
P        1.27904109       6.37087872       4.91039892       0.00000000       0.00470542      -0.00911728      -0.00326723
C       -0.01831794       8.51772235       3.82948326       0.00000000       0.00402129       0.00135705      -0.00356180
C        7.35834752      -0.03292974       3.53415203       0.00000000       0.00233425      -0.00193820      -0.00552913
C        6.09370754       2.13291454       3.44309711       0.00000000      -0.00116011       0.00000419      -0.00029689
C        4.96221836       4.37392798       3.28445017       0.00000000      -0.00602796      -0.00147479      -0.00012707
O        3.82041291       6.45136764       3.52451355       0.00000000      -0.00779345      -0.00725631       0.00754921
C        2.47465724       8.49871308       3.64884939       0.00000000      -0.00047178      -0.00139946      -0.00083029
C        9.82295315      -0.03798775       3.50772502       0.00000000       0.00087946       0.00070789       0.00196033
C        8.57351511       2.10598723       3.48882657       0.00000000      -0.00136425      -0.00045505       0.00296745
C        7.36857165       4.26131214       3.28463165       0.00000000      -0.00278526      -0.00080733       0.00121849
C        6.19265710       6.43754312       3.12980664       0.00000000      -0.00114262      -0.00085365       0.00368258
C        4.92117266       8.52953418       3.33811956       0.00000000      -0.00079808       0.00379301      -0.00164001
C       -0.07329143       1.35181051       3.96975614       0.00000000       0.00024803      -0.00236611      -0.00208119
C       -1.37554940       3.49278253       4.04234143       0.00000000       0.00156253       0.00080586       0.00250480
C       -2.52017578       5.66115422       3.65797130       0.00000000      -0.00078077      -0.00013173       0.00250397
C       -3.70944739       7.80891079       3.44878363       0.00000000       0.00143621       0.00228730       0.00395019
C       -4.97086866       9.93689823       3.58515282       0.00000000      -0.00336211      -0.00136170       0.00051221
C        2.40568398       1.33122833       4.00315929       0.00000000       0.00004580       0.00289995       0.00420313
P        1.06407214       3.39790826       5.36892107       0.00000000       0.00433614       0.00721547      -0.00773441
C       -0.22473167       5.62737266       4.43177722       0.00000000      -0.00006140      -0.00074894      -0.00136494
C       -1.25992309       7.79777721       3.80525974       0.00000000       0.00482502       0.00043347      -0.00279985
C       -2.49350509       9.93363363       3.65009658       0.00000000      -0.00393980      -0.00104975       0.00096172
C        4.86988213       1.41558995       3.61021867       0.00000000      -0.00007041      -0.00202347       0.00341958
S        3.42055832       3.74370595       3.61694217       0.00000000      -0.00050593       0.01195134       0.01365338
C        1.24173224       7.86108119       4.00497519       0.00000000      -0.00078179      -0.00398835       0.00040264
C       -0.03526140       9.94184203       3.63770918       0.00000000       0.00060682       0.00117787       0.00018162
C        7.33146027       1.40435101       3.45538846       0.00000000      -0.00107465      -0.00068545      -0.00093318
C        6.12060095       3.56347352       3.29695249       0.00000000      -0.00413019       0.00008797      -0.00228181
C        4.99154765       5.77164332       3.20927006       0.00000000      -0.00253297      -0.00230599       0.00583007
C        3.73255795       7.82262424       3.48419298       0.00000000      -0.00203651       0.00390885      -0.00589384
C        2.43484044       9.92537092       3.51652326       0.00000000       0.00158482      -0.00293724      -0.00309692
C        9.80800719       1.38751227       3.60556188       0.00000000       0.00175955      -0.00039276       0.00162780
C        8.58257774       3.53019424       3.45686827       0.00000000       0.00062519       0.00036434      -0.00176175
C        7.39899962       5.68049349       3.22848867       0.00000000      -0.00016697       0.00062876       0.00079529
C        6.17097954       7.84673732       3.23779941       0.00000000       0.00009101       0.00163341       0.00187789
C        4.89443308       9.94844485       3.47603876       0.00000000       0.00080961      -0.00045300       0.00106728
Tc       2.75801022       4.87708730       5.60565678       0.00000000      -0.03812079      -0.00825542       0.03154887
O        4.36663129       5.96540270       6.12806737       1.00000000      -0.00854000      -0.00243146      -0.00920017
O        3.86145843       5.14664415       7.13186339       1.00000000       0.05998662       0.01575941      -0.06006247
