52
Lattice="12.336457 0.0 0.0 -6.168228499999997 10.683685154694365 0.0 0.0 0.0 15.0" Properties=species:S:1:pos:R:3:forces:R:3 energy=-445.049102038115 free_energy=-445.049102038115 stress="-0.0020519553088748956 -0.0040723265543591725 -3.5022935723577485e-06 -0.0040723265543591725 -0.005202751016315297 6.4635348949960885e-06 -3.5022935723577485e-06 6.4635348949960885e-06 4.346453412709808e-05" pbc="T T T"
C        0.06497702      -0.05389913       3.84166811      -0.00144411      -0.00796310      -0.01039197
C       -1.19463819       2.07236537       3.62576913       0.00070858      -0.00428816      -0.00133164
C       -2.41998576       4.22201772       3.73372609      -0.00094621       0.00172249      -0.00210940
C       -3.61101635       6.36971664       3.92955020      -0.00616297       0.00219249       0.00124888
C       -4.84451154       8.50240140       3.99340905      -0.00255276       0.01291157       0.00932805
C        2.54051775      -0.09038591       3.79076439      -0.00745137       0.00789583       0.00483849
C        1.28653702       1.97051215       3.35226263      -0.00375773       0.00858664       0.00674897
C       -0.06766323       4.19660215       3.11521202       0.00362832       0.00750390       0.00502689
C       -1.19829421       6.38481208       3.51873681       0.00506411      -0.00088860       0.00278482
C       -2.37042872       8.49249262       3.81751739       0.00030985      -0.00531742       0.00946253
C        5.01327228      -0.04673576       3.87359196      -0.00199277       0.00557515      -0.00124507
C        3.72175997       2.04047043       3.81772027       0.00282536      -0.00989277       0.00188904
P        1.47869365       6.37518106       2.49485027      -0.01107699      -0.00539970       0.01199964
C        0.10350228       8.50425922       3.67481344       0.00504238      -0.00516068      -0.00247486
C        7.47225970      -0.03527200       3.94770627       0.00690112      -0.00040705       0.01644611
C        6.20939039       2.12392590       4.00906656       0.00420920       0.00562297       0.00046576
C        5.02842378       4.36321893       4.15759508      -0.00217256      -0.00891639      -0.00039651
O        3.86215627       6.46189891       4.29544729       0.00043960       0.00171619      -0.00521810
C        2.57669728       8.49440047       3.89995585      -0.00609317       0.00222416      -0.00659400
C        9.93503554      -0.04088173       3.96559797       0.01215938       0.00093647      -0.00330731
C        8.68753119       2.10259925       3.92985032      -0.00420006      -0.00989095       0.00204212
C        7.46587379       4.25064149       4.03749359       0.00522322      -0.00699505       0.00397726
C        6.28011576       6.41837210       4.17906898       0.00013747       0.00206663       0.00521658
C        5.02643950       8.51940049       4.09493414      -0.00643238      -0.00177689       0.00380285
C        0.04507567       1.35028101       3.58875445       0.00125205      -0.00653463       0.00989676
C       -1.23278427       3.47604584       3.49181065      -0.00013884       0.00115284      -0.01147771
C       -2.39565230       5.65721840       3.73810975      -0.00165516       0.00539745       0.00057528
C       -3.60433435       7.78891276       3.92021526      -0.00626697       0.00489693       0.00856177
C       -4.86361186       9.91303745       3.87590506      -0.00403161       0.00767615      -0.01412807
C        2.51912059       1.30961816       3.64143560       0.00090997       0.00766068      -0.00078578
S        1.34332687       3.42970067       2.37142569      -0.00353790       0.01330877       0.00833034
C       -0.01035849       5.64739763       3.13968733       0.00697481       0.00547451       0.01676096
C       -1.14269325       7.78697348       3.65836302       0.00655772      -0.00439927      -0.00930263
C       -2.37731844       9.90957949       3.84078629      -0.00878241      -0.00159841       0.00200188
C        4.98999149       1.38853820       3.92711980       0.00698235       0.00823363      -0.01327722
P        3.42869862       3.71457272       4.06650562       0.00883581      -0.00671559      -0.00416991
C        1.35671082       7.83105528       3.55129012      -0.00090537      -0.01330784      -0.00594304
C        0.08149516       9.92808110       3.85827140       0.00370501       0.00315944      -0.00720075
C        7.45086102       1.39850361       3.98552499      -0.00208348      -0.00260391      -0.00036322
C        6.21738986       3.56039738       4.07824344       0.00172398      -0.00073442      -0.00420178
C        5.06383693       5.76589167       4.22490642       0.00211768      -0.00707165       0.01486903
C        3.82643339       7.81615376       4.06843812      -0.00859500      -0.00043843      -0.00892399
C        2.54485640       9.92409961       3.97958356       0.01139837       0.00268723      -0.00452301
C        9.92402107       1.38306066       3.85749738      -0.00065453      -0.00345272      -0.00227703
C        8.68957653       3.52543585       3.91440983       0.00107459      -0.01023824       0.00064865
C        7.49423659       5.67001714       4.06696052      -0.00208651      -0.00505349      -0.00658101
C        6.26990803       7.82222187       4.11792554      -0.00043158       0.00845531       0.00000360
C        5.00220792       9.93760255       3.98150885       0.00391406      -0.00632044      -0.00147042
Tc       1.52523714       4.86215098       4.36120885      -0.00754448       0.00766559      -0.00344783
O        1.60029089       6.06835124       5.82924191      -0.00074359      -0.00743687       0.00064447
O        2.62843990       5.11166425       6.32260675       0.00028819       0.00549816      -0.01166512
H        2.24700769       4.84542511       7.18472930      -0.00064266       0.00258150      -0.00476334
