52
Lattice="12.336457 0.0 0.0 -6.168228499999997 10.683685154694365 0.0 0.0 0.0 15.0" Properties=species:S:1:pos:R:3:initial_magmoms:R:1:forces:R:3 energy=-453.47008406059047 free_energy=-453.47008406059047 stress="-0.004328332280540935 0.0006574588976037612 4.242913849798221e-06 0.0006574588976037612 -0.00458937421032488 -1.3236665463404374e-05 4.242913849798221e-06 -1.3236665463404374e-05 1.858416240065061e-06" pbc="T T T"
C        0.04842871      -0.03359194       3.76250893       0.00000000       0.00018511       0.00785136      -0.00137991
C       -1.18840926       2.09159232       3.68800741       0.00000000       0.00023898       0.01254117      -0.00526187
C       -2.42018305       4.25056043       3.60725316       0.00000000       0.01145696      -0.01400227      -0.00010390
C       -3.63883249       6.38872983       3.64112662       0.00000000       0.00411300       0.00130116       0.00914955
C       -4.89649710       8.51281040       3.76255449       0.00000000      -0.00214239      -0.00296462       0.00070928
C        2.51860813      -0.02269772       3.66672574       0.00000000       0.00596029      -0.00113013      -0.00013214
C        1.29047735       2.09757263       3.75556883       0.00000000      -0.00297842       0.00235413      -0.00900368
C        0.01185442       4.19083698       3.81305196       0.00000000       0.00731348       0.00525155       0.00300881
C       -1.18554072       6.40160656       3.80025937       0.00000000      -0.01371237      -0.00851110       0.01107396
C       -2.41479770       8.52453626       3.75763943       0.00000000       0.00534358       0.00047426       0.00325383
C        4.97908504      -0.01406920       3.66105446       0.00000000      -0.00428551       0.00182924       0.00129551
C        3.75352379       2.10430338       3.40325995       0.00000000      -0.00073154       0.00484829       0.00941840
O        3.08555393       4.01299912       2.05032994       0.00000000      -0.00672582      -0.00162409       0.00357486
P        1.29332252       6.31594892       5.06219939       0.00000000       0.01242265       0.00472331      -0.00896691
C        0.03438177       8.56891469       4.07458949       0.00000000       0.00012766      -0.00147069      -0.00859983
C        7.44517703       0.00121791       3.77599339       0.00000000      -0.00428479      -0.00779629      -0.01269898
C        6.22929759       2.10361262       3.44479326       0.00000000       0.00149065      -0.01673522      -0.00917989
C        5.03688100       4.22446763       3.41571923       0.00000000      -0.00370137       0.00476428       0.00334682
S        3.64113143       6.19052106       4.59012668       0.00000000      -0.00539828      -0.00120151       0.00326094
C        2.50886632       8.60652030       4.22465537       0.00000000      -0.00265609       0.00409392      -0.00503397
C        9.92114612      -0.01713081       3.79676019       0.00000000       0.00570037       0.00446800      -0.00226423
C        8.69325456       2.11187010       3.57139751       0.00000000      -0.00136570       0.00248029       0.00876290
C        7.47517532       4.24957938       3.49562802       0.00000000      -0.00607752       0.00417570       0.00043580
C        6.23237064       6.37045475       3.74520599       0.00000000       0.00229241       0.00415120      -0.01410183
C        4.97520557       8.51529286       3.96202627       0.00000000       0.00034027      -0.00968324       0.00406133
C        0.04931034       1.38373507       3.74105369       0.00000000      -0.00724512       0.01120806      -0.00401103
C       -1.21757134       3.50725931       3.68015003       0.00000000       0.01528068       0.00304184       0.00624156
C       -2.40656509       5.68254960       3.64771521       0.00000000      -0.00404045      -0.01589970       0.00556320
C       -3.64987902       7.81007254       3.71353898       0.00000000       0.00315022       0.00269159       0.00709298
C       -4.88547818       9.94204328       3.74164447       0.00000000       0.00164949       0.00093701       0.00264859
C        2.52854020       1.39960510       3.59655805       0.00000000       0.00085152       0.00203838      -0.00129694
C        1.22071785       3.49265061       3.89397550       0.00000000      -0.00660593      -0.00495019       0.00118076
C        0.03133128       5.61850898       3.94490357       0.00000000      -0.01077637       0.00039168       0.00903817
C       -1.18116011       7.82078923       3.88503669       0.00000000      -0.00119488      -0.00377699      -0.00052059
C       -2.41797309       9.95060404       3.69300786       0.00000000       0.00464842      -0.00127902       0.00916360
C        4.98260353       1.40503687       3.48461924       0.00000000      -0.00224277      -0.00478949      -0.00004264
C        3.81643598       3.52049563       3.03384330       0.00000000       0.00059827      -0.00008321       0.00333352
C        1.26038435       7.96882204       4.45388725       0.00000000       0.00364230      -0.00942269      -0.00027935
C        0.03929735       9.97759316       3.83124328       0.00000000      -0.00740251       0.00160828      -0.00131233
C        7.45634786       1.40475329       3.57523198       0.00000000       0.00352863      -0.01096175      -0.00060959
C        6.25539202       3.52062353       3.40557865       0.00000000      -0.00714031      -0.00893247       0.00074371
C        5.05215995       5.58557983       3.77283806       0.00000000       0.00511002       0.01019019      -0.00296994
C        3.72653196       7.88607983       4.20720925       0.00000000      -0.00794128       0.00821421      -0.00151763
C        2.51269666       9.99390420       3.92004841       0.00000000       0.00159248       0.00418508      -0.00723811
C        9.91811676       1.39384672       3.66604286       0.00000000       0.00124842       0.00843584       0.00388337
C        8.69683421       3.53636792       3.53249555       0.00000000       0.00106656       0.00299450      -0.00262109
C        7.46912777       5.66932394       3.59657055       0.00000000       0.00203890       0.00788337       0.00661158
C        6.20847317       7.79424393       3.85076942       0.00000000      -0.00223942      -0.00574150      -0.00735374
C        4.98094258       9.94438474       3.84082595       0.00000000       0.00525431      -0.00793507      -0.00390712
Tc       1.99037047       5.15730060       3.20829699       0.00000000       0.01089739       0.00339506      -0.01279827
O       -0.32513991       6.24072197       6.94804548       1.00000000      -0.00592523       0.00122292       0.00146301
O        0.98074505       5.99013929       6.65627759       1.00000000      -0.00072897       0.00514535       0.00488946
