52
Lattice="12.336457 0.0 0.0 -6.168228499999997 10.683685154694365 0.0 0.0 0.0 15.0" Properties=species:S:1:pos:R:3:initial_magmoms:R:1:forces:R:3 energy=-456.24379881360414 free_energy=-456.24379881360414 stress="0.0029376685723144576 0.0024772280844479015 -0.0001276712699467253 0.0024772280844479015 0.0005335869436295003 -2.7536163270091354e-05 -0.0001276712699467253 -2.7536163270091354e-05 1.3301107521077911e-05" pbc="T T T"
C       -0.00880620      -0.01013475       3.60676538       0.00000000       0.07631399      -0.00091890       0.02459096
C       -1.21184495       2.14777384       3.53129802       0.00000000      -0.02272339       0.02352460      -0.00324451
C       -2.43653489       4.26870193       3.53696360       0.00000000      -0.00954873      -0.03868074       0.03958868
C       -3.70152023       6.39213907       3.63842858       0.00000000       0.00875530      -0.01275197       0.01517061
C       -4.94961556       8.52368851       3.68564288       0.00000000      -0.08811943       0.00398858       0.08549359
C        2.45694167      -0.01330853       3.53442624       0.00000000       0.01589146       0.01452709       0.00495102
C        1.24427852       2.13588840       3.48631405       0.00000000       0.03014514       0.02083858      -0.01245878
C        0.07654063       4.30509279       3.40847291       0.00000000       0.02335975       0.00249844       0.02505610
C       -1.22217354       6.40418203       3.47230661       0.00000000       0.02342773      -0.03448161       0.05344059
C       -2.47080726       8.52741785       3.54300231       0.00000000      -0.08067153       0.04635434       0.00469839
C        4.93117476      -0.01085337       3.51989057       0.00000000       0.00721412       0.03732009      -0.00689471
C        3.69715064       2.12260696       3.53525357       0.00000000      -0.01001714      -0.04553289      -0.00472517
O        2.48932434       4.16359657       3.46696090       0.00000000      -0.00901537      -0.01798017      -0.02641658
O        1.15097185       6.47511876       3.33632140       0.00000000       0.00022929       0.01784861      -0.00061697
C       -0.01326571       8.53932609       3.51365040       0.00000000       0.07122213      -0.02695499       0.03313554
C        7.40193419      -0.00781669       3.55800814       0.00000000      -0.01285518      -0.00371368      -0.03247891
C        6.17158394       2.12418965       3.56606014       0.00000000      -0.00890143       0.00878149       0.02217389
C        4.91152051       4.23450560       3.77123504       0.00000000       0.02054734      -0.04049793       0.03876413
P        3.61737158       6.35168087       4.90717245       0.00000000      -0.09468896       0.09093919      -0.00403057
C        2.43196647       8.52560008       3.72795238       0.00000000       0.04275041      -0.00955705      -0.00186524
C        9.86409159      -0.00326844       3.64021509       0.00000000       0.01547879      -0.03616094      -0.03156806
C        8.64936073       2.13045540       3.57570588       0.00000000      -0.05817334       0.02445101      -0.02624586
C        7.40880463       4.25255125       3.67359946       0.00000000      -0.04602036       0.02632412      -0.01443168
C        6.17105624       6.37892401       3.93507487       0.00000000       0.02037396       0.01686210      -0.04293361
C        4.92240551       8.54564980       3.89465749       0.00000000      -0.05060698      -0.01414264      -0.00728738
C        0.00298064       1.42183387       3.53306114       0.00000000       0.01993246       0.00118015      -0.01373759
C       -1.17950087       3.58029042       3.48308288       0.00000000      -0.00535315       0.01268076       0.00984311
C       -2.45785758       5.68560405       3.54642623       0.00000000       0.00475460      -0.03558212      -0.02741934
C       -3.70943016       7.81562221       3.62255835       0.00000000      -0.08634881       0.00018340      -0.00736314
C       -4.94867404       9.95068737       3.59711026       0.00000000       0.03371232       0.01539446       0.05382373
C        2.46736398       1.40685599       3.50953860       0.00000000      -0.01043785      -0.01219320      -0.01133343
C        1.26945273       3.52664846       3.43269294       0.00000000      -0.02031425      -0.00224457       0.05136311
C       -0.00415689       5.72991414       3.40410299       0.00000000       0.00668691       0.00432508      -0.01328414
C       -1.24048936       7.82666536       3.50342708       0.00000000      -0.02091009       0.02639366      -0.03514851
C       -2.47393902       9.95518994       3.52791822       0.00000000       0.00098953       0.06722340       0.00460600
C        4.93991115       1.41376963       3.53730907       0.00000000      -0.01444328      -0.01152460       0.01344229
C        3.68863119       3.51280450       3.60229340       0.00000000      -0.01259308      -0.05456935       0.05256174
C        1.18823829       7.83249629       3.56269502       0.00000000       0.04055995      -0.00131889      -0.00107409
C       -0.00061913       9.96759254       3.53176794       0.00000000      -0.01064065      -0.00772680       0.00183226
C        7.41148420       1.41859496       3.55910738       0.00000000      -0.01783806      -0.03231985       0.01553148
C        6.16054478       3.54022892       3.65934155       0.00000000       0.02356350      -0.01054330      -0.07721676
C        4.97685635       5.61300954       4.11296189       0.00000000       0.07243800       0.03123227      -0.00624209
C        3.65967832       7.89249443       4.06829845       0.00000000       0.00166911       0.03781683      -0.01594550
C        2.45550671       9.95799653       3.62134007       0.00000000      -0.00802575      -0.00003620      -0.01193280
C        9.88207980       1.42458553       3.57724434       0.00000000      -0.06318909      -0.03143901      -0.01390764
C        8.65202121       3.55156009       3.59507325       0.00000000       0.00705202       0.03658073      -0.04152307
C        7.40596038       5.67528588       3.74538265       0.00000000       0.05331736       0.02490932      -0.02680012
C        6.15574329       7.81469261       3.87743286       0.00000000      -0.00284841      -0.01761633      -0.02914283
C        4.92581720       9.96787644       3.70617118       0.00000000       0.06830529      -0.05834281      -0.02434668
Tc       2.17547645       5.92387222       6.39149800       0.00000000      -0.01385896      -0.04812408       0.02137991
O        2.31787271       5.79707119       8.33548441       1.00000000      -0.03170497       0.00188276      -0.08477759
O        1.40124713       4.88475290       7.92364880       1.00000000       0.12115777       0.01089355       0.08494623
