53
Lattice="12.336457 0.0 0.0 -6.168228499999997 10.683685154694365 0.0 0.0 0.0 15.0" Properties=species:S:1:pos:R:3:forces:R:3 energy=-459.5055091714959 free_energy=-459.5055091714959 stress="-0.0011854420457074247 -0.0006090117716750864 -0.00010390393039121235 -0.0006090117716750864 -0.00494032698103728 -0.0001382862151317145 -0.00010390393039121235 -0.0001382862151317145 9.437821862731741e-06" pbc="T T T"
C       -0.04027549       0.05563501       3.82053679      -0.03328159       0.00658724       0.04844392
C       -1.27667241       2.18853754       3.78963126       0.01328505      -0.01748478       0.04701973
C       -2.51521150       4.33765233       3.86951883       0.01124235      -0.03361518      -0.02495842
C       -3.74322217       6.47227762       3.85875032      -0.06545361       0.00964925       0.01207100
C       -4.98093602       8.59738312       3.83502497       0.02039974       0.06258006       0.04159856
C        2.42647761       0.04972267       3.65368943       0.05403032      -0.03571984      -0.05498640
C        1.18417695       2.17722107       3.46587059       0.01593768       0.03940549      -0.03095522
C       -0.06457734       4.29485149       3.72127218      -0.03976042       0.00628727      -0.02789396
C       -1.27391594       6.46537729       4.04605126      -0.05586013       0.01275028      -0.04449828
C       -2.49843216       8.60466817       3.91012380      -0.00702775      -0.04104905      -0.01755797
C        4.90195294       0.05457195       3.78163785       0.00753256       0.01358341       0.07255819
C        3.68160177       2.14786938       3.31896980       0.00034840      -0.01350284      -0.02326538
P        2.39189374       4.41153442       2.33778846      -0.10424368      -0.06822337      -0.10268426
P        1.43641145       6.32714573       4.57035761       0.05206431       0.04935182       0.02597324
C       -0.05008371       8.64473197       4.22932800      -0.00756669       0.01748095      -0.02973741
C        7.35946307       0.09092701       4.08361859       0.01181126      -0.00503343      -0.05074684
C        6.14324293       2.17772080       3.67352318      -0.00163654      -0.05710624       0.02114860
C        4.95110662       4.26478812       3.27699256       0.06033835      -0.01644465       0.02520281
S        3.55648213       6.37261498       2.39390685      -0.10104791       0.04086499       0.01613297
C        2.45745662       8.71194706       4.45161127      -0.03566790      -0.01493195       0.08883407
C        9.84602570       0.09147670       4.08362990       0.00099835       0.04328559       0.01177741
C        8.59984895       2.20796128       3.91454477      -0.05923676      -0.00354045      -0.06926159
C        7.36620755       4.33405651       3.74932225       0.02346934       0.00878280       0.01547053
C        6.12036307       6.48227379       3.67205627       0.02344085      -0.00075322      -0.00919564
C        4.89589760       8.61587957       4.14960025       0.01517523      -0.07337006      -0.10162310
C       -0.04408837       1.47211826       3.69911500       0.02484279       0.01793914      -0.00003472
C       -1.29518553       3.60738570       3.78657898       0.01879903      -0.04323228       0.02900096
C       -2.51207325       5.76178592       3.91157814      -0.05549625      -0.01095919       0.06150493
C       -3.74013374       7.89302189       3.86301491      -0.02528102       0.01236420      -0.03146930
C       -4.97547648      10.01878490       3.77391896      -0.00120380       0.04753857      -0.01532942
C        2.42887161       1.46047020       3.43826981       0.01039742      -0.02501806      -0.00262616
C        1.12736078       3.59104026       3.33689874       0.00861726       0.04351156       0.01863251
C       -0.08196611       5.68364981       4.05648482      -0.05311227       0.02686679      -0.05709862
C       -1.26464855       7.89801920       4.07769309      -0.02192211       0.02248299       0.06054398
C       -2.50425619      10.02368026       3.76421569       0.04088917      -0.03304180       0.10129228
C        4.91390538       1.45732091       3.56796404      -0.03010511      -0.00195029       0.12629569
C        3.75847428       3.54620193       3.03541208       0.01406336      -0.00951965      -0.00203137
C        1.20857952       8.03675744       4.48680783       0.00749785      -0.14809337      -0.05376378
C       -0.04517029      10.05702960       4.05527471       0.02687340       0.01756714      -0.07922684
C        7.36613394       1.49532021       3.89531404      -0.03364302      -0.04055627       0.03752746
C        6.15663245       3.59665240       3.58089500       0.06461939      -0.04640633      -0.01679710
C        4.91466928       5.71925493       3.32915422       0.11156331       0.01729394      -0.00634306
C        3.68386563       7.97591598       4.49147683      -0.01556322      -0.01066402      -0.03518607
C        2.43809301      10.10350032       4.24050416       0.01087733       0.03460365      -0.01626172
C        9.83479762       1.49788495       3.93861983      -0.03461033       0.04403162      -0.01205529
C        8.59182403       3.62891385       3.85385009      -0.00593678      -0.00703811      -0.01923502
C        7.35275411       5.76635715       3.75666390      -0.01862455       0.01183477      -0.00555730
C        6.10720845       7.88390416       3.88116492       0.07530050       0.00062389       0.03502862
C        4.90501690      10.04911294       4.03757788      -0.02281394      -0.05627946      -0.00217453
Tc       3.61276470       5.93136057       4.99627998       0.12108123       0.10452829       0.11303538
O        4.77807758       5.88328440       6.25251068      -0.11162999       0.15559443      -0.02370022
O        2.80040691       4.32747477       5.93659646       0.10049938       0.05215017      -0.00681925
H        2.91306802       4.40406785       6.90291469      -0.00526986      -0.10600638      -0.03601860
