53
Lattice="12.336457 0.0 0.0 -6.168228499999997 10.683685154694365 0.0 0.0 0.0 15.0" Properties=species:S:1:pos:R:3:forces:R:3 energy=-463.4862363913432 free_energy=-463.4862363913432 stress="-0.005032397889051806 0.003191152003669125 -4.437351635540495e-06 0.003191152003669125 -0.008419584854064643 -1.6338583152454634e-06 -4.437351635540495e-06 -1.6338583152454634e-06 -7.3706510950015e-06" pbc="T T T"
C        0.04899422      -0.00887339       3.73827794      -0.00140347       0.00215440      -0.00924265
C       -1.17282656       2.13559539       3.66051918      -0.00656658       0.00011202       0.00133820
C       -2.40797147       4.27509611       3.64136052      -0.00529274      -0.00134641       0.00214883
C       -3.65569271       6.40703796       3.70787379       0.00950310       0.00624205      -0.00057134
C       -4.91039659       8.52831606       3.71369943       0.00581239      -0.00482139      -0.00479189
C        2.51035137      -0.01269779       3.85568149       0.00075027       0.00374380       0.00678326
C        1.29514520       2.12868472       3.78572878       0.00717696      -0.00303259      -0.00231648
C        0.04261461       4.26167907       3.55691310       0.00610046      -0.00156982      -0.00241681
C       -1.18348220       6.41920028       3.74796214      -0.00589843      -0.00314032       0.00947219
C       -2.42900927       8.54196422       3.83840216      -0.00614524      -0.00311321       0.00289359
C        4.98387372      -0.00348429       3.95484237      -0.00426984      -0.00740032      -0.00072291
C        3.77009831       2.11420525       3.93160011      -0.00362074       0.00688098       0.00307371
B        2.60474150       4.34100986       3.86648810       0.00237223      -0.00339697      -0.00458033
B        1.38406898       6.45232838       3.76321707       0.00625084       0.00071524      -0.00809737
C        0.04125258       8.57006003       3.90297150       0.00283999       0.00137133      -0.00595289
C        7.45414592       0.02168978       3.93503794       0.00946980       0.00680877       0.00197941
C        6.24345616       2.12161559       3.93420544      -0.00849207      -0.00320524      -0.00179401
C        5.04937509       4.22781921       3.80136681      -0.01072199      -0.00382654       0.00129647
S        3.29200817       6.14008142       3.17315528      -0.00216331      -0.00096693      -0.00789494
C        2.51238720       8.61909905       3.78636343       0.00425970       0.00017299      -0.00191531
C        9.93597936       0.02010424       3.79039468      -0.00811424      -0.00389131      -0.00271509
C        8.70523548       2.14310324       3.80000566       0.00204468      -0.00249713       0.00482657
C        7.48204477       4.26991020       3.76738205       0.00168748       0.00639414       0.00421448
C        6.18642151       6.38554935       3.61757824       0.00061633      -0.00260838       0.00141765
C        4.95039228       8.52379383       3.62929022       0.00131385       0.00659886       0.00042283
C        0.06107209       1.41849973       3.72619974       0.00033659       0.00364708      -0.00361144
C       -1.19087154       3.55074665       3.55863737      -0.00332295       0.00207102      -0.00119639
C       -2.41342428       5.70363402       3.69414759      -0.00244560      -0.00082375      -0.00636465
C       -3.66472942       7.82846882       3.75036238       0.00329963      -0.00108210       0.00197069
C       -4.89309598       9.95676351       3.76867983       0.00235259      -0.00080197      -0.00354262
C        2.51784960       1.41119972       3.87971630       0.00680891       0.00536410      -0.00120121
C        1.28629683       3.57312386       3.74940676       0.01191548      -0.00571930       0.00084452
C        0.06360690       5.68825395       3.71028715       0.00204633       0.00123675      -0.00434090
C       -1.19272704       7.83660662       3.84668223      -0.00655944      -0.00159335      -0.00360612
C       -2.42458105       9.96372824       3.89545806      -0.00683122      -0.00555361       0.00212793
C        5.00473881       1.40901722       3.96145717      -0.01137753      -0.00523213       0.01012022
C        3.83560746       3.52123997       3.86874861      -0.00897000       0.00195006       0.00325231
C        1.29099198       7.92549713       3.82103818       0.00539167       0.00343346      -0.00346763
C        0.04821444       9.99071308       3.95478153       0.00842466       0.00430699      -0.00148522
C        7.47244558       1.43131525       3.90635734       0.00160265       0.00567987       0.00546345
C        6.27738637       3.53543298       3.86393432      -0.00640446       0.00042843      -0.01024507
C        5.01476593       5.60873231       3.59618394      -0.00512429      -0.00319114       0.00840646
C        3.69193019       7.89709460       3.59277973       0.00528625       0.00196133       0.00932656
C        2.52779244      10.02762281       3.86968121      -0.00091829      -0.00296352      -0.00613397
C        9.93540597       1.43664367       3.75292670      -0.00465170      -0.00831906      -0.00667388
C        8.70847540       3.56124600       3.73487871      -0.00095796      -0.00299943       0.00452838
C        7.45198936       5.68878333       3.69057843       0.01108985       0.00941830       0.00839416
C        6.19212016       7.81534600       3.62448118       0.00209452      -0.00192754       0.00881494
C        4.98131641       9.96820916       3.71695686      -0.00552655       0.00654173      -0.00482952
Ti       0.92707841       4.85127682       5.71513801       0.00335109       0.00173353      -0.00681502
O       -0.26110711       4.17375373       6.64813142      -0.00520335      -0.00547232       0.01191545
O        2.17010939       5.87798478       6.68106893       0.00565286      -0.01013287       0.01495243
H        2.18717275       6.04631713       7.63697324       0.00113085       0.01166143      -0.01345902
