51
Lattice="12.336457 0.0 0.0 -6.168228499999997 10.683685154694365 0.0 0.0 0.0 15.0" Properties=species:S:1:pos:R:3:initial_magmoms:R:1:forces:R:3 energy=-444.33884843800314 free_energy=-444.33884843800314 stress="-0.007450156084537082 -0.0005375845112522124 1.3141773112120744e-06 -0.0005375845112522124 -0.005641621760553528 -1.4296863325834754e-05 1.3141773112120744e-06 -1.4296863325834754e-05 3.7069150230673146e-06" pbc="T T T"
C       -0.00169262       0.01537174       3.72050935       0.00000000       0.00004523       0.00238939       0.00601442
C       -1.24266067       2.15348524       3.61053486       0.00000000      -0.00311052       0.00950275       0.00464335
C       -2.48868422       4.29816488       3.86082781       0.00000000      -0.00571744      -0.00186229       0.00540202
C       -3.70188663       6.44133988       3.97663327       0.00000000       0.01765135      -0.00699107       0.00229456
C       -4.92648060       8.58047517       3.91565697       0.00000000       0.00094355      -0.00426761      -0.01013225
C        2.47057909       0.00373654       3.62584694       0.00000000       0.00630277      -0.00406278       0.00330166
C        1.21443407       2.06012226       3.18024792       0.00000000       0.00786122      -0.00870105      -0.00691722
C       -0.11720689       4.33375940       3.47454231       0.00000000      -0.00493374       0.00211296      -0.00055196
C       -1.25542374       6.44351140       3.95020533       0.00000000       0.00470301       0.00082188       0.00464024
C       -2.46701919       8.57684579       3.92814792       0.00000000      -0.00590216      -0.00424523      -0.00121585
C        4.93542831       0.02275571       3.72935221       0.00000000      -0.00507170       0.00874791       0.00576919
C        3.72891761       2.05625862       3.12572442       0.00000000       0.00161515       0.00849398      -0.00509977
B        1.24839623       6.44147564       4.01814665       0.00000000      -0.00096445      -0.00903491      -0.01690450
C       -0.00963656       8.58922876       3.97382547       0.00000000      -0.00721841       0.00144342       0.00847937
C        7.40109408       0.03316192       3.86060001       0.00000000      -0.00380237       0.01062586       0.00135399
C        6.16992363       2.16230262       3.61367450       0.00000000      -0.00611437       0.00717206      -0.00661771
C        5.03438272       4.34791966       3.41894926       0.00000000      -0.00414646      -0.00556647      -0.00489157
C        3.74256658       6.43602281       3.91004353       0.00000000       0.00335099      -0.00258854       0.00063773
C        2.48127619       8.59665633       3.99102366       0.00000000      -0.00234351       0.00275038       0.00145177
C        9.87437476       0.02986983       3.85106179       0.00000000       0.00678551      -0.00511105      -0.00754436
C        8.63342786       2.16390706       3.81479001       0.00000000       0.00286045      -0.00588600       0.00053734
C        7.40636724       4.30111514       3.85946404       0.00000000      -0.00041002       0.00330344       0.00279719
C        6.19705146       6.45423465       3.89127243       0.00000000       0.00060169       0.00276257      -0.00982366
C        4.94086936       8.57270528       3.93325894       0.00000000      -0.00258854      -0.00286984       0.00810093
C       -0.00905174       1.43211528       3.50571932       0.00000000      -0.00085441       0.00621766       0.00415926
C       -1.28006865       3.56951278       3.64697610       0.00000000      -0.00685549       0.00853069       0.01195024
C       -2.48288164       5.72436148       3.94750226       0.00000000       0.01436600      -0.00561300       0.00298520
C       -3.69870046       7.86653715       3.95856906       0.00000000       0.00158919      -0.00969209      -0.00681249
C       -4.93222649       9.99409049       3.76804243       0.00000000       0.00233233      -0.00146986       0.00773193
C        2.47224847       1.39765270       3.27719523       0.00000000       0.00975708      -0.00435698      -0.00030596
S        1.13172866       3.66158613       2.48334466       0.00000000       0.00155355      -0.00580708      -0.00075015
C       -0.04061276       5.70713525       3.82498808       0.00000000      -0.00299626       0.00015586      -0.00407915
C       -1.23756140       7.86737640       3.97715519       0.00000000      -0.00678419      -0.00034754       0.00791488
C       -2.46530556       9.99285968       3.77379937       0.00000000       0.00114798      -0.00225564       0.00810243
C        4.94170670       1.43752255       3.49443781       0.00000000      -0.00437251       0.01086065       0.00142745
S        3.87485316       3.61646549       2.31444105       0.00000000      -0.00334967      -0.01073213       0.01322226
C        1.23836619       7.91211299       4.02084178       0.00000000      -0.00310465      -0.00444231      -0.00717971
C       -0.00328479      10.00886018       3.87696377       0.00000000      -0.00577198       0.00721671      -0.00087625
C        7.39362729       1.45618295       3.77796710       0.00000000      -0.00560072       0.00871259       0.01001433
C        6.19256146       3.58279640       3.64800200       0.00000000      -0.00148432       0.00374550      -0.00780738
C        4.96116686       5.75094142       3.74045376       0.00000000      -0.00218335      -0.00499274      -0.00553281
C        3.70226822       7.84696061       3.96458434       0.00000000      -0.00225277      -0.00385071      -0.00531877
C        2.47427308      10.01457845       3.92064349       0.00000000       0.00016064       0.00772019       0.00679926
C        9.87324199       1.45202061       3.77382003       0.00000000       0.00611105      -0.00421072      -0.00504256
C        8.62741053       3.58316649       3.87117814       0.00000000      -0.00345706      -0.00543342      -0.00073122
C        7.40883073       5.72750985       3.92439104       0.00000000       0.00781174       0.00663558      -0.00365512
C        6.17905857       7.87171499       3.93972120       0.00000000      -0.00311611       0.00272441      -0.00791211
C        4.93566668       9.99347370       3.85519680       0.00000000       0.00269633      -0.00569165      -0.00400694
Ti       2.58272384       4.71371106       4.32649412       0.00000000       0.00408393       0.00001622      -0.00582944
O        2.07282095       4.64637839       6.09627002       1.00000000      -0.01334025       0.00642610       0.00412139
O        3.02670754       3.57946978       5.70967005       1.00000000       0.01351667       0.00099391       0.00168653
