51
Lattice="12.336457 0.0 0.0 -6.168228499999997 10.683685154694365 0.0 0.0 0.0 15.0" Properties=species:S:1:pos:R:3:initial_magmoms:R:1:forces:R:3 energy=-458.60861216841425 free_energy=-458.60861216841425 stress="-0.00452112674176626 0.000682513896751518 1.679604036603535e-06 0.000682513896751518 -0.0005758232258833347 5.260931984413544e-06 1.679604036603535e-06 5.260931984413544e-06 -9.72657979352151e-06" pbc="T T T"
C        0.00823134       0.00354731       3.56870459       0.00000000       0.00497149      -0.00105874      -0.00108138
C       -1.23982981       2.12073512       3.46037660       0.00000000      -0.00061878       0.00551948      -0.00090452
C       -2.47991783       4.26322273       3.47172156       0.00000000       0.00073135      -0.00362931       0.00612859
C       -3.70344818       6.40656158       3.54163274       0.00000000       0.00246081      -0.00247342       0.01443112
C       -4.93196748       8.55050780       3.63565126       0.00000000       0.00164678      -0.00212152      -0.00284997
C        2.48016559       0.02205243       3.67865155       0.00000000      -0.00120543       0.00655033      -0.00169686
C        1.24581473       2.15139766       3.62141808       0.00000000      -0.00194569       0.00206495       0.00595416
C       -0.02644839       4.25521371       3.64890857       0.00000000       0.00300933       0.00767551      -0.01510144
C       -1.25794905       6.41549707       3.64901910       0.00000000       0.00151559      -0.00719733       0.00121821
C       -2.47121140       8.55320790       3.63864494       0.00000000       0.00220809      -0.00534782      -0.00004021
C        4.94228652      -0.00263489       3.72400894       0.00000000      -0.00613517       0.00377046       0.00153878
C        3.73779977       2.17294571       3.93606629       0.00000000       0.00186190       0.00156030      -0.00185299
C        1.15013704       6.39868332       4.06272551       0.00000000      -0.00013075      -0.00346977       0.00802178
C        0.00365153       8.52830080       3.78529748       0.00000000      -0.00096352       0.00059414      -0.00817355
C        7.41032436      -0.02361018       3.67364299       0.00000000      -0.00261172      -0.00276552       0.00110083
C        6.18263034       2.11788563       3.69445073       0.00000000       0.00250914       0.00596235       0.00141440
C        4.96098984       4.22479534       3.99937025       0.00000000      -0.00162030      -0.00625204      -0.00179553
B        3.87741471       6.49296435       4.64765102       0.00000000       0.00339266       0.00504771       0.00671070
C        2.48643717       8.52947010       3.91903598       0.00000000      -0.00121635       0.00091398      -0.00340064
C        9.87124539      -0.01630640       3.59540125       0.00000000       0.00296570       0.00009103      -0.00135183
C        8.63550977       2.11828168       3.50273568       0.00000000      -0.00521931      -0.00419957      -0.00020178
C        7.40277030       4.25803774       3.57515353       0.00000000      -0.00130284       0.00565442      -0.00362658
C        6.18305681       6.38913848       3.77959209       0.00000000       0.00148159       0.00327637       0.00183785
C        4.94775822       8.55664608       3.80665088       0.00000000      -0.00185036       0.00093252      -0.00189493
C        0.00391941       1.42064245       3.51485585       0.00000000      -0.00159615       0.00082796       0.00020761
C       -1.26224762       3.54351429       3.48372242       0.00000000       0.00564233       0.00598476       0.00141120
C       -2.47367200       5.69616351       3.52761049       0.00000000      -0.00003485      -0.00560292      -0.00201500
C       -3.69913234       7.83582607       3.59375462       0.00000000       0.00288274      -0.00469694       0.00497283
C       -4.92369404       9.98174164       3.62068359       0.00000000       0.00328089      -0.00181029      -0.00222590
C        2.49112919       1.44756262       3.76039868       0.00000000       0.00377379       0.00602389       0.00194368
C        1.15740679       3.53448660       3.64583705       0.00000000      -0.00467156      -0.00530202      -0.00205348
C       -0.01654179       5.70364878       3.80176945       0.00000000      -0.00133290       0.00081119      -0.00266128
C       -1.24128664       7.83380067       3.68886297       0.00000000       0.00250853      -0.00486485      -0.00094619
C       -2.46273006       9.97748113       3.68909902       0.00000000      -0.00555313       0.00007835       0.00204049
C        4.95248740       1.42072694       3.77815771       0.00000000       0.00388294       0.00560147       0.00574551
N        3.80849941       3.51012554       4.22974981       0.00000000       0.00044268      -0.00297854      -0.00690984
C        1.23730244       7.78826277       3.94033985       0.00000000       0.00062427      -0.00500499      -0.00727748
C        0.00749452       9.95155650       3.72841686       0.00000000      -0.00517900      -0.00070353      -0.00262370
C        7.40949524       1.40103336       3.60060259       0.00000000      -0.00306726      -0.00329002      -0.00087100
C        6.18682363       3.53388604       3.72185836       0.00000000      -0.00273275       0.00626505      -0.00613939
C        5.00923981       5.65562815       4.04001961       0.00000000       0.00052168      -0.00113908      -0.00129632
C        3.73181147       7.89079961       4.04851329       0.00000000      -0.00107072       0.00147085       0.00323778
C        2.47446922       9.94802783       3.70920761       0.00000000      -0.00111446       0.00080368      -0.00156754
C        9.86543893       1.40502433       3.48830459       0.00000000      -0.00172826      -0.00076164       0.00135709
C        8.63156086       3.54529308       3.47993816       0.00000000      -0.00157986      -0.00157177      -0.00160520
C        7.41250296       5.68325696       3.59148934       0.00000000       0.00066997       0.00200949       0.00553359
C        6.18178290       7.83260178       3.75202419       0.00000000      -0.00089593       0.00386143      -0.00156154
C        4.94307131       9.97495888       3.62745642       0.00000000       0.00371758      -0.00185653      -0.00408819
Ti       2.12524678       4.69620669       5.09572421       0.00000000       0.00402703       0.00262167       0.01104287
O        3.28035608       6.07953107       5.79674850       1.00000000      -0.00591282      -0.00723647       0.00155616
O        1.44345078       3.97762795       6.42856707       1.00000000       0.00056097      -0.00063870       0.00040900
