51
Lattice="12.336457 0.0 0.0 -6.168228499999997 10.683685154694365 0.0 0.0 0.0 15.0" Properties=species:S:1:pos:R:3:initial_magmoms:R:1:forces:R:3 energy=-445.96435948825734 free_energy=-445.96435948825734 stress="-0.0059424776846011915 -0.0007373598627423544 -2.920436310554044e-06 -0.0007373598627423544 -0.002599891563440568 1.60372229984782e-06 -2.920436310554044e-06 1.60372229984782e-06 1.0065703739599048e-06" pbc="T T T"
C       -0.02544638      -0.01633222       3.70921488       0.00000000       0.00026640      -0.00135170       0.00060433
C       -1.25979936       2.13322117       3.79131025       0.00000000      -0.00171464      -0.00161191      -0.00725561
C       -2.53248609       4.26334125       4.02815236       0.00000000      -0.00666215      -0.00704471      -0.00616211
C       -3.73780819       6.40797317       3.98729499       0.00000000       0.00738765       0.00350415      -0.01044895
C       -4.95439449       8.54265912       3.82741310       0.00000000       0.00036449       0.00149811      -0.00139852
C        2.45352754      -0.03909074       3.61711596       0.00000000      -0.00204912       0.00113043      -0.00363324
C        1.21724264       2.04861825       3.46267040       0.00000000      -0.00586578      -0.00048174      -0.00328267
C       -0.13640713       4.32929949       4.06484904       0.00000000      -0.00105464       0.00304758      -0.00466770
C       -1.31129537       6.41984205       4.25125721       0.00000000      -0.00020050       0.00251319      -0.00191316
C       -2.48709806       8.54221229       3.94845705       0.00000000       0.00232814       0.00187219      -0.00013027
C        4.91956801      -0.02000665       3.64494136       0.00000000      -0.00240950      -0.00178963       0.00103790
C        3.68698979       2.03820095       3.10616029       0.00000000       0.00465676       0.00366246       0.00176140
B        1.17768431       6.43961680       4.66173514       0.00000000      -0.01118223       0.01009484       0.00653427
C       -0.01087320       8.54363606       4.02733505       0.00000000       0.00135922       0.00853215       0.00752515
C        7.38413145      -0.01891108       3.72296017       0.00000000       0.00199457       0.00215617       0.00320273
C        6.14794792       2.13382313       3.46547595       0.00000000       0.00685372      -0.00086782      -0.00172535
C        5.00697913       4.35125578       3.16443968       0.00000000      -0.00608504       0.00317832       0.00170283
O        3.76642711       6.43794816       3.54058835       0.00000000      -0.00970799      -0.00445759      -0.00113214
C        2.45905685       8.50140314       3.87053697       0.00000000       0.00315832      -0.00632926       0.00531067
C        9.84422770      -0.01951301       3.74274015       0.00000000      -0.00220313      -0.00090117      -0.00439662
C        8.60566973       2.12545629       3.75621120       0.00000000       0.00262139      -0.00245012       0.00322857
C        7.37051885       4.26715138       3.73668263       0.00000000      -0.00499321      -0.00365217      -0.00740797
C        6.18468553       6.43655263       3.69552550       0.00000000       0.00206403      -0.00650722      -0.00496686
C        4.91223931       8.52873547       3.74281880       0.00000000       0.00632581      -0.00079747      -0.00494514
C       -0.02574137       1.41604843       3.66937408       0.00000000      -0.00365820      -0.00393107      -0.00642377
C       -1.30165452       3.54339713       3.98185003       0.00000000      -0.00254172      -0.00171572       0.00216503
C       -2.52991139       5.68853731       4.11784039       0.00000000       0.00020966      -0.00339240      -0.00312001
C       -3.72336115       7.83192891       3.93821718       0.00000000       0.00180873       0.00489239       0.00348479
C       -4.95532879       9.96198074       3.72975322       0.00000000       0.00035724      -0.00014485       0.00457652
C        2.45159515       1.36465778       3.35885429       0.00000000      -0.00186289       0.00248990       0.00207634
S        1.28591269       3.74501609       3.31943943       0.00000000      -0.00549700      -0.00058290       0.00139042
C       -0.12103628       5.69640465       4.36143812       0.00000000       0.00546203       0.00352163      -0.00607865
C       -1.26644390       7.84407448       4.11869328       0.00000000       0.00217995       0.00598572       0.00900355
C       -2.47952010       9.95108266       3.73485741       0.00000000      -0.00202303       0.00025986      -0.00115798
C        4.91833321       1.39951598       3.38592373       0.00000000       0.00338771      -0.00019466       0.01038518
S        3.73500774       3.56708968       2.20028906       0.00000000       0.00229545       0.00214184      -0.00293871
C        1.22253031       7.85762257       4.13482772       0.00000000      -0.00032460       0.01153963       0.00842273
C       -0.01788535       9.96108157       3.78919751       0.00000000       0.00050894       0.00592565      -0.00166642
C        7.37339563       1.41470630       3.64289417       0.00000000       0.00640919       0.00057509       0.00151345
C        6.17029472       3.55745293       3.45294008       0.00000000      -0.00215694      -0.00382074       0.00097559
C        5.00482336       5.75555201       3.43631718       0.00000000      -0.00447373       0.00308354      -0.00114699
C        3.70879992       7.82941228       3.75286968       0.00000000       0.00642393      -0.00374479       0.00938021
C        2.45084192       9.94179408       3.76692100       0.00000000      -0.00005864      -0.00240436       0.00191828
C        9.84804862       1.41645322       3.77083306       0.00000000       0.00142467       0.00022674      -0.00464311
C        8.59242183       3.54583277       3.85318990       0.00000000      -0.00816681      -0.00531346       0.00081069
C        7.38518194       5.69252518       3.81921607       0.00000000       0.00650066      -0.00180666       0.00202654
C        6.16060319       7.84401524       3.77037187       0.00000000       0.00157701      -0.00792685       0.00676161
C        4.90628956       9.95858628       3.74546037       0.00000000      -0.00028544       0.00167829      -0.00299592
Ti       3.24004652       4.62370644       4.61486571       0.00000000       0.00561653      -0.00350076       0.00500478
O        2.12735581       5.86874728       5.49667633       1.00000000      -0.00303783       0.00021321      -0.01228540
O        4.02954222       3.75512552       5.78375980       1.00000000       0.00467258      -0.00700138       0.00511973
