51
Lattice="12.336457 0.0 0.0 -6.168228499999997 10.683685154694365 0.0 0.0 0.0 15.0" Properties=species:S:1:pos:R:3:initial_magmoms:R:1:forces:R:3 energy=-444.47189723496825 free_energy=-444.47189723496825 stress="-0.0022891896007737 -0.002063178096472064 4.776350692020319e-06 -0.002063178096472064 -0.009847047908210897 6.414327301202124e-06 4.776350692020319e-06 6.414327301202124e-06 -9.440722043896884e-06" pbc="T T T"
C       -0.02785405       0.01308511       3.90930016       0.00000000       0.00062341      -0.00088019       0.00342281
C       -1.27667167       2.14553488       3.96431365       0.00000000      -0.00207921      -0.00134859      -0.00212716
C       -2.50595127       4.28364953       3.84841862       0.00000000      -0.00051812       0.00024064       0.00121819
C       -3.72935838       6.41341633       3.75182054       0.00000000       0.00251566       0.00216703       0.00028443
C       -4.96235612       8.54542303       3.81750210       0.00000000      -0.00107009       0.00072419       0.00072917
C        2.43917447      -0.02005372       3.77685950       0.00000000      -0.00206548      -0.00265839      -0.00282529
C        1.20230195       2.14767737       3.91552605       0.00000000       0.00238182      -0.00016890      -0.00112402
C       -0.02834164       4.24455809       3.95943320       0.00000000      -0.00076279       0.00133053       0.00330458
C       -1.23625483       6.40096248       3.71325285       0.00000000       0.00047596      -0.00082973       0.00015794
C       -2.47732028       8.53135060       3.72152778       0.00000000      -0.00010435       0.00233242       0.00010187
C        4.90154394       0.00086473       3.63772909       0.00000000      -0.00090523      -0.00071933       0.00188959
C        3.63890699       2.05365666       3.34488322       0.00000000       0.00108406      -0.00009689      -0.00090756
S        1.51158883       6.27208607       3.12426038       0.00000000      -0.00013034      -0.00257429       0.00222665
C       -0.01562943       8.55316698       3.63656685       0.00000000       0.00150857      -0.00377004       0.00059110
C        7.35255644       0.04596068       3.73133255       0.00000000      -0.00035172       0.00447308      -0.00249557
C        6.12174704       2.15764102       3.48185314       0.00000000      -0.00091032      -0.00032540       0.00125881
C        4.96825804       4.31836005       3.18563754       0.00000000       0.00088212       0.00004213      -0.00310640
B        3.57226498       6.48209564       3.74714976       0.00000000      -0.00232363      -0.00096241       0.00192552
C        2.43949101       8.64887782       3.74333909       0.00000000       0.00119050       0.00199337       0.00077726
C        9.83870936       0.04758384       3.88748889       0.00000000      -0.00042381       0.00102172       0.00169288
C        8.58783747       2.16574726       3.78625112       0.00000000       0.00057491       0.00142287      -0.00197627
C        7.36917678       4.28995865       3.62253988       0.00000000       0.00134761      -0.00335316      -0.00271915
C        6.12878811       6.42635369       3.66735565       0.00000000       0.00082289       0.00093440       0.00148109
C        4.91119951       8.58690850       3.83304308       0.00000000      -0.00241591       0.00219664       0.00020109
C       -0.04068642       1.42940967       3.94938247       0.00000000       0.00024266      -0.00062340      -0.00345157
C       -1.28986190       3.55890328       3.95710456       0.00000000      -0.00140412      -0.00045838      -0.00305226
C       -2.49300975       5.70139828       3.78047249       0.00000000       0.00119404      -0.00003594      -0.00104099
C       -3.72378546       7.83257790       3.76621158       0.00000000       0.00058299       0.00345573       0.00148527
C       -4.96442632       9.96600453       3.85660250       0.00000000      -0.00119512      -0.00152999      -0.00009983
C        2.42971665       1.40334861       3.70844290       0.00000000       0.00181164      -0.00276850      -0.00006854
C        1.17056920       3.52432733       4.08763302       0.00000000       0.00184969       0.00132223      -0.00241623
C       -0.04390329       5.63681463       3.70600324       0.00000000       0.00163871       0.00093459       0.00018586
C       -1.24021032       7.82419179       3.66315374       0.00000000      -0.00056303      -0.00159865       0.00218400
C       -2.49185424       9.95920687       3.70711125       0.00000000      -0.00185834       0.00077967       0.00002546
C        4.89862620       1.42166830       3.48187950       0.00000000      -0.00009522      -0.00080450       0.00250270
S        3.58512239       3.54239872       2.40781213       0.00000000       0.00062819       0.00206456       0.00176258
C        1.24459013       7.93253788       3.57131949       0.00000000       0.00330659      -0.00093934      -0.00270295
C       -0.02935541       9.99009995       3.67554713       0.00000000       0.00026305      -0.00097360      -0.00035182
C        7.34796020       1.46476006       3.67609974       0.00000000       0.00032863       0.00456609      -0.00050583
C        6.15147356       3.57051152       3.39918809       0.00000000      -0.00093532      -0.00184483       0.00018018
C        4.88107903       5.70220092       3.51866922       0.00000000      -0.00092841      -0.00009519       0.00102101
C        3.65612768       7.94267954       3.76493372       0.00000000      -0.00113631      -0.00022700       0.00239488
C        2.42562711      10.05493425       3.81791360       0.00000000      -0.00028600       0.00317754      -0.00123930
C        9.82285776       1.45602328       3.89760683       0.00000000      -0.00224025      -0.00012482       0.00009156
C        8.59370884       3.58044355       3.76379005       0.00000000       0.00129950      -0.00077543      -0.00066510
C        7.36551567       5.71216780       3.68449780       0.00000000       0.00295981      -0.00167736      -0.00038766
C        6.13669856       7.84410007       3.79562144       0.00000000      -0.00189242       0.00239474       0.00143280
C        4.90596350      10.00941489       3.89619644       0.00000000      -0.00037718       0.00153286       0.00075913
Ti       2.93913986       4.55003338       4.73583646       0.00000000       0.00009693      -0.00292300      -0.01967575
O        2.92221199       4.93782295       6.52597782       1.00000000      -0.00113737      -0.00463610      -0.00199227
O        3.77750728       3.76873309       6.16025806       1.00000000      -0.00149983       0.00061630       0.01964313
