51
Lattice="12.336457 0.0 0.0 -6.168228499999997 10.683685154694365 0.0 0.0 0.0 15.0" Properties=species:S:1:pos:R:3:initial_magmoms:R:1:forces:R:3 energy=-444.8359938998643 free_energy=-444.8359938998643 stress="-0.004706567072448078 0.0006570750096233355 3.0289599904496983e-06 0.0006570750096233355 -0.006914306177180586 1.081207457453234e-05 3.0289599904496983e-06 1.081207457453234e-05 -1.002359550506789e-05" pbc="T T T"
C        0.03515210      -0.00191989       3.78392812       0.00000000      -0.00138441      -0.00050762       0.00204530
C       -1.20527406       2.12838189       3.51444252       0.00000000       0.00401442      -0.00011000      -0.00109645
C       -2.46758703       4.27041123       3.55596425       0.00000000      -0.00039174      -0.00116544      -0.00078380
C       -3.68180329       6.40437077       3.77500303       0.00000000       0.00552567      -0.00188151       0.00167772
C       -4.90383421       8.53689008       3.89272527       0.00000000      -0.00301129      -0.00239636       0.00246662
C        2.50022876      -0.02140972       3.82752489       0.00000000      -0.00102567       0.00303679      -0.00137356
C        1.28518784       2.04189346       3.37928071       0.00000000      -0.00197117      -0.00171404      -0.00322418
C       -0.13120137       4.27675814       2.92716552       0.00000000      -0.00004490       0.00023455       0.00460679
C       -1.25214973       6.42562931       3.34928676       0.00000000       0.00098796       0.00074029       0.00283180
C       -2.43006816       8.53452812       3.73356649       0.00000000       0.00023140      -0.00062351      -0.00241334
C        4.96648519      -0.00665567       3.84729348       0.00000000       0.00174498       0.00142125       0.00122500
C        3.73198711       2.13413293       3.92506717       0.00000000       0.00037889       0.00239156       0.00062521
S        1.44909454       6.40856106       2.64219726       0.00000000       0.00232029       0.00368657      -0.00020507
C        0.02696146       8.55356189       3.58385748       0.00000000      -0.00116232       0.00121910      -0.00389750
C        7.42877580       0.01089388       3.83852334       0.00000000      -0.00248231       0.00095544       0.00251561
C        6.20716587       2.12482855       3.95413194       0.00000000      -0.00255537       0.00458988      -0.00223840
C        4.97956675       4.23569059       4.11474733       0.00000000       0.00186148      -0.00136288       0.00227962
B        3.71682346       6.43290717       4.13534439       0.00000000      -0.00356167      -0.00177613      -0.00275021
C        2.49120318       8.59236730       3.80230258       0.00000000      -0.00071361      -0.00059833       0.00129440
C        9.91022371       0.01841293       3.84147939       0.00000000       0.00086220      -0.00422978       0.00118858
C        8.66828008       2.13945835       3.79622270       0.00000000       0.00236873      -0.00248312       0.00679750
C        7.43636802       4.26594900       3.91254139       0.00000000      -0.00120804       0.00449505      -0.00085208
C        6.20576843       6.40491677       4.02095317       0.00000000      -0.00039270      -0.00263047      -0.00064736
C        4.97050050       8.55664040       3.96500745       0.00000000       0.00155838       0.00170218       0.00601027
C        0.02937676       1.41175056       3.55665384       0.00000000       0.00041916      -0.00421095      -0.00836441
C       -1.25971258       3.53722422       3.32168679       0.00000000       0.00072843      -0.00048460       0.00121249
C       -2.46664639       5.69626296       3.56212584       0.00000000       0.00413549      -0.00118224       0.00020992
C       -3.67251793       7.82634816       3.80660048       0.00000000      -0.00053326      -0.00308968      -0.00315018
C       -4.90385977       9.96061681       3.83879149       0.00000000      -0.00194504      -0.00022291       0.00263718
C        2.50221751       1.39950604       3.74280426       0.00000000      -0.00145142       0.00402986      -0.00124334
S        1.37028198       3.49765717       2.42856994       0.00000000      -0.00104577       0.00334979      -0.00070462
C       -0.11691103       5.67820974       2.97099074       0.00000000      -0.00394764      -0.00039838       0.00200251
C       -1.20810932       7.83630508       3.53825417       0.00000000       0.00112937       0.00091631       0.00034815
C       -2.43093756       9.95669315       3.82566619       0.00000000       0.00077387       0.00178817      -0.00227065
C        4.97008358       1.41348256       3.93163772       0.00000000      -0.00034004       0.00249568       0.00430217
C        3.77290073       3.50975236       4.13287990       0.00000000       0.00344421       0.00006151      -0.00581787
C        1.28597830       7.92128338       3.46838635       0.00000000      -0.00215446       0.00237459       0.00069318
C        0.03071013       9.97330488       3.78001752       0.00000000      -0.00040537       0.00033575      -0.00209759
C        7.43946808       1.42704381       3.87843042       0.00000000      -0.00276037       0.00152730       0.00327110
C        6.22027662       3.53858773       4.01434997       0.00000000       0.00041214       0.00319876       0.00153165
C        4.99338903       5.66659215       4.11735192       0.00000000      -0.00012399      -0.00404459      -0.00247677
C        3.71689742       7.88206406       3.95981622       0.00000000       0.00277959       0.00085000      -0.00025224
C        2.49676560      10.00799342       3.85232335       0.00000000      -0.00230683      -0.00128753       0.00096408
C        9.91147510       1.43524424       3.72855955       0.00000000       0.00576536      -0.00343815      -0.00032269
C        8.65887744       3.55851441       3.76826694       0.00000000      -0.00258991       0.00007793      -0.00245710
C        7.43590609       5.69114087       3.91653473       0.00000000       0.00232231       0.00301492      -0.00268889
C        6.19835555       7.83002579       3.97430508       0.00000000      -0.00254409      -0.00223013       0.00249514
C        4.97218561       9.98391714       3.87455971       0.00000000       0.00028787      -0.00031377      -0.00423767
Ti       2.18896619       4.84962208       4.51412468       0.00000000       0.00172921      -0.00001236      -0.01617870
O        1.98075866       5.40917067       6.25161871       1.00000000       0.00086264      -0.00260892       0.00050698
O        1.05641372       4.30153159       5.85378648       1.00000000      -0.00459068      -0.00348981       0.01600570
