52
Lattice="12.336457 0.0 0.0 -6.168228499999997 10.683685154694365 0.0 0.0 0.0 15.0" Properties=species:S:1:pos:R:3:forces:R:3 energy=-458.42249895162684 free_energy=-458.42249895162684 stress="-0.006131526331421184 0.0010511645611966736 3.3434987216109545e-05 0.0010511645611966736 -0.003320111388579442 2.155339898142435e-05 3.3434987216109545e-05 2.155339898142435e-05 1.4015111780249674e-05" pbc="T T T"
C        0.00918426       0.01256376       3.68344724      -0.00055112      -0.00327820      -0.01145938
C       -1.23645906       2.13344932       3.64135020       0.00822764       0.00390679      -0.00169746
C       -2.47649592       4.27549632       3.60709596       0.00320404       0.00203585      -0.01061081
C       -3.70126374       6.41474082       3.62381067      -0.00513098      -0.01063064       0.01127382
C       -4.93169550       8.55588851       3.67388971       0.00168415       0.00673815       0.00018174
C        2.47625735       0.02381775       3.74346872       0.00536144       0.00380444      -0.00166061
C        1.23532810       2.15927590       3.86349042       0.00040686       0.00401237      -0.00734950
C       -0.04214193       4.26567217       3.86297019       0.00214420       0.00114218      -0.00390179
C       -1.24843408       6.42061097       3.72701123      -0.00039992      -0.00049508       0.01248872
C       -2.47027694       8.55793784       3.67357484      -0.00471360      -0.00344928       0.01829914
C        4.94198576      -0.00165511       3.71408255      -0.00143915       0.00258074      -0.00112579
C        3.74492402       2.15412598       3.90475301      -0.00352933      -0.00324805       0.00358080
C        1.19943350       6.40327418       4.05250601      -0.00296541       0.01032600      -0.00607356
C        0.00193785       8.53752411       3.76452615       0.00073664       0.00319467       0.01504496
C        7.40511457      -0.00710550       3.65958906       0.00139636      -0.00853724       0.00322447
C        6.18598792       2.11991550       3.67944883       0.00024637       0.00776319      -0.00579243
C        4.98534806       4.21436472       3.89688792       0.00061701       0.00133850      -0.00199048
B        3.70370280       6.42935984       4.05386137      -0.00415917      -0.00214284      -0.00781094
C        2.45971889       8.56094410       3.81500915       0.01240134      -0.00661775       0.00705486
C        9.87373120      -0.00006144       3.63864204      -0.00913742       0.00340174      -0.00295982
C        8.64058264       2.13126294       3.57124000      -0.00010432       0.00881525       0.00735227
C        7.41329481       4.26881085       3.62321988       0.00197685      -0.00402098      -0.00116762
C        6.17507438       6.40143427       3.75034531      -0.00566075      -0.00234563      -0.00546501
C        4.94952391       8.56241254       3.74119597      -0.00379404      -0.00522163       0.00154528
C        0.00371123       1.43169749       3.71398616       0.00518626       0.00212001      -0.00743454
C       -1.26039347       3.55534266       3.66980805       0.00057191       0.00144638       0.01112042
C       -2.47177457       5.70400028       3.63697544       0.00014902      -0.00357109       0.00275051
C       -3.70002931       7.84251925       3.64841625      -0.00691803      -0.00162195       0.01005174
C       -4.92587956       9.98480623       3.69677809       0.00369285       0.01057061       0.01048098
C        2.48691029       1.44922457       3.85365069      -0.00267512       0.00102727       0.01723555
C        1.13544112       3.53674621       4.01821051       0.00802683       0.00982691      -0.00433287
C       -0.01768997       5.71161403       3.88910998       0.00187172       0.00235201       0.00034562
C       -1.23962916       7.84088900       3.71795899      -0.00084501      -0.00235418      -0.00490386
C       -2.46484989       9.98196202       3.71058307       0.00005159      -0.00118921      -0.00147054
C        4.95404402       1.42117656       3.75295752      -0.00042111       0.00183820      -0.00673792
N        3.82734850       3.50879757       4.09313572       0.00706789      -0.00438869      -0.00940140
C        1.23809392       7.80966552       3.88554826       0.00748333       0.00633659      -0.01097757
C        0.00600188       9.95978720       3.70521432      -0.00158197      -0.00100046      -0.00921830
C        7.41167831       1.41333011       3.61174816       0.00016668       0.00116326       0.00328554
C        6.19779640       3.53244083       3.70300294       0.00050296       0.00749361      -0.00910155
C        4.96764312       5.64982954       3.90896605      -0.00912379       0.00212033      -0.00310666
C        3.70514015       7.88604100       3.85023531       0.00252709      -0.01082889      -0.01012899
C        2.46692018       9.97513320       3.68640065      -0.00028606      -0.01140593       0.00360132
C        9.87101450       1.41949441       3.59049014       0.00151058       0.00531331       0.01182155
C        8.63840449       3.55724085       3.57113071       0.00252248       0.00472776       0.00281407
C        7.40988580       5.69623622       3.65083784      -0.00046539      -0.01089399      -0.00773579
C        6.17377961       7.83489604       3.72090672       0.00278109      -0.00142189       0.00493717
C        4.94527316       9.98353852       3.67230353      -0.00608061      -0.00610114      -0.00677361
Ti       2.44431902       4.84653327       4.80274437       0.00643841       0.00116849       0.00625278
O        2.35082729       4.79897954       6.51178330      -0.00450680      -0.00241045       0.00243959
O        2.26591362       4.84794759       7.90779362      -0.00178065      -0.00357649      -0.01428282
H        3.20685686       4.82872384       8.18300079      -0.01268384      -0.00581292       0.00748872
