51
Lattice="12.336457 0.0 0.0 -6.168228499999997 10.683685154694365 0.0 0.0 0.0 15.0" Properties=species:S:1:pos:R:3:initial_magmoms:R:1:forces:R:3 energy=-444.2508961884183 free_energy=-444.2508961884183 stress="-0.0023509845911868113 -0.001627784285275825 1.0700660763042085e-05 -0.001627784285275825 -0.012755198213102182 3.2163831304201526e-05 1.0700660763042085e-05 3.2163831304201526e-05 -2.0824959464704043e-05" pbc="T T T"
C       -0.00727241      -0.04340198       3.53282905       0.00000000      -0.01186028      -0.00106253      -0.01090691
C       -1.24663159       2.10766379       3.78200317       0.00000000      -0.00234469       0.00963625      -0.00878199
C       -2.48016395       4.25066480       3.86088579       0.00000000       0.00107755       0.00258799      -0.00741890
C       -3.69672126       6.37741411       3.79655470       0.00000000       0.00163677       0.00875832       0.00318496
C       -4.93630236       8.49361600       3.60708401       0.00000000       0.00277007       0.00850481      -0.00465854
C        2.46539710      -0.10116379       3.55408719       0.00000000       0.00254560      -0.00421937       0.00237533
C        1.23818898       1.98059555       3.95386575       0.00000000       0.00254246      -0.01148266       0.00450238
C       -0.08321151       4.22184024       4.34456682       0.00000000       0.00513933       0.00144778       0.00385640
C       -1.21337610       6.37921627       4.01619243       0.00000000       0.00721025      -0.00257799       0.00275336
C       -2.44731589       8.48759325       3.71561164       0.00000000       0.00306436       0.00206640      -0.00126671
C        4.92687726      -0.03818323       3.52750691       0.00000000       0.00210448       0.00292665      -0.00290987
C        3.65611080       2.01071659       3.39754749       0.00000000       0.00482525       0.00078952      -0.00195621
P        1.58506275       6.36917234       4.59831725       0.00000000      -0.00456054      -0.00739501      -0.00178722
C        0.01025141       8.55816937       3.84664031       0.00000000      -0.00565479       0.00682515       0.01204924
C        7.37795307       0.02705597       3.47948666       0.00000000       0.00157473       0.00679320       0.01429598
C        6.13577070       2.13860233       3.45308882       0.00000000      -0.00540933       0.00913743       0.00151630
C        4.95212835       4.29149093       3.59044202       0.00000000      -0.00110071      -0.00620339       0.00591650
B        3.57166544       6.45698859       3.88405410       0.00000000      -0.00236431       0.00271445      -0.00700668
C        2.46089930       8.64543359       3.61116075       0.00000000      -0.00044686      -0.00378024       0.01305382
C        9.86940470       0.02603579       3.42583814       0.00000000      -0.00016299      -0.00122492      -0.00106556
C        8.62024658       2.14400026       3.56031148       0.00000000      -0.00476183       0.00030231      -0.01595982
C        7.38616947       4.25993114       3.69495022       0.00000000       0.00258190       0.00324965      -0.01029853
C        6.16453757       6.40616623       3.78372520       0.00000000      -0.00678012      -0.00656095      -0.00276287
C        4.93000012       8.54615531       3.49012006       0.00000000       0.00898691      -0.00877359      -0.00281258
C       -0.01564886       1.36773472       3.74239777       0.00000000      -0.00574623      -0.00272068       0.00288361
C       -1.26526765       3.51419088       3.99321158       0.00000000       0.00071369       0.00693062       0.00689167
C       -2.45933461       5.67152087       3.89677356       0.00000000       0.00342913       0.00343785      -0.00364878
C       -3.69374887       7.78913643       3.71128614       0.00000000       0.00239972       0.00919967       0.00314060
C       -4.94623121       9.90318995       3.54534957       0.00000000      -0.00595888       0.00721108       0.00995480
C        2.45301746       1.30562678       3.62407013       0.00000000       0.00792624      -0.00607074       0.00158601
P        1.29678837       3.33795960       5.03650085       0.00000000      -0.01576613      -0.00534919       0.00840473
C       -0.01705209       5.62604866       4.26380702       0.00000000       0.00721129      -0.00265169       0.00163009
C       -1.21081847       7.80073081       3.88194400       0.00000000       0.00052372      -0.00323318      -0.01839382
C       -2.45798102       9.90166953       3.57888145       0.00000000       0.00399732      -0.00117821      -0.01406500
C        4.91231558       1.39410705       3.42716793       0.00000000       0.00187911       0.00210354      -0.00503479
S        3.45310310       3.67142546       2.97560652       0.00000000       0.01311689       0.00589975      -0.00187256
C        1.27873483       7.98350773       4.01641803       0.00000000      -0.00894665      -0.00280431       0.00338683
C       -0.00525599       9.96989922       3.59798366       0.00000000       0.00137739       0.00673294      -0.00304910
C        7.37446223       1.44525957       3.46829387       0.00000000      -0.00780256       0.00651247      -0.00581631
C        6.15162369       3.54613207       3.55671676       0.00000000      -0.00103808       0.00446446       0.00112066
C        4.90510386       5.69307067       3.88391202       0.00000000      -0.00877950      -0.00719695       0.01226849
C        3.67286885       7.90647202       3.55430749       0.00000000       0.00511202      -0.00205413      -0.00472479
C        2.45449214      10.03660688       3.43772479       0.00000000       0.00085693      -0.00107546       0.01164601
C        9.86327308       1.43465769       3.55695140       0.00000000      -0.00279637       0.00260086       0.00292214
C        8.62193834       3.55352380       3.69754452       0.00000000       0.00046414      -0.00066388      -0.00633049
C        7.39044722       5.68208563       3.77413993       0.00000000      -0.00079574       0.00326203       0.00061294
C        6.15819306       7.80916055       3.62580785       0.00000000       0.00772499      -0.00431252       0.00736655
C        4.92857922       9.96827903       3.44015155       0.00000000      -0.00527127      -0.00994535      -0.00021440
Ti       3.35415253       4.76150915       5.50381110       0.00000000       0.00808927      -0.01372250      -0.00925831
O        2.02041489       6.14159288       6.12098423       1.00000000      -0.00116561      -0.01067642       0.00448457
O        4.27107835       4.00380906       6.64367377       1.00000000      -0.00136806       0.00284069       0.01019678
