52
Lattice="12.336457 0.0 0.0 -6.168228499999997 10.683685154694365 0.0 0.0 0.0 15.0" Properties=species:S:1:pos:R:3:forces:R:3 energy=-447.83649478488223 free_energy=-447.83649478488223 stress="-0.0011031034509805878 -0.0015791269824913083 -1.9249290107908445e-05 -0.0015791269824913083 -0.011037120366256283 -7.614234047158619e-05 -1.9249290107908445e-05 -7.614234047158619e-05 -4.1332023842859953e-07" pbc="T T T"
C        0.04530939      -0.03151430       3.68326523      -0.00240891       0.00076747       0.01128114
C       -1.19091889       2.11482462       3.86620598      -0.01429410       0.00080900       0.00394133
C       -2.43754098       4.25602923       3.80560150       0.00717156      -0.00258082       0.00550948
C       -3.65874177       6.38234115       3.73037145       0.01388351      -0.00189963      -0.01378412
C       -4.88975556       8.50397613       3.67521406       0.00419350      -0.00174718       0.00082508
C        2.51339453      -0.07226026       3.68669846       0.00526238      -0.00765325       0.00432173
C        1.28710478       1.98685970       4.12143372      -0.00439982      -0.00288324      -0.00247864
C       -0.06138691       4.24188235       4.34209947      -0.01021032      -0.00245567      -0.00171529
C       -1.17247545       6.38182634       3.91820741      -0.00472578       0.00421295      -0.00622049
C       -2.40490514       8.50240222       3.72742681       0.00540113      -0.00791808       0.00078738
C        4.97884462      -0.02492307       3.59015620      -0.00943702      -0.00467657      -0.00621001
C        3.70376131       2.06027881       3.47302532      -0.00209813       0.00141851      -0.00949364
P        1.68405958       6.27575202       4.38922587       0.00292840       0.01072328      -0.00182203
C        0.05744630       8.54866001       3.82654771       0.00288432       0.00122519       0.00658584
C        7.43478705       0.02470846       3.55939255       0.00174074      -0.01266949       0.01204839
C        6.19219105       2.13526482       3.43036507       0.00339408      -0.00502342      -0.00112498
C        4.98358201       4.29165688       3.40361970      -0.00131993       0.00846115      -0.00540847
B        3.59902597       6.40816556       3.87360338       0.00207785      -0.00735520      -0.01186633
C        2.52830556       8.63728334       3.71995615       0.00559376       0.00505722      -0.00158376
C        9.92514633       0.02516386       3.57541335       0.00566577       0.00383094      -0.00831954
C        8.67268376       2.14316015       3.57810894      -0.00114861      -0.00267317      -0.00160365
C        7.43206547       4.26423815       3.57537941       0.00628360       0.00787953       0.01288099
C        6.19013668       6.39296534       3.68442604      -0.00077136       0.00956811       0.00075953
C        4.98376085       8.54906560       3.62990851      -0.01042636      -0.00286739      -0.00003165
C        0.03960510       1.38251110       3.87770132      -0.01286904       0.00385444       0.01059228
C       -1.22149746       3.52223571       4.00060285      -0.00552770      -0.00435887      -0.00202327
C       -2.41779349       5.67731220       3.81486022       0.00880063      -0.00285594      -0.00816520
C       -3.64936228       7.79890371       3.71439658       0.00722997      -0.00529675      -0.00380980
C       -4.89237784       9.92110108       3.68043701       0.00240385      -0.00180551       0.00736428
C        2.50585808       1.33954087       3.75023718       0.00294946      -0.00593418       0.00706957
S        1.28908790       3.41577347       5.05848160      -0.00776469      -0.00117298      -0.00355415
C        0.03320774       5.62285515       4.13757242      -0.01599235      -0.00422356      -0.00472524
C       -1.16722879       7.80466106       3.83009016       0.00504720       0.00307555      -0.00889861
C       -2.41039503       9.92076028       3.65509272      -0.00124532      -0.01211985      -0.00594015
C        4.96101452       1.40464989       3.46835843      -0.00255879      -0.00189921      -0.00906044
P        3.45091788       3.66732570       2.83497204      -0.00657864      -0.00338271       0.00571794
C        1.32280021       7.93298178       3.96020902       0.00741170       0.00531634      -0.00946999
C        0.04519926       9.97158345       3.64528606      -0.00708361      -0.00478700      -0.00028081
C        7.43110398       1.44002080       3.49695951       0.00272110      -0.01319217       0.01140147
C        6.19860831       3.55286930       3.44051548      -0.00122759       0.00574440       0.00496429
C        4.93979367       5.68096686       3.66581839      -0.00091182       0.00650079       0.00458749
C        3.73735725       7.90397185       3.69649075      -0.00619498      -0.00727240      -0.00999350
C        2.51261029      10.03267772       3.57655847       0.01023626       0.00318553       0.00129866
C        9.92125171       1.43856048       3.64708949      -0.00706483       0.00024372      -0.00057643
C        8.66591473       3.55732843       3.63737560       0.00659685      -0.00037769       0.00782651
C        7.43299622       5.68222224       3.66397645       0.00660169       0.01079290       0.00695653
C        6.21018589       7.81045794       3.66984775      -0.00386559       0.00646804       0.00931051
C        4.98138559       9.97368141       3.60112315      -0.00091493      -0.00249648       0.00356161
Ti       2.76558751       4.91799377       6.31860371       0.00193676       0.01228526      -0.00406526
O        4.20290871       4.09091866       6.38297231       0.00466986      -0.00221224      -0.00828305
O        2.05267641       5.28930610       7.96410275       0.00063513       0.00793194       0.00240252
H        2.07360638       4.95369753       8.87240348       0.00731916       0.01643839       0.00851399
