51
Lattice="12.336457 0.0 0.0 -6.168228499999997 10.683685154694365 0.0 0.0 0.0 15.0" Properties=species:S:1:pos:R:3:initial_magmoms:R:1:forces:R:3 energy=-450.04869679814425 free_energy=-450.04869679814425 stress="-0.0036054410080124015 0.0015192360089763882 -1.6494038434781208e-05 0.0015192360089763882 0.001505881781030568 -7.137001048901308e-06 -1.6494038434781208e-05 -7.137001048901308e-06 -1.3126972902988457e-05" pbc="T T T"
C        0.02131663       0.00561518       3.70423243       0.00000000       0.00018534      -0.00353024      -0.00117562
C       -1.21911618       2.13449089       3.60116433       0.00000000      -0.00230140      -0.00082597      -0.00141232
C       -2.45175942       4.27648151       3.54572101       0.00000000      -0.00289327       0.00209799      -0.00216832
C       -3.68834895       6.41091770       3.61580697       0.00000000      -0.00474251       0.00276647       0.00088439
C       -4.92203670       8.55179279       3.70902033       0.00000000       0.00680212      -0.00066650      -0.00098411
C        2.47926582       0.03706555       3.72976695       0.00000000       0.00109835      -0.00198997       0.00052542
C        1.23192413       2.13335910       3.77602135       0.00000000       0.00516172      -0.00059087      -0.00287832
C       -0.03384458       4.29057601       3.65075079       0.00000000       0.00037315      -0.00288313       0.00563768
C       -1.23218486       6.41776322       3.58645963       0.00000000      -0.00235785      -0.00226220      -0.00198197
C       -2.45710468       8.55567217       3.64239570       0.00000000      -0.00203283       0.00094837      -0.00110742
C        4.94908150       0.00393755       3.67889598       0.00000000       0.00166746      -0.00481405       0.00188741
C        3.75476789       2.17785550       3.85483035       0.00000000      -0.00316476       0.00266637      -0.00299316
O        1.18252685       6.42965170       3.76642882       0.00000000      -0.00090148       0.00385786      -0.00154722
C        0.00746240       8.52928084       3.67099566       0.00000000      -0.00439352      -0.00105695      -0.00038950
C        7.41872280      -0.02282541       3.64461675       0.00000000       0.00367864       0.00280282      -0.00064467
C        6.20449345       2.11640861       3.67117920       0.00000000      -0.00035966       0.00035723      -0.00111263
C        4.99769104       4.20510370       3.90491041       0.00000000      -0.00510531      -0.00369531       0.00175857
B        3.77649624       6.41092656       4.12896017       0.00000000       0.00459099       0.00118663       0.00131735
C        2.45254487       8.51662843       3.78487872       0.00000000      -0.00043223       0.00274653       0.00273527
C        9.88253433      -0.01739501       3.66402058       0.00000000      -0.00392017       0.00374095      -0.00244007
C        8.65908996       2.12394813       3.57905781       0.00000000       0.00014592      -0.00247574       0.00205565
C        7.43264605       4.26118287       3.63781990       0.00000000       0.00666426      -0.00286994      -0.00133212
C        6.19824247       6.39496921       3.79583405       0.00000000      -0.00194585       0.00032400       0.00189681
C        4.95085526       8.54251322       3.79887648       0.00000000      -0.00012581       0.00114897      -0.00283485
C        0.02278453       1.43953828       3.68277958       0.00000000       0.00247912       0.00005452       0.00007849
C       -1.22282226       3.56026754       3.56204902       0.00000000      -0.00383615      -0.00012148       0.00113993
C       -2.45547815       5.69597602       3.56450209       0.00000000      -0.00606087       0.00267391      -0.00391376
C       -3.69281970       7.83991478       3.65156205       0.00000000       0.00261172       0.00131153       0.00173400
C       -4.91532578       9.98913127       3.71664151       0.00000000       0.00295073      -0.00285932      -0.00069306
C        2.47648089       1.48446267       3.80190735       0.00000000       0.00330012      -0.00160294      -0.00262530
O        1.18048515       3.55024816       3.74156617       0.00000000       0.00696629       0.00344516       0.00740213
C       -0.03494461       5.69536737       3.65982491       0.00000000       0.00119077      -0.00233278       0.00282048
C       -1.23446604       7.83896430       3.62395980       0.00000000      -0.00544589      -0.00127922      -0.00172230
C       -2.46146360       9.99114885       3.68661169       0.00000000      -0.00102012      -0.00176290       0.00212562
C        4.96054356       1.42910220       3.72091865       0.00000000      -0.00183431      -0.00152469      -0.00202021
N        3.83353018       3.52170778       4.04144730       0.00000000      -0.01399276       0.00511396       0.00384984
C        1.21831509       7.82787227       3.76022671       0.00000000      -0.00273613       0.00378117       0.00122864
C        0.01579085       9.95946333       3.66052044       0.00000000       0.00473501      -0.00181246       0.00020213
C        7.43034053       1.40495940       3.61442625       0.00000000       0.00116958       0.00166770      -0.00040958
C        6.22042358       3.52440009       3.71209855       0.00000000       0.00103130       0.00117994      -0.00218825
C        4.99758188       5.63852682       3.95422668       0.00000000       0.00009947      -0.00526385       0.00236865
C        3.70776654       7.84433264       3.89091330       0.00000000      -0.00122561       0.00053538       0.00006220
C        2.47330581       9.94684313       3.68461028       0.00000000       0.00068803       0.00189582       0.00056392
C        9.89587882       1.41439600       3.59848367       0.00000000      -0.00335183       0.00059861       0.00220192
C        8.66019216       3.55072356       3.56726746       0.00000000       0.00449062      -0.00542546      -0.00025119
C        7.42822442       5.69012359       3.67127368       0.00000000      -0.00154768      -0.00137142       0.00253026
C        6.18403591       7.82707393       3.77592770       0.00000000       0.00402266       0.00195553      -0.00166064
C        4.95530532       9.97012686       3.71438754       0.00000000      -0.00436948       0.00092076      -0.00436081
Ti       2.35754983       4.84210812       4.77221051       0.00000000       0.00220962      -0.00212555      -0.01945481
O        2.45633295       4.36233923       6.51158058       1.00000000       0.00622382       0.00223488      -0.00017908
O        1.61284189       5.54371349       6.26721973       1.00000000       0.00556067       0.00312989       0.01747455
