52
Lattice="12.336457 0.0 0.0 -6.168228499999997 10.683685154694365 0.0 0.0 0.0 15.0" Properties=species:S:1:pos:R:3:forces:R:3 energy=-448.03621513966345 free_energy=-448.03621513966345 stress="-0.0005027899153648268 -0.0017467086405848925 -6.004987376709762e-06 -0.0017467086405848925 -0.011975331233591407 -1.0504763809425042e-05 -6.004987376709762e-06 -1.0504763809425042e-05 -3.0563633782111166e-06" pbc="T T T"
C        0.05307490      -0.03548070       3.71859343       0.00293822       0.00145978       0.01008787
C       -1.18794553       2.11188498       3.85727512       0.00586955       0.00182626      -0.00277146
C       -2.42506303       4.25470573       3.78863365       0.00198055       0.00172765       0.00152247
C       -3.64562940       6.37776203       3.73170644      -0.00178327       0.00183933      -0.00420868
C       -4.88219584       8.49834261       3.70808296       0.00066458      -0.00815861      -0.00867368
C        2.52552449      -0.08443313       3.68335659       0.00140199      -0.00066566       0.00322763
C        1.30980539       2.00909239       4.03203207       0.00415380       0.00084192       0.00446412
C       -0.01671564       4.23827058       4.22088976      -0.00258484       0.00092640       0.00689365
C       -1.15491621       6.38032372       3.87888693      -0.00298831       0.00075599       0.00328205
C       -2.39443680       8.49434381       3.72965648      -0.00559781       0.00068936       0.00536624
C        4.98758888      -0.03459841       3.58655221       0.00102305       0.00095052       0.00114806
C        3.71529801       2.02078760       3.38462353       0.00019390       0.00306892      -0.00120924
P        1.69700316       6.27276936       4.39749467      -0.00023206      -0.00852901       0.00476889
C        0.06906850       8.54540753       3.83924208      -0.00727482      -0.00256854      -0.01785639
C        7.43928444       0.02482256       3.58488100       0.00056170       0.00197687       0.00045800
C        6.19206135       2.13726652       3.42201016      -0.00192021      -0.00119798      -0.00337706
C        5.00198410       4.30164594       3.34373876      -0.00411913       0.00879130      -0.00165586
B        3.60871487       6.41157854       3.88357095       0.00610603      -0.00778307      -0.00163157
C        2.53501411       8.63846723       3.74704192      -0.00255573       0.00214004      -0.00425476
C        9.92948375       0.02408210       3.61220841       0.00145911       0.00703934      -0.00534867
C        8.67611729       2.14297251       3.59780362       0.00467435      -0.00590780      -0.00668914
C        7.43927155       4.26420590       3.58518788      -0.00265645      -0.00573015       0.00441760
C        6.19535274       6.38788748       3.70176303       0.00266618       0.00056210      -0.00510702
C        4.99170066       8.54824098       3.66974289       0.00308509       0.00109466      -0.00381111
C        0.05086896       1.38142442       3.87727440       0.00457958       0.00234380      -0.00123549
C       -1.21037937       3.52322401       3.95691836       0.00402614       0.00000248      -0.00883156
C       -2.40344603       5.67429180       3.79104057      -0.00216280       0.00353906       0.00834743
C       -3.63924084       7.79294986       3.72628395      -0.00125448      -0.00239929       0.00047883
C       -4.88620145       9.91341536       3.70856781       0.00192601      -0.00735659      -0.00175611
C        2.52093348       1.32614592       3.71280182       0.00026027       0.00092488      -0.00183311
P        1.39790199       3.48141936       4.94255728      -0.00947861      -0.00032639      -0.00177698
C        0.05722224       5.63121997       4.05613992      -0.00330983      -0.00337635       0.00136246
C       -1.15578059       7.80065163       3.82076440      -0.00949795       0.00144630       0.01031655
C       -2.40116255       9.91202241       3.65505762       0.00111344      -0.00023263      -0.00736396
C        4.97051459       1.39514460       3.44003367      -0.00058230       0.00106805       0.00406600
S        3.53306254       3.61293800       2.75974367       0.00044472      -0.00283436      -0.00182307
C        1.33239681       7.93385126       3.97966366      -0.00618390      -0.00045813       0.00346159
C        0.05529504       9.96692012       3.65995866      -0.00140868       0.00094122       0.00187205
C        7.42996698       1.44325817       3.51636526       0.00180887      -0.00106242      -0.00720439
C        6.19895141       3.55393021       3.43211099      -0.00582148       0.00004453      -0.00234769
C        4.93967044       5.67456215       3.66145077       0.00246300       0.00449017       0.00526959
C        3.74409029       7.90588578       3.72107063       0.00326388      -0.00153665       0.00817125
C        2.51824081      10.03427913       3.60938009       0.00058276       0.00724050       0.00589760
C        9.92002980       1.43405915       3.66961769       0.00482916       0.00259694       0.00162387
C        8.67631257       3.55678886       3.64628150       0.00249875      -0.00568298       0.00523344
C        7.44073422       5.67982179       3.67621720      -0.00156530      -0.00171189      -0.00056367
C        6.21555199       7.80706245       3.70664360       0.00170068      -0.00352355       0.00000375
C        4.98886798       9.97312308       3.64637209      -0.00062404       0.00514167      -0.00093781
Ti       2.75236325       4.97014204       6.40425381       0.00356020       0.00149949       0.00197576
O        4.20565946       4.15263043       6.43989143      -0.00386804      -0.00023672      -0.00202816
O        1.98534019       5.28318900       8.03403342       0.01658176      -0.00395642       0.00625740
H        2.08283127       5.04604080       8.96672019      -0.00894729       0.00826567      -0.00567751
