51
Lattice="12.336457 0.0 0.0 -6.168228499999997 10.683685154694365 0.0 0.0 0.0 15.0" Properties=species:S:1:pos:R:3:initial_magmoms:R:1:forces:R:3 energy=-442.4199793954952 free_energy=-442.4199793954952 stress="-0.002960079305883264 0.0014822189785579606 -1.7028383324279553e-06 0.0014822189785579606 -0.0058064163184825155 -7.909903108019862e-06 -1.7028383324279553e-06 -7.909903108019862e-06 1.971217585269242e-05" pbc="T T T"
C        0.03383342       0.00838917       3.80530713       0.00000000      -0.00207257      -0.00579892       0.00130221
C       -1.20476187       2.13895934       3.51797468       0.00000000      -0.00345447      -0.00123092       0.00131146
C       -2.47446290       4.27562401       3.52599035       0.00000000      -0.00511203       0.00657515      -0.00250721
C       -3.69907920       6.40671052       3.73617093       0.00000000      -0.00082931       0.00457490       0.00201908
C       -4.91665942       8.53705589       3.88350326       0.00000000       0.00850147      -0.00754074       0.00325218
C        2.50000125      -0.01164029       3.86134188       0.00000000      -0.00234875      -0.00174764      -0.00728467
C        1.28701165       2.07403763       3.43755458       0.00000000      -0.00555067       0.00565207      -0.00544503
C       -0.12602685       4.28590980       2.93615965       0.00000000       0.00705997      -0.00384708       0.00761609
C       -1.25907639       6.42807699       3.34903623       0.00000000      -0.00724123       0.00283381       0.00240526
C       -2.44064223       8.53307402       3.73065277       0.00000000      -0.00284544       0.00199793      -0.00001367
C        4.95907814      -0.01431998       3.85305366       0.00000000       0.00105558      -0.00388569       0.00253115
C        3.75941738       2.08664479       3.93919305       0.00000000      -0.00221798       0.00017822      -0.00363651
S        1.45991718       6.39535387       2.71763503       0.00000000       0.00965151      -0.00569260      -0.00257330
C        0.02192970       8.55004297       3.59960957       0.00000000       0.00016436      -0.00160313      -0.00175560
C        7.42301273       0.01343411       3.84025409       0.00000000       0.00418739      -0.00024609      -0.00119774
C        6.20363925       2.12501248       3.93251772       0.00000000       0.00393042      -0.00064475      -0.00195545
C        5.00438289       4.22758940       4.07925980       0.00000000       0.00191389       0.00037495      -0.00281947
B        3.69250854       6.44206882       4.11174809       0.00000000      -0.00111232      -0.00307092       0.00215544
C        2.48662102       8.60171063       3.81866101       0.00000000       0.00145353       0.00590324       0.00475076
C        9.90725786       0.02879971       3.84822277       0.00000000      -0.00477257       0.00001174      -0.00764495
C        8.66352608       2.14699425       3.77407726       0.00000000       0.00589676      -0.00619450       0.00510477
C        7.42190005       4.27270363       3.85960700       0.00000000       0.00162030      -0.00174289      -0.00477034
C        6.17630021       6.39449640       3.96537331       0.00000000       0.00402235       0.00340616      -0.00733564
C        4.96221037       8.56399594       3.95894491       0.00000000      -0.00473479       0.00366790       0.00197442
C        0.03824945       1.42859353       3.58219156       0.00000000      -0.00346452      -0.00001736       0.00446420
C       -1.26066996       3.54423451       3.31270822       0.00000000      -0.00317784       0.00185650       0.00278194
C       -2.47994199       5.70062094       3.53461751       0.00000000      -0.00700514       0.00702957       0.00154571
C       -3.68622991       7.82695613       3.78734071       0.00000000       0.00585482      -0.00052181       0.00383179
C       -4.90756157       9.96710641       3.85956060       0.00000000       0.00116111      -0.00833249       0.00102454
C        2.51592263       1.42601242       3.79793473       0.00000000      -0.00545669       0.00295648      -0.00382944
S        1.38857485       3.51832795       2.45516718       0.00000000       0.00017916       0.00189057       0.01319200
C       -0.11661752       5.67991788       2.99455364       0.00000000      -0.00470717      -0.00299545      -0.00185090
C       -1.21660794       7.83684113       3.54237863       0.00000000      -0.00669477       0.00371266       0.00062405
C       -2.43891541       9.96028921       3.83814835       0.00000000      -0.00161877      -0.00197736       0.00008760
C        4.96718624       1.41448673       3.93183981       0.00000000       0.00027257      -0.00151072      -0.00376111
O        3.80938835       3.47265895       4.18452931       0.00000000       0.00469106       0.00517588      -0.00143685
C        1.28203357       7.92310702       3.50395365       0.00000000       0.00385222      -0.00185711       0.00692882
C        0.02546386       9.97136366       3.78595268       0.00000000       0.00385159      -0.00287212       0.00653724
C        7.42696516       1.43510613       3.86204875       0.00000000       0.00595463      -0.00184817       0.00646987
C        6.20298028       3.53557408       3.96857009       0.00000000      -0.00011664       0.00017848      -0.00247794
C        4.94739683       5.63490418       4.06059213       0.00000000       0.00340650       0.00189847       0.00028204
C        3.70940239       7.89171626       3.95705780       0.00000000      -0.00332978       0.00122513      -0.00003591
C        2.49265947      10.01747155       3.86231566       0.00000000       0.00112386       0.00432599      -0.00392051
C        9.90933281       1.44474849       3.72392108       0.00000000       0.00059767      -0.00648809       0.00231984
C        8.64833711       3.56492888       3.72959014       0.00000000       0.00018544      -0.00436458      -0.00429493
C        7.40831794       5.69111438       3.86162874       0.00000000       0.00517663       0.00024513      -0.00632344
C        6.18192470       7.82296737       3.94861621       0.00000000       0.00237922       0.00287447       0.00137724
C        4.96923444       9.99414382       3.88232425       0.00000000      -0.00685666       0.00092388      -0.00331950
Ti       2.26832295       4.79471155       4.53448776       0.00000000      -0.00881869       0.00085963      -0.00387081
O        2.09505777       5.23694383       6.29335560       1.00000000      -0.00870220      -0.00147021      -0.00991966
O        1.09828556       4.25306339       5.82333625       1.00000000       0.01409701       0.00717244       0.00809091
