52
Lattice="12.336457 0.0 0.0 -6.168228499999997 10.683685154694365 0.0 0.0 0.0 15.0" Properties=species:S:1:pos:R:3:forces:R:3 energy=-445.31950528578653 free_energy=-445.31950528578653 stress="-0.0030579800217895316 0.0019557458359616134 4.755428680380062e-06 0.0019557458359616134 -0.005720857925825545 4.782381865535407e-06 4.755428680380062e-06 4.782381865535407e-06 -3.0212740118009876e-05" pbc="T T T"
C        0.08997506       0.02419846       3.88025714       0.00407438      -0.00048427      -0.00191218
C       -1.14608671       2.15788086       3.63708316      -0.00121205      -0.00319363       0.00044806
C       -2.40815539       4.29417078       3.67020823       0.00028882       0.00274172      -0.00012594
C       -3.63905505       6.42495860       3.84615886      -0.00030230      -0.00286953       0.00170928
C       -4.86012645       8.55457929       3.95681681      -0.00105993      -0.00724035      -0.00068776
C        2.55643785       0.00649444       3.91740227       0.00306250       0.00392092       0.00163412
C        1.34112050       2.09877187       3.49690227      -0.00218991       0.00752268       0.00499501
C       -0.05806982       4.30635878       3.06401186       0.00299626      -0.00217514      -0.00516072
C       -1.20308021       6.44879010       3.44737791      -0.00311883       0.00642078      -0.00139209
C       -2.38425922       8.55411332       3.80978627      -0.00451788      -0.00268129       0.00266143
C        5.01835178       0.00475683       3.92965348       0.00444461      -0.00726681      -0.00025476
C        3.81848626       2.09962842       3.97084973       0.00033552       0.00733179       0.00160906
S        1.45790223       6.44904278       2.61208764       0.00702468       0.01469936       0.00059277
C        0.07733200       8.57302841       3.63802258       0.00270089      -0.00407047      -0.00238405
C        7.48336885       0.02870028       3.91846184      -0.00307982      -0.00221728      -0.00728593
C        6.26585569       2.14131041       4.03505748       0.00304455      -0.00524806      -0.00487968
C        5.06267140       4.24790115       4.11275871      -0.00026144       0.00443189       0.00298953
B        3.72527805       6.43737248       4.04110932      -0.00771429      -0.00327166       0.00619830
C        2.54276049       8.61182401       3.80405661      -0.00114331       0.00446366      -0.00336232
C        9.96407750       0.04086949       3.91758941      -0.00213609      -0.00222904       0.00467759
C        8.72578123       2.16369747       3.90199508       0.00336792      -0.00268037      -0.00354725
C        7.48441409       4.28931893       3.97437082      -0.00216106       0.00107883       0.00487240
C        6.23279841       6.41104224       4.02186525       0.00510024      -0.00086323      -0.00225670
C        5.01529717       8.57427423       3.98466624      -0.00092928       0.00218321      -0.00209946
C        0.09552977       1.44598570       3.67284334       0.00126932      -0.00316796      -0.00028084
C       -1.19793014       3.56466974       3.45413811      -0.00021025      -0.00332636      -0.00541218
C       -2.41683355       5.72000633       3.66306746      -0.00141446       0.00549077      -0.00563764
C       -3.62832196       7.84605444       3.87716045      -0.00216290      -0.00995845      -0.00091058
C       -4.85065519       9.98401109       3.92783652       0.00613702      -0.00594828      -0.00571111
C        2.57508498       1.44534287       3.83005439      -0.00017354       0.00820320       0.00410705
S        1.38489737       3.50197890       2.41806248      -0.00157146       0.00105508       0.00650346
C       -0.05923270       5.70375186       3.07712717      -0.00805974      -0.00113445      -0.00327245
C       -1.16244781       7.85864337       3.61112054      -0.00016147       0.00687940       0.00486547
C       -2.38229041       9.98161055       3.90598284       0.00167267      -0.00189288       0.00099875
C        5.02893081       1.43087515       4.00900198      -0.00018528      -0.00142988      -0.00307902
O        3.86429320       3.49829815       4.14863525      -0.00647539       0.00776379      -0.00003731
C        1.33217199       7.94954677       3.47843530       0.00314195       0.00040955      -0.00020654
C        0.08423422       9.98979213       3.85410013       0.00236930      -0.00882709      -0.00061959
C        7.48888107       1.45033529       3.97461837       0.00353040      -0.00520844      -0.00723989
C        6.26628457       3.55226545       4.06561721      -0.00159249      -0.00355492       0.00345779
C        5.00107247       5.65056339       4.07126650       0.00462777       0.00337093       0.00013056
C        3.76365502       7.89784141       3.93301542      -0.00135061       0.00111345      -0.00033898
C        2.55077980      10.02859861       3.90559270      -0.00424354       0.00177059       0.00460043
C        9.96844524       1.46020030       3.83675415       0.00037999      -0.00263847      -0.00372006
C        8.71319817       3.58236764       3.86663686      -0.00039516       0.00120494      -0.00054062
C        7.46742399       5.70853281       3.95956732      -0.00043881       0.00007561       0.00252845
C        6.23788666       7.83840273       3.99955312      -0.00246447      -0.00078628       0.00127386
C        5.02496940      10.00564124       3.94011533      -0.00118664       0.00541217      -0.00412189
Ti       2.29835522       4.77537878       4.22044943       0.00725477      -0.00869821      -0.00034056
O        1.48769768       4.56709408       5.70194096       0.00084756       0.00070341      -0.00470017
O        0.67609208       4.33555037       6.82060961      -0.01431694       0.00440328       0.00838174
H        1.29191517       4.50024830       7.56776058       0.00855820       0.00041180       0.01228315
