51
Lattice="12.336457 0.0 0.0 -6.168228499999997 10.683685154694365 0.0 0.0 0.0 15.0" Properties=species:S:1:pos:R:3:initial_magmoms:R:1:forces:R:3 energy=-453.5765100101445 free_energy=-453.5765100101445 stress="-0.006955565950309049 -0.001036429967212019 -1.9743916702495936e-05 -0.001036429967212019 -0.0028357160574181213 4.0734239843667505e-06 -1.9743916702495936e-05 4.0734239843667505e-06 1.6132666593942256e-06" pbc="T T T"
C       -0.00918366       0.00300883       3.66709341       0.00000000       0.00013874      -0.00322430      -0.00449754
C       -1.25913366       2.11992267       3.65100972       0.00000000      -0.00039300      -0.00405493       0.00073717
C       -2.49536178       4.26560317       3.56110875       0.00000000      -0.00859871       0.00014050       0.00495676
C       -3.71519621       6.41580856       3.52246777       0.00000000       0.00298101       0.00019566       0.00305274
C       -4.93643578       8.56098007       3.58912949       0.00000000       0.00115831      -0.00465065       0.00374354
C        2.46000197       0.01786841       3.68680532       0.00000000      -0.00295686       0.00262316      -0.00024175
C        1.21184136       2.15257625       3.87564133       0.00000000       0.00609454       0.00529682      -0.00235259
C       -0.06091996       4.23889159       3.88348496       0.00000000       0.00044343       0.00014958      -0.00181950
C       -1.27412905       6.41248598       3.68513134       0.00000000       0.00147707      -0.00074182       0.00298294
C       -2.47749423       8.55874935       3.59962066       0.00000000      -0.00304709      -0.00247732      -0.00178598
C        4.92488379       0.01058826       3.62902663       0.00000000      -0.00235616      -0.00213745      -0.00392009
C        3.70058951       2.15609564       3.79923873       0.00000000      -0.00463001       0.00464721       0.00083100
B        1.15406958       6.43895868       4.05009369       0.00000000      -0.00277452       0.00701358       0.00255568
C       -0.01881097       8.55724702       3.69888031       0.00000000       0.00499778      -0.00415382      -0.00297763
C        7.39810486      -0.01010305       3.59732399       0.00000000       0.00563846       0.00263690       0.00582016
C        6.16471050       2.13376689       3.57898224       0.00000000       0.00287162       0.00214563      -0.00081137
C        4.94994498       4.28079702       3.76698290       0.00000000      -0.00410305       0.00242416       0.00482450
N        3.78556389       6.42743924       3.99083223       0.00000000      -0.00278589       0.00769144       0.00048917
C        2.48567327       8.53483107       3.77607843       0.00000000      -0.00221118      -0.00087528      -0.00396780
C        9.86279371      -0.01292957       3.61654445       0.00000000      -0.00724297       0.00046130       0.00195368
C        8.62384653       2.12596754       3.52312453       0.00000000       0.00283078       0.00260819       0.00242205
C        7.39415105       4.27495443       3.51122520       0.00000000       0.00353846       0.00044768       0.00301286
C        6.17273430       6.42898408       3.60681228       0.00000000       0.00298630      -0.00555333       0.00215480
C        4.93717043       8.53479761       3.68743513       0.00000000      -0.00248719       0.00196792       0.00094926
C       -0.01913480       1.42116281       3.72707495       0.00000000       0.00671475      -0.00360959      -0.00078444
C       -1.28071253       3.53721952       3.67640640       0.00000000      -0.00594693      -0.00131151      -0.00081487
C       -2.49845946       5.69620530       3.56721269       0.00000000      -0.00033337       0.00228415       0.00511475
C       -3.70794922       7.84423650       3.55867048       0.00000000       0.00074955      -0.00612070       0.00224916
C       -4.93920599       9.98441245       3.64938950       0.00000000       0.00186905      -0.00502804      -0.00348393
C        2.45822885       1.43617630       3.80699745       0.00000000      -0.00066501       0.00491155      -0.00651753
C        1.14218024       3.53900989       4.06782396       0.00000000      -0.00100316      -0.00031102      -0.00210669
C       -0.08919838       5.66882470       3.87802356       0.00000000       0.00580441       0.00243115       0.00090717
C       -1.24978291       7.84054286       3.65835048       0.00000000       0.00066524      -0.00115735       0.00186251
C       -2.47728704       9.98418514       3.63514577       0.00000000      -0.00586838      -0.00036402      -0.00562990
C        4.93056012       1.43048553       3.65503223       0.00000000      -0.00441872       0.00515001      -0.00495993
C        3.77218784       3.55231742       3.93994810       0.00000000      -0.00630142      -0.00089745      -0.00398821
C        1.22958398       7.87078623       3.82310467       0.00000000       0.00562827      -0.00409061       0.00099720
C       -0.01210087       9.97795150       3.62601839       0.00000000       0.00455922      -0.00070653      -0.00849983
C        7.39530154       1.41293814       3.54338253       0.00000000       0.00642446       0.00222201       0.00065901
C        6.17505808       3.56114391       3.58465774       0.00000000       0.00125626       0.00151143       0.00078537
C        4.95543088       5.73601371       3.77939591       0.00000000      -0.00445948       0.00214139       0.00250364
C        3.72387558       7.79785224       3.82416123       0.00000000      -0.00313100       0.00423441      -0.00227683
C        2.47056904       9.95701039       3.64626770       0.00000000      -0.00102369      -0.00149860       0.00322023
C        9.85180936       1.40851035       3.57500476       0.00000000      -0.00169849       0.00095465       0.00063796
C        8.61888969       3.55387217       3.50224257       0.00000000      -0.00169895      -0.00051397       0.00052628
C        7.39285584       5.70302141       3.52355508       0.00000000       0.00486498      -0.00027930       0.00259154
C        6.17186648       7.84519950       3.61963377       0.00000000      -0.00203859      -0.00223056      -0.00186279
C        4.92788258       9.96051184       3.64889864       0.00000000      -0.00809708       0.00432248       0.00403230
Ti       2.55781190       4.92350234       4.74833524       0.00000000       0.00759797      -0.01327816      -0.00496595
O        2.76717200       4.79381416       7.76413751       1.00000000       0.00763110       0.00138305       0.00223065
O        2.71425371       4.82211068       6.44664345       1.00000000       0.00134916      -0.00272972      -0.00053888
