52
Lattice="12.336457 0.0 0.0 -6.168228499999997 10.683685154694365 0.0 0.0 0.0 15.0" Properties=species:S:1:pos:R:3:initial_magmoms:R:1:forces:R:3 energy=-461.91741104838854 free_energy=-461.91741104838854 stress="-0.005227599808909697 -0.0016662892559242183 3.707097720863253e-06 -0.0016662892559242183 -0.0015299356671735454 1.8722000733898526e-06 3.707097720863253e-06 1.8722000733898526e-06 -1.3903874009407525e-05" pbc="T T T"
C        0.00829080      -0.01510814       3.50020597       0.00000000       0.00105300      -0.00921978       0.00106357
C       -1.24373959       2.10733675       3.55336970       0.00000000      -0.00395290      -0.00491614      -0.00112486
C       -2.47753530       4.24923290       3.54869906       0.00000000      -0.00128821      -0.00167585      -0.00646462
C       -3.68714993       6.39432742       3.48148146       0.00000000       0.00181890       0.00130559       0.00625271
C       -4.91769696       8.53705007       3.46783041       0.00000000       0.00061266       0.00944789      -0.00879036
C        2.48170949      -0.00582102       3.55623241       0.00000000       0.00410660      -0.00146520      -0.00513872
C        1.22545550       2.10294164       3.69565639       0.00000000      -0.00379238      -0.00404109       0.00455791
C       -0.04266546       4.24088035       3.80252128       0.00000000       0.00586480      -0.00596488      -0.00173019
C       -1.24378167       6.39366955       3.64727325       0.00000000       0.00541857       0.00465801      -0.00372348
C       -2.45304749       8.53693568       3.52468278       0.00000000      -0.00759557      -0.00591231       0.00448641
C        4.94887229      -0.01592409       3.61368370       0.00000000      -0.00816005       0.00455025      -0.00300919
C        3.71279199       2.13045052       3.76330978       0.00000000      -0.00760581       0.00061197      -0.00499347
B        2.41946705       4.17519724       4.25166855       0.00000000       0.00996580       0.00572846       0.00452260
C        1.13857342       6.40504029       4.12627353       0.00000000      -0.00081182      -0.00302460       0.00159495
C        0.01195202       8.52163506       3.70597943       0.00000000       0.00145225       0.00249543      -0.00502320
C        7.41597731      -0.03203168       3.64289445       0.00000000       0.00207680      -0.00607208       0.00112840
C        6.17634208       2.12386220       3.64692754       0.00000000       0.00895492       0.00270322      -0.01176924
C        4.95526857       4.29800720       3.85813943       0.00000000       0.00008539      -0.00547942      -0.00272131
O        3.97900031       6.52857747       4.34490736       0.00000000       0.00488316       0.00449570      -0.00527649
C        2.50969448       8.49791424       3.86694275       0.00000000       0.00049296       0.00169348      -0.00701265
C        9.87237228      -0.03420879       3.57102814       0.00000000       0.00480134       0.00465281      -0.00766607
C        8.63464217       2.11014389       3.54757223       0.00000000      -0.00393900       0.00023456      -0.00027595
C        7.40473199       4.25642277       3.56033159       0.00000000       0.00306992       0.00967750       0.00521455
C        6.20110977       6.40766053       3.58472752       0.00000000      -0.00524806       0.00573511      -0.00770965
C        4.96583120       8.53542958       3.59243108       0.00000000      -0.00574579      -0.00635365       0.00577540
C       -0.00420939       1.39983235       3.55961290       0.00000000      -0.00478844      -0.00975035       0.00943221
C       -1.25782517       3.53133801       3.61284217       0.00000000      -0.00037513      -0.00513024      -0.00246537
C       -2.46382351       5.67803480       3.54313320       0.00000000       0.00606039       0.00172784      -0.01295654
C       -3.68088466       7.82227024       3.47503181       0.00000000      -0.00632452      -0.00061938      -0.00278085
C       -4.91839060       9.96575825       3.49412068       0.00000000       0.00670237       0.00410057      -0.00535601
C        2.47593442       1.41646631       3.67902464       0.00000000      -0.00493114      -0.00446159      -0.00395020
C        1.16736407       3.50657725       3.89294159       0.00000000       0.01043527      -0.00061081       0.01185937
C       -0.02176717       5.67320729       3.86185058       0.00000000       0.00126510      -0.00173666       0.00784982
C       -1.22489594       7.81763164       3.61566618       0.00000000      -0.00134673       0.00492378       0.01018245
C       -2.45290092       9.96133608       3.55579220       0.00000000      -0.00409954      -0.00641425       0.00683857
C        4.94695963       1.40760143       3.66760573       0.00000000      -0.00065055       0.00836577       0.00236878
C        3.73133025       3.55064347       3.95407157       0.00000000      -0.00238508      -0.00167748       0.00016330
C        1.23706504       7.78222859       3.91640716       0.00000000       0.00277621       0.00126611       0.00260035
C        0.01325025       9.94454396       3.64938432       0.00000000      -0.00565374       0.00242203      -0.00680390
C        7.40606947       1.39778574       3.59785672       0.00000000       0.00442802      -0.00782029      -0.00241013
C        6.17830652       3.55645141       3.66983378       0.00000000       0.00709515       0.00305214       0.00206749
C        5.03913488       5.71604276       3.88899589       0.00000000       0.00254457      -0.00251928       0.00385605
C        3.78543762       7.87509311       3.90271167       0.00000000      -0.00333335      -0.00490483      -0.00509926
C        2.48307733       9.92985365       3.67480310       0.00000000       0.00707095       0.00322881      -0.00028501
C        9.86543629       1.39449140       3.53277273       0.00000000      -0.00441911       0.00367780       0.01495683
C        8.63350594       3.53601328       3.53004145       0.00000000      -0.00455205       0.00203916      -0.00637966
C        7.42302375       5.67776509       3.51343102       0.00000000      -0.00106856       0.00922254       0.00587972
C        6.20099942       7.83020307       3.52279701       0.00000000      -0.00061753       0.00848370       0.00487867
C        4.94379268       9.95867196       3.52549582       0.00000000      -0.00041568      -0.00725669       0.00799757
Ti       2.57091549       5.91790711       5.61222091       0.00000000      -0.00865726      -0.00602596      -0.00664903
O        2.77273513       5.68448124       7.41285601       1.00000000      -0.00106256      -0.00073643      -0.00330707
O        2.18353702       6.99129147       7.04169608       1.00000000      -0.00021455       0.00328899       0.01534481
