53
Lattice="12.336457 0.0 0.0 -6.168228499999997 10.683685154694365 0.0 0.0 0.0 15.0" Properties=species:S:1:pos:R:3:forces:R:3 energy=-469.4289565775998 free_energy=-469.4289565775998 stress="-0.004771313507584451 -0.0006548457749283256 1.8675613035270008e-05 -0.0006548457749283256 -0.0017014821172530066 -1.7158519341983654e-05 1.8675613035270008e-05 -1.7158519341983654e-05 2.1770768134293666e-05" pbc="T T T"
C        0.01130875       0.02676481       3.68226320       0.00571787       0.00558556       0.00696734
C       -1.23171748       2.15310571       3.74968692      -0.00156661       0.00244471       0.00572353
C       -2.46080718       4.29033633       3.71612929      -0.00156801      -0.00011993      -0.00211573
C       -3.68457897       6.43326871       3.62160865      -0.00121425      -0.00498067       0.00277781
C       -4.92071674       8.57646393       3.61826647       0.00105154      -0.00295144      -0.00338790
C        2.47998987       0.03799141       3.69386313       0.00108889      -0.00223219      -0.00493062
C        1.22659783       2.15362156       3.93503114       0.00437945       0.00041721       0.00318450
C       -0.01566591       4.28028764       4.06196009      -0.00102814      -0.00309240      -0.00334473
C       -1.23867162       6.43327554       3.80028199      -0.00051308      -0.00322514       0.00473610
C       -2.45819349       8.57818945       3.63194058       0.00156410       0.00216908      -0.00495883
C        4.94747762       0.02704134       3.66360874      -0.00252874      -0.00186384      -0.00637604
C        3.72745377       2.16529740       3.88287953      -0.00375851      -0.00317954      -0.01348300
B        2.48564980       4.08625390       4.70603552       0.00673614      -0.00173242      -0.00067944
C        1.11907340       6.48486252       4.30199769       0.00724391       0.00502640      -0.00280750
C       -0.00196427       8.57612240       3.76901183       0.00192196       0.00125940      -0.00496521
C        7.41965679       0.01218732       3.68696275       0.00064583       0.00139770      -0.00488271
C        6.18527311       2.16013094       3.69161113      -0.00535287       0.00049399      -0.00778474
C        4.95499782       4.31375152       3.91378479       0.00298630       0.00599037      -0.00363144
O        3.85487802       6.46747162       4.09771024      -0.00042531      -0.00817865       0.00126736
C        2.49813829       8.54374316       3.92553411       0.00589066      -0.00806604      -0.00415129
C        9.87792710       0.00954756       3.69586666      -0.00246594      -0.00095548      -0.00850952
C        8.64654577       2.15253311       3.65223061       0.00081719       0.00615903       0.00464949
C        7.41427395       4.29545818       3.66020144       0.00161817      -0.00339457      -0.01236334
C        6.19574375       6.43874702       3.69390929       0.00183102       0.00269002      -0.00402289
C        4.96611261       8.57329887       3.74763607      -0.00697420      -0.00060711      -0.00300966
C        0.00088661       1.44415814       3.76648826       0.00269443       0.00553195       0.01461629
C       -1.23501925       3.57601092       3.82636671      -0.00517638      -0.00013396       0.00549569
C       -2.45848964       5.71777142       3.69677845      -0.00251213      -0.00383280       0.00753011
C       -3.68507174       7.86175011       3.60846881       0.00245349      -0.00290207       0.00302754
C       -4.92010187      10.00547776       3.65377325       0.00321384      -0.00176127       0.00818703
C        2.47828127       1.45287841       3.84903163       0.00006169      -0.00538007       0.00450344
C        1.17761494       3.54006452       4.21399361      -0.00161277      -0.00303234       0.00923627
C       -0.02307571       5.72418036       4.06555700       0.00304716       0.00038832       0.00869468
C       -1.22953434       7.86148561       3.71747653       0.00021193      -0.00013235       0.00985905
C       -2.45553967      10.00337393       3.64933068      -0.00046298       0.00085710      -0.00364839
C        4.95504516       1.44707989       3.71609521      -0.00404809      -0.00524636       0.00688369
C        3.75944755       3.56143830       4.11455311       0.00123900       0.00032549      -0.00922066
C        1.22118796       7.84722847       4.01106827       0.00625260       0.00395599      -0.00313927
C        0.01074361       9.99192195       3.68694026      -0.00179052       0.00150103       0.00114494
C        7.41648360       1.43857629       3.65368952      -0.00023663       0.00465759       0.00048889
C        6.18406995       3.58858698       3.72836183       0.00036117       0.00128528       0.00307733
C        5.02393358       5.72803123       3.89123017       0.00176482       0.00538074      -0.00341523
C        3.76266957       7.89627022       3.96804171      -0.00007736      -0.00975852       0.00683718
C        2.48405606       9.97669417       3.73869005       0.00034829      -0.00579599       0.00241787
C        9.87619603       1.43883165       3.67716942      -0.00179304       0.00171849       0.00196575
C        8.64768559       3.57815258       3.65468071       0.00246977       0.00332240      -0.00297701
C        7.42611899       5.71665390       3.63979996      -0.00056970      -0.00389561       0.00111051
C        6.19611939       7.86712442       3.67085340      -0.00411532       0.00257979       0.00069238
C        4.94841688       9.99655213       3.69384868       0.00146516       0.00292240       0.00638137
Ti       2.61822770       6.56588917       5.70001929       0.00219234       0.01479187      -0.00210046
O        2.81459692       7.66093065       6.93430760      -0.00791350      -0.00261377      -0.01126107
O        2.57627372       4.63827035       6.13568523      -0.01805154      -0.00055879       0.00477731
H        3.17103218       4.13590391       6.72273137       0.00448694       0.00677143      -0.00506679
