52
Lattice="12.336457 0.0 0.0 -6.168228499999997 10.683685154694365 0.0 0.0 0.0 15.0" Properties=species:S:1:pos:R:3:forces:R:3 energy=-451.4722653304971 free_energy=-451.4722653304971 stress="0.0022005477414798924 0.0018450847962715442 1.7540125125698714e-05 0.0018450847962715442 -0.005841896165059373 -6.243094932970435e-06 1.7540125125698714e-05 -6.243094932970435e-06 7.277385394793403e-06" pbc="T T T"
C       -0.04800397      -0.05469080       3.75578022       0.00329474      -0.00104165       0.00267571
C       -1.25515259       2.10953471       3.89706001       0.00013115      -0.00577692      -0.00454837
C       -2.48146581       4.22887707       3.90697986       0.00328099      -0.00209708      -0.00409991
C       -3.74555069       6.34756254       3.77588377       0.00014621       0.00251131       0.00147225
C       -4.99353634       8.47466561       3.66269242       0.00431550      -0.00594346       0.00086415
C        2.41289466      -0.10916026       3.76681237      -0.00142882       0.00065789      -0.00024102
C        1.21735237       2.04868885       3.89846284      -0.00064090       0.00330995       0.00134960
C        0.05090471       4.26701730       3.98662681       0.00463044       0.00153710      -0.00352649
C       -1.27228517       6.37174554       3.85364841      -0.00502962       0.00554686      -0.00187252
C       -2.51954833       8.47650755       3.75832096       0.00190731       0.00194394      -0.00285130
C        4.88344448      -0.06251927       3.79938311      -0.00010451      -0.00306595       0.00346802
C        3.63079824       2.01112744       3.85943868      -0.00102278       0.00011630       0.00362759
N        1.13085135       6.44660619       3.93824853       0.00180037      -0.00042740       0.00223012
C       -0.06329569       8.50653684       3.77259990       0.00406142       0.00476109       0.00097694
C        7.35184278      -0.03117376       3.81432724       0.00420087       0.00064906      -0.00463575
C        6.11541868       2.09162354       3.88060584       0.00380817      -0.00128743       0.00647061
C        4.82636816       4.21462415       3.81030840      -0.00038742      -0.00214392       0.00736269
P        3.64324181       6.31106574       2.43221407      -0.01195710       0.00814339      -0.00002906
C        2.39616745       8.52625157       3.61606134      -0.00577261      -0.00388919      -0.00749174
C        9.82582288      -0.02547571       3.76271552      -0.00454969      -0.00311569      -0.00310660
C        8.59724076       2.10264980       3.89025657       0.00134165       0.00283407      -0.00296598
C        7.34564741       4.21900936       3.84971375       0.00285687       0.00589969      -0.00098711
C        6.13700185       6.35792919       3.56961004      -0.00117241      -0.00419854      -0.00076117
C        4.88067727       8.51202104       3.51543156      -0.00080161      -0.00206598      -0.00124367
C       -0.03269246       1.37845258       3.85850106       0.00172808      -0.00049289      -0.00334155
C       -1.21366893       3.53871625       3.94343199       0.00509785      -0.00438675      -0.00151444
C       -2.50048005       5.64703153       3.85361968      -0.00365928       0.00015130       0.00253629
C       -3.75547097       7.76581558       3.72607891       0.00467749      -0.00045413       0.00383112
C       -4.99533086       9.89103372       3.72147494       0.00218089      -0.00513367       0.00428805
C        2.41611866       1.29563493       3.83536624      -0.00271541       0.00183172      -0.00062264
B        1.45745914       3.55872207       4.02339967       0.00668531      -0.00106503       0.00179478
C       -0.02317178       5.70051949       3.93716398      -0.00246240       0.00437116       0.00678910
C       -1.28440545       7.78244002       3.79566492       0.00228042       0.00675771      -0.00054221
C       -2.51355265       9.89219270       3.76484159      -0.00180032      -0.00035208      -0.00485861
C        4.88408756       1.35978585       3.84516749      -0.00016835      -0.00261901       0.00081049
B        3.42180260       3.49712730       3.95542552      -0.00205986       0.00206195       0.00181640
C        1.15576405       7.80319442       3.76206278      -0.00049611      -0.00104537      -0.00018326
C       -0.05132954       9.92852070       3.78957700       0.00438041       0.00333700       0.00481531
C        7.35485980       1.39061717       3.87115838       0.00498795       0.00031415      -0.00123425
C        6.09180048       3.51106760       3.86930096       0.00419081       0.00041964      -0.00159491
C        4.91184670       5.61362105       3.47978000      -0.00375105      -0.00423949      -0.00087586
C        3.62366213       7.84429346       3.36588231      -0.00457220      -0.00594823       0.00347394
C        2.41467805       9.94963957       3.74096167      -0.00226836      -0.00613201      -0.00260241
C        9.83882422       1.39856676       3.85961870      -0.00293788      -0.00309337      -0.00115146
C        8.60040818       3.52364845       3.89697355       0.00165233       0.00342555      -0.00491496
C        7.35500331       5.64118544       3.74756853       0.00178420       0.00419006      -0.00240730
C        6.11107183       7.77544647       3.55134482       0.00086613      -0.00456030       0.00041417
C        4.88661488       9.93214699       3.68538254      -0.00031296       0.00045615       0.00242800
Ti       2.79993917       5.46116756       4.53928431       0.00086588       0.00542208       0.00334102
O        3.31050181       5.99766386       6.07676741      -0.00663760       0.00605568       0.00630165
O        3.77243123       6.49138879       7.29713334       0.00382705      -0.00992607      -0.00918573
H        3.98509065       5.67465088       7.79766422      -0.01427126       0.00779680       0.00025231
