52
Lattice="12.336457 0.0 0.0 -6.168228499999997 10.683685154694365 0.0 0.0 0.0 15.0" Properties=species:S:1:pos:R:3:initial_magmoms:R:1:forces:R:3 energy=-461.09303409446903 free_energy=-461.09303409446903 stress="0.000794947083662951 0.0016509368417937612 3.5338975604176844e-05 0.0016509368417937612 -0.005708562252784038 4.5986198111692324e-05 3.5338975604176844e-05 4.5986198111692324e-05 -3.404541716362839e-05" pbc="T T T"
C        0.03188499      -0.06419808       3.67754770       0.00000000      -0.00519735      -0.00687878      -0.00633153
C       -1.18738043       2.08684328       3.74524308       0.00000000       0.00419129       0.00067831       0.00450304
C       -2.41749942       4.22570663       3.69780013       0.00000000      -0.00232288       0.00244842      -0.00344726
C       -3.66598584       6.34853465       3.61337341       0.00000000      -0.00324496      -0.00187385       0.00695884
C       -4.92394028       8.47243350       3.57483809       0.00000000      -0.00602404       0.00596482      -0.00250114
C        2.49510495      -0.07154015       3.81304427       0.00000000       0.00154917       0.00569410      -0.00716920
C        1.26380651       2.05390726       3.95348319       0.00000000       0.00212037       0.00816332       0.00104847
C        0.06935299       4.19115374       3.80539528       0.00000000       0.00298547      -0.00070292       0.00693506
C       -1.16368787       6.35627952       3.61460831       0.00000000       0.00792297       0.00371638       0.00735716
C       -2.44245067       8.48795461       3.66125530       0.00000000      -0.00280007      -0.01119391       0.00503191
C        4.96491650      -0.05291977       3.83798695       0.00000000       0.00019441       0.00357430      -0.00488193
C        3.74073052       2.06936939       4.05020708       0.00000000      -0.00787731       0.00821983      -0.00260304
B        2.49339647       4.14885489       4.63857817       0.00000000       0.00635855      -0.00033507       0.01104746
B        1.39703049       6.41349771       3.17897200       0.00000000       0.02755423      -0.01956568      -0.01012718
C        0.02516402       8.51620546       3.68691098       0.00000000       0.00676910       0.00989968       0.00002413
C        7.43070777      -0.01790421       3.78279521       0.00000000       0.00775485      -0.00984629      -0.00546813
C        6.20861366       2.08572958       3.91236429       0.00000000      -0.00738170       0.01201691      -0.00717003
C        4.96217521       4.20054120       3.90175315       0.00000000      -0.00889681       0.00182647       0.01189704
S        3.36820798       6.18727570       2.84465255       0.00000000      -0.01935394       0.01070702      -0.01221548
C        2.50742709       8.58653572       3.51741138       0.00000000       0.00272897      -0.01151731      -0.00291374
C        9.91802434      -0.02249696       3.65973044       0.00000000      -0.00570578      -0.00759066      -0.00868108
C        8.68056754       2.10202701       3.78086847       0.00000000      -0.00840640      -0.00633771       0.00283664
C        7.44039380       4.22359244       3.75727313       0.00000000       0.00154174       0.00597096       0.00852447
C        6.15628908       6.33042047       3.52299713       0.00000000      -0.00215614       0.00272173       0.00777779
C        4.94954825       8.49050364       3.41691532       0.00000000       0.00883780       0.00690786      -0.00443593
C        0.03248036       1.35466622       3.78282609       0.00000000       0.00314600      -0.00566628      -0.00732848
C       -1.18346536       3.50628980       3.73539599       0.00000000       0.00760288       0.01064656      -0.00398486
C       -2.41685557       5.64600653       3.63976298       0.00000000       0.00314333       0.00076140      -0.00849059
C       -3.67520311       7.77206849       3.60555944       0.00000000      -0.00687164      -0.00521105       0.00274685
C       -4.90850891       9.89876729       3.67986056       0.00000000      -0.00241379       0.00272376       0.00522783
C        2.50038352       1.34131120       3.97714673       0.00000000      -0.00098296       0.00402118      -0.01013698
C        1.24108510       3.46405855       4.06417851       0.00000000       0.00958684      -0.00251538       0.00700247
C        0.10681238       5.63351055       3.61887354       0.00000000       0.00072743       0.00868462      -0.00064919
C       -1.19221222       7.77758255       3.63680654       0.00000000       0.00750763       0.00520806       0.00709282
C       -2.43813919       9.90521254       3.77208157       0.00000000      -0.00035566      -0.00494049       0.00770233
C        4.97805267       1.36193595       3.93919189       0.00000000      -0.01064520       0.00681097      -0.00041771
C        3.77076135       3.47395624       4.15365616       0.00000000      -0.01070034       0.00964354      -0.00484790
C        1.28574844       7.85572824       3.57966049       0.00000000       0.00059928      -0.00152636      -0.00481188
C        0.03027803       9.94337067       3.77248580       0.00000000       0.00370311       0.00613029       0.00624823
C        7.44326348       1.39237243       3.83713394       0.00000000      -0.00939964      -0.01137664      -0.00330014
C        6.21514110       3.50529152       3.88236178       0.00000000      -0.00276162       0.00907136      -0.01014783
C        4.95211704       5.57386731       3.54924074       0.00000000       0.00258191      -0.00198420       0.00672806
C        3.68274316       7.87208843       3.27874596       0.00000000       0.01807748       0.01518143       0.01237188
C        2.50782203       9.98491432       3.67192158       0.00000000       0.00148044      -0.01383525      -0.00766930
C        9.91376470       1.39211324       3.72760767       0.00000000       0.00049632      -0.00326977       0.00988858
C        8.68272504       3.51956503       3.75193847       0.00000000      -0.00601450       0.00324564      -0.00733518
C        7.42488526       5.63899003       3.63626769       0.00000000      -0.00306482       0.00696785       0.00045905
C        6.17336076       7.76072223       3.46732519       0.00000000      -0.00133104       0.00539293      -0.00341172
C        4.96561996       9.92205376       3.57309676       0.00000000      -0.00444527      -0.00201962      -0.00029190
Ti       1.15233851       6.46010214       5.44368805       0.00000000      -0.00657221      -0.03291976      -0.03273056
O        2.42034421       5.05424017       5.69128382       1.00000000       0.06615343      -0.02507888       0.02319188
O        0.12723716       6.87344957       6.66429568       1.00000000      -0.06038890       0.00318614       0.02089789
