52
Lattice="12.336457 0.0 0.0 -6.168228499999997 10.683685154694365 0.0 0.0 0.0 15.0" Properties=species:S:1:pos:R:3:forces:R:3 energy=-447.47453134111936 free_energy=-447.47453134111936 stress="-0.0071704924165940645 -0.0009052407745010666 3.318686859297079e-05 -0.0009052407745010666 -0.006162630457090761 7.0329894980342515e-06 3.318686859297079e-05 7.0329894980342515e-06 -1.791451609164273e-05" pbc="T T T"
C       -0.00396284       0.04849298       3.81827757       0.00327568      -0.00055556      -0.01131231
C       -1.24721133       2.18285321       3.69751950       0.00089458       0.01143268       0.00485378
C       -2.48845848       4.32884458       3.94391587      -0.00855939      -0.00566833      -0.00122280
C       -3.69993978       6.47202701       4.05659663       0.00441476      -0.00478873      -0.00114602
C       -4.92842279       8.61166382       4.00031089       0.00316949       0.00009497      -0.00290941
C        2.46751543       0.03789128       3.73813329      -0.00021560       0.00279445      -0.00943138
C        1.20802562       2.08606384       3.24764652      -0.00744056      -0.00508994       0.00282687
C       -0.12742296       4.35770792       3.48257080      -0.00224234       0.00621908      -0.00737819
C       -1.25324394       6.47303809       3.98590655      -0.00155290      -0.01060908      -0.00024051
C       -2.46822108       8.60802020       4.01762896       0.00512309      -0.00167713      -0.00893987
C        4.93065289       0.05979268       3.83616363       0.00237374      -0.00800033      -0.00221125
C        3.72091264       2.09298959       3.22824983       0.00371534      -0.00932258       0.00363510
B        1.25680118       6.46874632       3.91277127       0.00424771      -0.00016024       0.01945415
C       -0.01064003       8.62029147       4.00555348       0.00500730      -0.00589743       0.01187429
C        7.39702615       0.06683259       3.94749677      -0.00504377       0.00738314       0.00100604
C        6.16575359       2.19611060       3.71990524      -0.00199511       0.00938979      -0.00654858
C        5.03471173       4.37756957       3.46848333      -0.00106646      -0.00547826       0.00486014
C        3.74436620       6.47372665       3.85879812      -0.00365999       0.00440900       0.00688394
C        2.47826537       8.62848333       3.99196423      -0.00301617       0.00097610       0.00678288
C        9.87110648       0.06193646       3.93536806       0.00046347      -0.00143816      -0.01210733
C        8.63008197       2.19584851       3.92285825      -0.00131613       0.00360441      -0.01124555
C        7.40439827       4.33239954       3.94541864       0.00305201       0.00691076      -0.00595875
C        6.20072130       6.48747672       3.92994396      -0.00340102      -0.00566206       0.01454557
C        4.93695523       8.60475592       3.97486429       0.00245914       0.00168936       0.00682893
C       -0.01301896       1.46260003       3.59384697      -0.00421337       0.00209230       0.00310752
C       -1.28332001       3.59869206       3.71374320      -0.00211958       0.00955544       0.00472663
C       -2.47968631       5.75526797       4.01916593      -0.00231322      -0.01300382       0.00834210
C       -3.69961797       7.89740745       4.04426099       0.00472817      -0.00228096       0.00348835
C       -4.93409179      10.02709424       3.87129342       0.00298813       0.00327927      -0.00315568
C        2.46670635       1.43314769       3.37408546      -0.00316308      -0.00100451      -0.00234969
S        1.09352020       3.65190621       2.46455645       0.01351945       0.00671560      -0.00024164
C       -0.04372898       5.73466060       3.80230324       0.00251620       0.00189544      -0.00399166
C       -1.23803583       7.89687557       4.02956727       0.00431252      -0.00862593      -0.00860453
C       -2.46878480      10.02686180       3.88271580      -0.00099250       0.00055139      -0.00382339
C        4.93500509       1.47440505       3.60420838       0.00349094      -0.00689693      -0.00051957
S        3.88613871       3.62642598       2.34739719       0.00866301      -0.00529773      -0.00375940
C        1.23693747       7.94267650       3.98721332       0.00164996      -0.00306850      -0.00023988
C       -0.00668375      10.04269782       3.95557223       0.00290174      -0.00420516       0.00168159
C        7.38939647       1.49004171       3.88724806      -0.00607346       0.01096827      -0.00643846
C        6.19142688       3.61436038       3.73010003       0.00451194       0.00810221       0.00292319
C        4.97268162       5.78426799       3.74616944      -0.00566704      -0.00305390      -0.00307390
C        3.69958662       7.88574138       3.95696915      -0.00077459       0.00655174      -0.00849120
C        2.47034652      10.04799025       3.98387271      -0.00570754       0.00138912      -0.00683669
C        9.87001096       1.48390975       3.87351459       0.00445450       0.00405150       0.00206026
C        8.62605874       3.61498219       3.97039890      -0.00606470      -0.00085633       0.00523028
C        7.41076866       5.75963790       3.99543972       0.00330000       0.00189290       0.00030866
C        6.17741087       7.90357797       3.99227155       0.00137557      -0.00320569      -0.00363742
C        4.93260577      10.02594151       3.93130495       0.00557974       0.00110422       0.00635259
Ti       2.62850321       4.76465265       4.05352581      -0.01122874       0.00434564      -0.00202107
O        2.79814736       4.04145829       5.58450078      -0.00238114       0.00588638       0.01477785
O        2.92007031       3.33541250       6.78866555      -0.01124683      -0.00679424      -0.00080935
H        2.94049046       4.05474249       7.45756275      -0.00073295      -0.00064363       0.00209476
