52
Lattice="12.336457 0.0 0.0 -6.168228499999997 10.683685154694365 0.0 0.0 0.0 15.0" Properties=species:S:1:pos:R:3:forces:R:3 energy=-453.22578568564074 free_energy=-453.22578568564074 stress="-0.004468164721683665 0.0013679551984275612 3.3712537181511646e-05 0.0013679551984275612 -0.000324795959442066 6.48356207934816e-06 3.3712537181511646e-05 6.48356207934816e-06 -1.2757753505544757e-05" pbc="T T T"
C        0.01108197       0.01624535       3.70005400       0.00089514       0.00578136      -0.00155023
C       -1.23318757       2.13718945       3.67313967       0.00850826       0.00682100      -0.00653357
C       -2.45978929       4.27418837       3.65290506      -0.00112334       0.00414004      -0.00027148
C       -3.69572109       6.41153465       3.66897376      -0.00382906      -0.01072419       0.00147406
C       -4.93117596       8.55553791       3.69856017       0.00257857       0.00220373       0.00405726
C        2.47113656       0.03613822       3.74095049       0.00015761       0.00387532       0.00584101
C        1.21840019       2.18679536       3.80606600       0.00210501      -0.00412163      -0.00939152
C       -0.01960625       4.27309202       3.82208630       0.00106696      -0.00453852      -0.00435360
C       -1.23900850       6.41467114       3.74984720       0.00065879      -0.00024408      -0.00428340
C       -2.46686283       8.55222083       3.71462228      -0.00168910       0.00044044      -0.00696294
C        4.93573486      -0.00418293       3.73223944       0.00199904      -0.00014490       0.00628410
C        3.73728753       2.11087545       3.84550204      -0.00305326      -0.00436327       0.00017995
O        1.16028638       6.42626876       3.94467066       0.00035230       0.00756828       0.00967364
C       -0.00423437       8.52887755       3.77274135       0.00173416      -0.00491670       0.00513636
C        7.40392628      -0.01897821       3.70365218      -0.00216123      -0.00338897      -0.00320474
C        6.18866075       2.11450447       3.70627531      -0.00315282       0.00853974      -0.00212038
C        5.01409001       4.22778471       3.85424776       0.00247493      -0.00112344       0.00033459
B        3.76488213       6.42850253       4.01662242       0.00612599      -0.00767619      -0.00303333
C        2.43800453       8.52671299       3.80435449      -0.00101249      -0.00391671       0.01041351
C        9.86869323      -0.01009160       3.68362600      -0.00133870       0.00335244       0.00547277
C        8.64177417       2.12763267       3.64158715       0.00411294       0.00387450      -0.00069626
C        7.42163385       4.26644505       3.66417536       0.00233758      -0.00063227       0.00165665
C        6.18941162       6.40026651       3.74497210       0.00251659       0.00151317       0.00766817
C        4.94473382       8.55620453       3.75294245      -0.00972715      -0.00055416      -0.00864179
C        0.00938557       1.44598001       3.71368527       0.00513787       0.00340152      -0.00224733
C       -1.23925532       3.55629969       3.68885236      -0.00263994       0.00375778       0.00359205
C       -2.46694703       5.69483550       3.68011763      -0.00042663      -0.00057609      -0.00495686
C       -3.70267234       7.83967087       3.68942455      -0.00053458      -0.00851518       0.00068565
C       -4.92539709       9.99008159       3.71009574       0.00188218       0.00567473       0.00699988
C        2.48200132       1.48321779       3.80781815      -0.00289145      -0.00229619      -0.00037688
N        1.16853642       3.55548067       3.89848757      -0.00232592      -0.00794635       0.00075851
C       -0.05731269       5.68953952       3.86155765       0.00229633      -0.00105655      -0.00575935
C       -1.24606090       7.83941592       3.74580458       0.00010740       0.00072323      -0.00618879
C       -2.47232235       9.99027268       3.73120592       0.00002574       0.00376650      -0.00298943
C        4.94348344       1.42433659       3.75028067      -0.00220591       0.00083140       0.00463521
O        3.80830358       3.51792471       3.97388198       0.00431849      -0.00625712      -0.00552568
C        1.20698129       7.83999612       3.85004392       0.00162594      -0.00125132       0.00017511
C        0.00368199       9.95887627       3.73336317      -0.00014925      -0.00752236      -0.00713401
C        7.40715974       1.41152220       3.67079257      -0.00235716       0.00350487      -0.00394680
C        6.19989449       3.52782903       3.71696577       0.00181549       0.00762011      -0.00801840
C        4.98032455       5.63077768       3.87018763       0.00584077      -0.00093737      -0.00337280
C        3.70196692       7.86222354       3.84030788      -0.00688672      -0.00976962      -0.00418961
C        2.45858839       9.95578783       3.71759732      -0.00154975      -0.00374565       0.00712850
C        9.87301758       1.41562547       3.65126508       0.00817391       0.00635880      -0.00102039
C        8.64480868       3.55359652       3.63399465       0.00293205       0.00367414       0.00939466
C        7.41368846       5.69179309       3.67701340      -0.00297348      -0.00638690       0.00588363
C        6.17378742       7.82859563       3.73085125      -0.00270985       0.00424076       0.00516847
C        4.94574775       9.98104903       3.70139929      -0.00320912       0.00326423      -0.00369778
Ti       2.42719047       4.87807451       4.60546579       0.00354166       0.01052208      -0.00266021
O        2.35386248       4.86911051       6.29131633      -0.00013917       0.00051158       0.00868942
O        2.18482324       4.89816356       7.68491879      -0.00847422       0.00089667       0.00000846
H        3.10610091       4.86646156       8.02419747      -0.00876141      -0.00425268       0.00181594
