51
Lattice="12.336457 0.0 0.0 -6.168228499999997 10.683685154694365 0.0 0.0 0.0 15.0" Properties=species:S:1:pos:R:3:initial_magmoms:R:1:forces:R:3 energy=-445.9055175561294 free_energy=-445.9055175561294 stress="-0.005330354234170688 -0.005275153246855989 -5.780967975576152e-06 -0.005275153246855989 -0.006112508273538871 -1.1990169333956547e-05 -5.780967975576152e-06 -1.1990169333956547e-05 -1.5010157666064603e-06" pbc="T T T"
C        0.00762853      -0.00633401       3.66980430       0.00000000       0.00450638      -0.00047508      -0.01920012
C       -1.27101911       2.11087814       3.52479389       0.00000000       0.01056446       0.00449316      -0.00130050
C       -2.47045903       4.27845537       3.66476878       0.00000000       0.00026590      -0.00912614       0.00115856
C       -3.64632641       6.42806422       3.85455192       0.00000000      -0.00705730      -0.00585524      -0.00412206
C       -4.89450026       8.56330707       3.86589024       0.00000000      -0.00090625      -0.00214289      -0.00273980
C        2.47226960      -0.00382788       3.56114102       0.00000000      -0.00890294       0.00965973      -0.00572481
C        1.17991686       2.07280122       3.35912267       0.00000000      -0.00295126       0.00376457       0.00746706
C       -0.09570477       4.19738500       3.32270288       0.00000000       0.00400780      -0.00513596      -0.00024763
C       -1.19285688       6.40056043       3.56560771       0.00000000      -0.00398838      -0.00391078      -0.01467926
C       -2.42091381       8.54232092       3.64596961       0.00000000      -0.00343355       0.00772435       0.00542438
C        4.94179450       0.01520312       3.61948920       0.00000000      -0.00019445       0.00034870      -0.01766435
C        3.67300897       2.11342450       3.53588637       0.00000000       0.00197022      -0.00447070       0.01019868
S        1.50223989       6.32072405       2.79476201       0.00000000       0.00135478       0.00434803       0.00847288
C        0.04487248       8.55154792       3.55737984       0.00000000      -0.00001433      -0.00068248      -0.00366712
C        7.39764954       0.02980696       3.73104512       0.00000000      -0.00237817       0.00507583       0.00617467
C        6.14931725       2.18052343       3.76472006       0.00000000      -0.00251784       0.00214613       0.01513083
C        5.04740637       4.38787363       4.08576355       0.00000000       0.00656074       0.00137243       0.00184186
B        3.75767460       6.51099241       4.68027125       0.00000000       0.00619446      -0.00763949      -0.00662583
C        2.50079567       8.58863902       3.85881469       0.00000000      -0.00044684      -0.00381347      -0.00159996
C        9.87208080       0.01723312       3.79591440       0.00000000       0.00691676      -0.00310495      -0.00710141
C        8.61992062       2.15537774       3.74890792       0.00000000      -0.00198156       0.00201242       0.00033376
C        7.43955201       4.30276230       3.94875374       0.00000000      -0.00726665       0.00205502       0.00900967
C        6.25782942       6.46039458       4.20460877       0.00000000       0.00207964       0.00440146      -0.00665179
C        4.96244137       8.58050131       4.04413872       0.00000000       0.00598140      -0.00340569      -0.01138083
C       -0.02314504       1.40626833       3.47311710       0.00000000       0.00235992       0.00114825      -0.00412306
C       -1.28980997       3.51902529       3.46584867       0.00000000       0.00796364      -0.00252631       0.00401062
C       -2.42394278       5.70177662       3.70232702       0.00000000      -0.00555634      -0.00828473      -0.00411389
C       -3.65374000       7.84708915       3.79488784       0.00000000      -0.00151329      -0.00220415       0.00482269
C       -4.91879103       9.97675580       3.69006376       0.00000000      -0.00268426      -0.00080737       0.00105737
C        2.43532466       1.42347115       3.44039216       0.00000000      -0.00215013       0.00868389      -0.00134814
O        1.11456851       3.47742058       3.21261552       0.00000000      -0.00730627      -0.01328858       0.00203194
C        0.00316204       5.60541023       3.42096771       0.00000000       0.00542989      -0.00249425       0.00135001
C       -1.18297914       7.82025039       3.56525442       0.00000000      -0.00147128       0.00100186      -0.00003948
C       -2.44655506       9.97555116       3.60050899       0.00000000      -0.00774054       0.01084995      -0.00378569
C        4.91775721       1.46058866       3.64528901       0.00000000       0.00207962      -0.00285764       0.01312787
S        3.55782750       3.82046052       3.50421646       0.00000000       0.00143543      -0.00106418       0.01039808
C        1.30333152       7.90634226       3.51209225       0.00000000      -0.00271968      -0.00701943      -0.00501877
C        0.01310113       9.98967186       3.64931989       0.00000000       0.00035626      -0.00011789       0.00775249
C        7.37891310       1.45938936       3.75638994       0.00000000      -0.00421931       0.00615551       0.00511011
C        6.20108496       3.59157036       3.94537884       0.00000000      -0.00139597       0.00161967       0.00162421
C        5.05655154       5.75631365       4.36952816       0.00000000       0.00409784       0.00190272      -0.00374121
C        3.72558562       7.91879850       4.12668524       0.00000000       0.00228298      -0.00590904       0.00036655
C        2.46869252      10.01186553       3.81873444       0.00000000      -0.00012726       0.00078679       0.00037158
C        9.85244949       1.43114895       3.68860184       0.00000000       0.00511472       0.00208662       0.00113733
C        8.64238241       3.57528109       3.79054304       0.00000000      -0.00779870      -0.00035406       0.00076716
C        7.46989987       5.72498357       4.02177286       0.00000000      -0.00560753      -0.00023687       0.01387105
C        6.22448682       7.87888298       4.08392987       0.00000000       0.00243432      -0.00015984      -0.00554688
C        4.94671022       9.99394161       3.83534062       0.00000000       0.00863648      -0.00332938      -0.00679990
Ti       1.62973610       4.76627173       4.90187881       0.00000000      -0.00055823       0.00654293      -0.01436731
O        0.81544766       3.94104607       6.08968163       1.00000000       0.00178924      -0.00068998       0.01195025
O        2.81478019       6.04433974       5.58525270       1.00000000      -0.00149459       0.01292659       0.00662817
