51
Lattice="12.336457 0.0 0.0 -6.168228499999997 10.683685154694365 0.0 0.0 0.0 15.0" Properties=species:S:1:pos:R:3:initial_magmoms:R:1:forces:R:3 energy=-451.3069533668683 free_energy=-451.3069533668683 stress="0.001874342909182667 -0.002065292612215675 7.131518654507269e-05 -0.002065292612215675 -0.007904231068465132 -6.170895582902434e-06 7.131518654507269e-05 -6.170895582902434e-06 -4.166853197899415e-07" pbc="T T T"
C       -0.05208739      -0.04081893       3.43576952       0.00000000       0.00528169       0.00102257       0.01067021
C       -1.28404197       2.11563774       3.53168755       0.00000000      -0.00608539      -0.00314555       0.00392791
C       -2.51448925       4.24445805       3.57577096       0.00000000      -0.00115967      -0.02351568       0.00562624
C       -3.74439890       6.37328782       3.48501422       0.00000000       0.01344185       0.02105061       0.00568187
C       -4.97521126       8.50295243       3.41336090       0.00000000      -0.00909675       0.00952261      -0.01505710
C        2.42447159      -0.09581228       3.51425516       0.00000000      -0.00778053      -0.01972288       0.00575836
C        1.19282572       2.04012608       3.60115277       0.00000000       0.00844512      -0.01175043      -0.00327395
C       -0.01342157       4.24250140       3.77746176       0.00000000       0.00876869       0.01089420       0.01355124
C       -1.28206182       6.37781401       3.74625925       0.00000000       0.00347614      -0.00621478       0.00567929
C       -2.49679517       8.49229900       3.57018650       0.00000000      -0.01431610       0.01202637      -0.00416649
C        4.88332939      -0.04084441       3.71844199       0.00000000      -0.01764203       0.00860004       0.01755983
C        3.59605425       1.99316952       3.97365006       0.00000000       0.00062923       0.00463383       0.01873566
B        1.10953791       6.42800266       4.40568778       0.00000000      -0.01117071      -0.00303365       0.00264978
C       -0.04303273       8.52763655       3.86256278       0.00000000      -0.00061657      -0.00871270       0.01546735
C        7.34770751      -0.00402114       3.74322843       0.00000000      -0.00976257       0.00769322       0.01004881
C        6.08395919       2.13265126       3.76380570       0.00000000      -0.00099969       0.01392600      -0.02061884
C        4.84255762       4.33425629       3.80277399       0.00000000      -0.00674488       0.02073405       0.01837670
N        3.78905528       6.49537899       4.14685273       0.00000000      -0.00944170      -0.01856610       0.00261913
C        2.44191293       8.55349952       3.95213394       0.00000000       0.03980775      -0.00896969       0.00812523
C        9.81563611      -0.00888726       3.60017261       0.00000000      -0.00316883       0.01740655      -0.00594665
C        8.56942729       2.12517114       3.59869204       0.00000000      -0.00494843      -0.01053683       0.02070821
C        7.32322797       4.25680072       3.56965077       0.00000000       0.00344303      -0.00920964       0.00506190
C        6.12486421       6.40915482       3.50906258       0.00000000       0.00327676       0.00725322       0.01193860
C        4.89665230       8.53627907       3.58144660       0.00000000       0.01740409       0.01406884      -0.00825886
C       -0.05336966       1.38605505       3.48922300       0.00000000      -0.00159124      -0.00741246       0.00840731
C       -1.26066604       3.53330849       3.61331014       0.00000000       0.00444116      -0.00717357      -0.00045397
C       -2.51515973       5.66602892       3.58455094       0.00000000       0.00676727      -0.00643890      -0.00879800
C       -3.73497009       7.79038634       3.46642372       0.00000000      -0.01216674       0.02284322      -0.00806486
C       -4.98719263       9.91558967       3.42329932       0.00000000      -0.00187333      -0.01119491      -0.01481060
C        2.40959989       1.30162294       3.67574116       0.00000000       0.00865568      -0.01909843      -0.03269321
B        1.34376747       3.52258300       3.77455522       0.00000000      -0.00612910      -0.00984800       0.00365463
C       -0.07337194       5.65305338       3.93830913       0.00000000       0.01026985      -0.01113521       0.00585696
C       -1.26488742       7.79587343       3.73633693       0.00000000      -0.01214119       0.00317901       0.01081374
C       -2.50055928       9.90803745       3.58924499       0.00000000      -0.01731986       0.00161780       0.01848360
C        4.85772093       1.39111649       3.83825172       0.00000000       0.00252785       0.01997930      -0.02110797
P        3.22380700       3.69050481       4.35307498       0.00000000      -0.01860191      -0.01160200      -0.01443134
C        1.20075768       7.86328877       4.09776384       0.00000000       0.02927619      -0.00596125      -0.03341383
C       -0.04895619       9.95332092       3.76411808       0.00000000      -0.01667016       0.00120688       0.00784342
C        7.32592864       1.42373473       3.68830648       0.00000000      -0.00186238       0.00574185       0.01709453
C        6.05562799       3.57110875       3.70255353       0.00000000      -0.00724995       0.00914776      -0.01254077
C        4.89262568       5.75442284       3.77982362       0.00000000       0.00303447       0.01191063       0.01084784
C        3.69729671       7.83656959       3.89902047       0.00000000       0.04555477      -0.01679123       0.00266450
C        2.42340504       9.97203278       3.75353109       0.00000000       0.01009819      -0.00073558      -0.02485246
C        9.81051892       1.41359859       3.55720379       0.00000000      -0.00905854       0.01722032      -0.01668712
C        8.56969813       3.54638904       3.56572562       0.00000000       0.00051134      -0.02085988      -0.00726144
C        7.34500730       5.67330838       3.48388780       0.00000000       0.00344788       0.00644630       0.00938483
C        6.12294702       7.81844995       3.46754656       0.00000000       0.00507414       0.00756370      -0.01950064
C        4.88188029       9.95138364       3.51671787       0.00000000      -0.00041942       0.01846619      -0.00650375
Ti       2.76698489       5.90605567       5.89140453       0.00000000       0.00196777      -0.02129774       0.02554558
O        3.19982970       4.03152287       5.91408799       1.00000000       0.05259245      -0.07868172      -0.02458444
O        3.52216237       6.72838844       7.09904129       1.00000000      -0.08017569       0.07745377       0.00024301
