51
Lattice="12.336457 0.0 0.0 -6.168228499999997 10.683685154694365 0.0 0.0 0.0 15.0" Properties=species:S:1:pos:R:3:initial_magmoms:R:1:forces:R:3 energy=-448.36608187034216 free_energy=-448.36608187034216 stress="0.0018522885797922458 0.0018289191978155624 -2.1982997942011288e-05 0.0018289191978155624 -0.006048690211097116 -1.5284410681686667e-05 -2.1982997942011288e-05 -1.5284410681686667e-05 -7.608363674484983e-07" pbc="T T T"
C       -0.02623333      -0.00150333       3.62423473       0.00000000       0.01137037      -0.00578308      -0.00025248
C       -1.24516914       2.15931494       3.65876387       0.00000000      -0.00241074      -0.00950025      -0.00301863
C       -2.49534603       4.29394198       3.65064976       0.00000000      -0.00511492      -0.00525177       0.00135873
C       -3.73780808       6.41096856       3.66970057       0.00000000      -0.00119880       0.01355359       0.00073650
C       -4.97309941       8.53502704       3.64760415       0.00000000      -0.00591073       0.00599817      -0.00571173
C        2.45414892      -0.01696902       3.69428958       0.00000000       0.00653466      -0.00217007      -0.00425518
C        1.22602157       2.08489668       3.90249211       0.00000000      -0.00091289      -0.00179969      -0.01304460
C       -0.05481736       4.30984073       3.90831716       0.00000000      -0.00412746       0.00183453      -0.00406914
C       -1.22659878       6.42539179       3.73282459       0.00000000       0.00286606       0.00130723       0.00294073
C       -2.48976757       8.54053068       3.64133983       0.00000000      -0.00196853       0.00418276      -0.00116088
C        4.91628161       0.00239488       3.58425919       0.00000000      -0.00723474      -0.00035312      -0.00245198
C        3.71346799       2.12864580       3.84370094       0.00000000      -0.00062142      -0.00201015       0.00095762
B        1.45609948       6.41692356       3.92721217       0.00000000       0.00110382      -0.00780477       0.00642780
C       -0.01579030       8.56179246       3.60706310       0.00000000       0.00204463       0.00346076      -0.00349933
C        7.37505217       0.03641130       3.45896845       0.00000000      -0.00137193       0.01491690       0.00066559
C        6.14681611       2.14620719       3.56050056       0.00000000       0.00722441      -0.00371773       0.00035536
C        4.91130514       4.22556853       3.82496813       0.00000000      -0.00461625       0.00513186       0.00568712
B        3.42110654       6.41669533       3.86244203       0.00000000       0.00815005      -0.00708572       0.00672093
C        2.44203661       8.63035704       3.54116590       0.00000000      -0.00189321      -0.00461560       0.00522971
C        9.85708769       0.04134826       3.47799067       0.00000000      -0.00189648       0.00791311      -0.00113683
C        8.61851818       2.16651378       3.49931176       0.00000000       0.00613650       0.00929006       0.01367057
C        7.36676920       4.28653844       3.61478935       0.00000000      -0.00093885      -0.01007621      -0.00309339
C        6.08104409       6.39631082       3.72585737       0.00000000       0.00275800      -0.01199362      -0.00238397
C        4.89800393       8.55764989       3.58412760       0.00000000      -0.00019220      -0.00461484       0.00518859
C       -0.02346334       1.42242949       3.72140586       0.00000000       0.00138104      -0.01082008      -0.01052571
C       -1.26046446       3.58056629       3.72859678       0.00000000      -0.00326516      -0.00786772      -0.00637110
C       -2.48543432       5.71497274       3.68543518       0.00000000      -0.00310983       0.00273940       0.00392122
C       -3.73192844       7.83068749       3.65908900       0.00000000      -0.00590478       0.01419194      -0.00372795
C       -4.96119211       9.96038096       3.65263226       0.00000000       0.01275498      -0.00159844       0.00003488
C        2.47257242       1.40285178       3.82805764       0.00000000      -0.00173043      -0.00398911      -0.00414569
B        1.16246112       3.50712153       4.18197975       0.00000000      -0.01283653      -0.00635174      -0.00890978
C        0.03026773       5.72067980       3.86075840       0.00000000       0.00628751       0.00303904       0.00072609
C       -1.25028394       7.84134278       3.66358660       0.00000000       0.00010143       0.00301403      -0.00837979
C       -2.48457159       9.96177498       3.63553500       0.00000000      -0.00083362      -0.00162445      -0.00424084
C        4.92505574       1.42507034       3.63196097       0.00000000       0.00150002      -0.00078250      -0.00044179
N        3.77649671       3.47792506       4.05725557       0.00000000      -0.00535923      -0.00100601      -0.00420953
C        1.23414296       7.89802861       3.65706057       0.00000000       0.00007188      -0.00854895       0.00358209
C       -0.01901834       9.98826165       3.52476762       0.00000000      -0.00376090       0.01017159       0.00377738
C        7.38080359       1.45388493       3.47380406       0.00000000       0.01373202       0.01187704       0.00665952
C        6.14236464       3.55738442       3.62613174       0.00000000      -0.00351992      -0.00570015       0.00392403
C        4.81981086       5.66555456       3.84310643       0.00000000      -0.00557117       0.00281887       0.01001832
C        3.64611317       7.89892173       3.60748521       0.00000000       0.00022094      -0.01039574       0.00340381
C        2.44744153      10.03669728       3.44676595       0.00000000      -0.00359087       0.00501675       0.00482419
C        9.85827261       1.45984986       3.51804300       0.00000000      -0.00387418       0.00793408       0.01213762
C        8.61035883       3.58484233       3.57237202       0.00000000      -0.00091770      -0.00078156      -0.00181697
C        7.34523056       5.70505806       3.67792648       0.00000000       0.00310800      -0.00682538      -0.00314954
C        6.11954096       7.82458360       3.65810966       0.00000000      -0.00161756      -0.00786768       0.00098998
C        4.91054890       9.98867069       3.54111826       0.00000000       0.00244601       0.00496807      -0.00643678
Ti       2.67118919       4.79489160       5.07691964       0.00000000      -0.00937688       0.00642820      -0.00629302
O        3.13643210       4.57607519       8.04513413       1.00000000       0.01375801       0.00348807      -0.00327904
O        2.97785750       4.65831609       6.75317178       1.00000000       0.00212756       0.00766011       0.01206727
