52
Lattice="12.336457 0.0 0.0 -6.168228499999997 10.683685154694365 0.0 0.0 0.0 15.0" Properties=species:S:1:pos:R:3:forces:R:3 energy=-449.3004260078869 free_energy=-449.3004260078869 stress="-0.003351113727511625 0.0008692279236360691 -1.0557747357705193e-06 0.0008692279236360691 -0.007460494917168012 -2.655965917987611e-05 -1.0557747357705193e-06 -2.655965917987611e-05 -2.5510828974399418e-05" pbc="T T T"
C       -0.04571132      -0.04041109       3.43514360       0.00186149      -0.00121968       0.00991162
C       -1.27440929       2.11172358       3.33080467      -0.00374956       0.00079714       0.00335563
C       -2.50993903       4.24423942       3.45843242       0.00194835      -0.00029407      -0.00584144
C       -3.73979961       6.37767724       3.56455157       0.00007044      -0.00052812      -0.00209655
C       -4.98630544       8.50132942       3.59853622      -0.00182629      -0.00353544      -0.00095771
C        2.42746022      -0.09133984       3.46129322       0.00419561      -0.00051135       0.00272833
C        1.21716463       2.03659979       3.22472204       0.00283934      -0.00288826       0.00176033
C       -0.05780201       4.30230266       3.47342635      -0.00191429       0.00734732      -0.00357447
C       -1.29583076       6.37857850       3.73705667      -0.00034887      -0.00085911      -0.00123526
C       -2.50039704       8.49827734       3.63026300       0.00176885       0.00122276      -0.00563837
C        4.89703861      -0.04744314       3.65977941      -0.00367817       0.00387740       0.00217339
C        3.62325920       2.00764916       3.78419728      -0.00000176       0.00092988       0.00278102
B        0.90845200       6.44986023       4.69810263      -0.00293544       0.00896096      -0.00378585
C       -0.03398008       8.52701355       3.92213991       0.00474709       0.00065714       0.00071294
C        7.36076545      -0.01790607       3.71406102       0.00064307      -0.00224844       0.00726657
C        6.12215406       2.10789591       3.70405274      -0.00209136      -0.00024074       0.00092325
C        4.95750387       4.28775325       4.08239799      -0.00136175       0.00180178       0.00697732
S        3.86347134       6.49142763       5.26073257       0.00560221       0.00479534       0.00911883
C        2.42262942       8.56678948       4.15563485      -0.00008897      -0.01018399      -0.00573720
C        9.82531241      -0.01644249       3.62167163      -0.00209160       0.00101712      -0.00108816
C        8.59153232       2.11111002       3.50623683      -0.00282186       0.00199951       0.00499228
C        7.35964683       4.24477892       3.61001748       0.00249800      -0.00227043       0.00352731
C        6.17184426       6.40627330       3.88123702       0.00329230      -0.00291292      -0.00142854
C        4.90645178       8.55301205       3.92493352      -0.00323183      -0.00118199      -0.00131192
C       -0.03901451       1.38654159       3.29003845      -0.00191789      -0.00058406      -0.00120980
C       -1.26898607       3.53902833       3.38156477      -0.00006223      -0.00002813       0.00246540
C       -2.51531623       5.66465224       3.54816794      -0.00136679      -0.00216947      -0.00663833
C       -3.74165627       7.79400136       3.58358626       0.00118000       0.00077588       0.00543766
C       -4.98718751       9.91431883       3.47214541       0.00394526      -0.00197816       0.00407282
C        2.42402480       1.31506370       3.45490132       0.00549060      -0.00046628       0.00087663
P        1.51167996       3.73700860       2.86693118      -0.00331285       0.00171306       0.00060360
C       -0.09916400       5.65747944       3.84730721      -0.00270479       0.00058122      -0.00067038
C       -1.27619209       7.80270468       3.79136511       0.00063376       0.00059791       0.00226930
C       -2.50022776       9.91234793       3.58396091       0.00164718       0.00071086      -0.00429535
C        4.88967976       1.37744744       3.72445067      -0.00260937       0.00231480       0.00012578
P        3.36319250       3.59043378       4.50041439      -0.00668381      -0.00240724       0.00060346
C        1.17979578       7.87202518       4.22863073       0.00577044       0.00097898      -0.00502947
C       -0.03708645       9.94754866       3.75146274      -0.00345087       0.00442976       0.00085881
C        7.35535726       1.40433614       3.61810031      -0.00176330      -0.00186890      -0.00542616
C        6.13296240       3.53280365       3.76286055      -0.00065046      -0.00064982      -0.00115174
C        5.04533876       5.66530111       4.27531861       0.00650640      -0.00407242      -0.00369188
C        3.69984935       7.95266316       4.35818767      -0.00171504      -0.00511136      -0.00392276
C        2.42821268       9.96670003       3.81117658       0.00054871      -0.00500560      -0.00849855
C        9.82882792       1.40311851       3.45624651      -0.00535696       0.00196180       0.00258279
C        8.59105794       3.53338324       3.49008099       0.00322471       0.00141462       0.00292762
C        7.37032843       5.66972801       3.63953121       0.00222312      -0.00189998      -0.00610543
C        6.13133535       7.81864071       3.82313738      -0.00424856      -0.00317178      -0.00615569
C        4.89433273       9.95644399       3.63380363      -0.00226090      -0.00204445      -0.00576705
Ti       2.52996320       4.91824045       6.32822225       0.01363050      -0.00928986       0.00616830
O        1.07995304       5.98430637       6.00241621      -0.00200228       0.01239848       0.00011742
O        2.93242374       4.42393194       8.01768762      -0.00688586      -0.00136303      -0.00595503
H        3.01714250       4.25904216       8.96441040      -0.00113368       0.00970133       0.01187466
