52
Lattice="12.336457 0.0 0.0 -6.168228499999997 10.683685154694365 0.0 0.0 0.0 15.0" Properties=species:S:1:pos:R:3:forces:R:3 energy=-451.4100524641694 free_energy=-451.4100524641694 stress="-0.0034636825819712586 -0.0014182582724592049 -2.709352361820897e-05 -0.0014182582724592049 -0.007715593503947265 2.814731164620644e-05 -2.709352361820897e-05 2.814731164620644e-05 -2.8258178946096008e-05" pbc="T T T"
C       -0.05424197      -0.04255895       3.58778623      -0.00880398       0.00018958      -0.00312526
C       -1.29346659       2.10035536       3.76271662       0.00277817      -0.00006656      -0.00527389
C       -2.53911228       4.23879493       3.67549481       0.00068597       0.00298795       0.00467970
C       -3.75964639       6.37203619       3.51414949      -0.00329871       0.00188913       0.00223592
C       -4.98577720       8.50419621       3.44475894       0.00011470      -0.00257450      -0.00326743
C        2.41809370      -0.07949458       3.53335443      -0.00090265      -0.00878165      -0.00742394
C        1.19641894       1.99112671       3.95530709       0.00514752       0.00138125       0.01892714
C       -0.11347285       4.27201181       4.00638931       0.00060369       0.00247417       0.00832000
C       -1.31355749       6.39028467       3.72786076      -0.00142915       0.00215004      -0.00013113
C       -2.51117947       8.50165852       3.50715069      -0.00106005      -0.00075192      -0.00270448
C        4.88671634      -0.04110743       3.60057017       0.00676626       0.00034414       0.00607408
C        3.63346686       2.04441318       3.80774486       0.00000371      -0.00000637       0.00297457
B        1.12306914       6.42591730       4.36904127      -0.00296932      -0.00204307       0.00704631
C       -0.05086611       8.52077271       3.75620976      -0.00679141      -0.00359230       0.00445184
C        7.34754709      -0.02057421       3.68476893      -0.00202750       0.00383650      -0.01038721
C        6.10145897       2.12037054       3.73626915      -0.00005189      -0.00072871      -0.00305220
C        4.84770278       4.29638470       3.98952995      -0.00192418      -0.00014376      -0.00478989
N        3.76412339       6.47901683       4.08117047       0.00687896       0.00266707      -0.00591773
C        2.43495142       8.53070681       3.85616992      -0.00300127       0.00511787      -0.00004447
C        9.81534933      -0.02315112       3.65304816      -0.00044691       0.00176754      -0.00536692
C        8.57159225       2.11224426       3.67496430       0.00174022      -0.00012714      -0.00021922
C        7.32255626       4.24796130       3.67262125      -0.00807481       0.00003091      -0.00770336
C        6.11978568       6.39873420       3.59831686      -0.00464974      -0.00192835      -0.00377052
C        4.89155777       8.52282300       3.59730732       0.00719575      -0.00184965      -0.00413446
C       -0.06029875       1.37102174       3.77014168       0.00347726      -0.00026904       0.00127945
C       -1.30654064       3.52025107       3.80663770       0.00464485       0.00021758      -0.00433780
C       -2.53700793       5.66240265       3.61318803      -0.00087182       0.00477143       0.00475592
C       -3.74946090       7.79268840       3.45938048       0.00002498      -0.00151510      -0.00220220
C       -4.99193675       9.92065685       3.49607274      -0.00742688      -0.00518973      -0.00215149
C        2.42138299       1.31170387       3.73781023      -0.00073624      -0.00585098      -0.00277850
P        1.44497204       3.62264519       4.48337691       0.00404647       0.01631364      -0.00031575
C       -0.12142225       5.68689870       3.99699423      -0.00396084       0.00278510       0.00571169
C       -1.28340336       7.80460975       3.65845034      -0.00543565      -0.00019836       0.00063847
C       -2.50850007       9.91696316       3.51685070       0.00715808      -0.00146934      -0.00911425
C        4.88121751       1.38414584       3.70183327       0.00059822       0.00371717      -0.01030131
B        3.52544478       3.51131809       4.13898990       0.00740564       0.00149942       0.00558326
C        1.19143834       7.84597779       3.97990294      -0.00419873       0.00050023       0.00648099
C       -0.05153397       9.94389679       3.66052997       0.00190066      -0.00404547      -0.00884304
C        7.33658369       1.40623075       3.68227187       0.00064584       0.00048881       0.00269754
C        6.07990747       3.55211500       3.79844059      -0.00339213      -0.00375247       0.00144322
C        4.90804727       5.73505889       3.87806447      -0.00012579      -0.00197371       0.00117862
C        3.68595053       7.82085362       3.83739880       0.00613008       0.00285510       0.00140900
C        2.42023660       9.95232605       3.71099619      -0.00200588       0.00750563      -0.00538579
C        9.81063376       1.39947121       3.67879342       0.00261705       0.00146720       0.00378548
C        8.56092393       3.53462627       3.65914361      -0.00196109       0.00253059       0.00067240
C        7.33986871       5.66715030       3.57294250      -0.00814878       0.00240462       0.00864319
C        6.11726946       7.80871274       3.51373067       0.00414313      -0.00252000       0.00640211
C        4.88025854       9.94360356       3.58857744      -0.00585735      -0.00187573      -0.00438465
Ti       2.81616131       5.31333152       5.38971558       0.00482803      -0.00417811       0.00895575
O        3.36074223       5.53356149       6.99762186       0.00716722      -0.00662533      -0.00754785
O        3.70785539       5.77385374       8.32133007       0.00337798      -0.00733774       0.01219072
H        4.52424640       5.24577017       8.43690902      -0.00052767      -0.00249758      -0.00186265
