52
Lattice="12.336457 0.0 0.0 -6.168228499999997 10.683685154694365 0.0 0.0 0.0 15.0" Properties=species:S:1:pos:R:3:forces:R:3 energy=-447.6142432163511 free_energy=-447.6142432163511 stress="-0.0030802043653993323 -0.0018214670126000504 -2.783115561675952e-05 -0.0018214670126000504 -0.0036682348974570365 -0.00011975961675104306 -2.783115561675952e-05 -0.00011975961675104306 0.0005052739223755576" pbc="T T T"
C        0.04664660      -0.09496372       3.61122962      -0.03879169      -0.08745547      -0.00990452
C       -1.19899630       2.03783289       3.43778216       0.02200282      -0.07416822      -0.04303832
C       -2.44771889       4.17373319       3.51384589      -0.06689331       0.08317596       0.01348729
C       -3.65686604       6.32128324       3.63083359      -0.03766177      -0.02974890       0.02604701
C       -4.88382351       8.45523732       3.67221145      -0.00312857      -0.04986543      -0.02602416
C        2.52072023      -0.12128913       3.70910528      -0.01471413       0.08789207      -0.00390783
C        1.29571071       1.96918960       3.40080617      -0.03194234       0.16561034      -0.02582294
C       -0.02483282       4.19817682       3.30285019      -0.09432157       0.00315193       0.02055789
C       -1.21104113       6.30979647       3.67349634       0.07429127       0.02036517       0.00643931
C       -2.41052942       8.44243316       3.72827944       0.02122854      -0.00505713       0.03031045
C        4.98361703      -0.10013223       3.83484331       0.02598639      -0.01876950       0.01883187
C        3.72011184       1.99078005       4.03596922       0.00040053      -0.16197183       0.13149088
B        1.16297361       6.30821965       4.17491200      -0.00118653       0.09231703       0.09770743
C        0.05623614       8.44281126       3.85580596      -0.00060696      -0.03284474       0.06279786
C        7.45187407      -0.09652966       3.82454048       0.01662194       0.05146822       0.01670519
C        6.20263029       2.05847904       3.91627279      -0.05546763       0.06625289       0.00483797
C        5.04507183       4.27865706       4.15961723      -0.06220814       0.06546857       0.00304656
O        3.84085230       6.38733087       4.11520191       0.09748989       0.00615106      -0.00985571
C        2.54704075       8.44389653       3.92810393       0.03988566      -0.10919860      -0.01880804
C        9.91797357      -0.09890477       3.69384024      -0.05112466       0.09895746       0.01364199
C        8.67041052       2.04509935       3.66622739      -0.00122752      -0.02968966      -0.02421752
C        7.43144966       4.19456623       3.72128297       0.10257107      -0.06370107      -0.01099606
C        6.23341860       6.34848359       3.76151239      -0.10408611      -0.03455543      -0.00668576
C        4.99184562       8.45598344       3.75909017       0.00593130       0.03159877       0.00809474
C        0.04191868       1.33066206       3.47840237       0.08738977      -0.07221413      -0.04259174
C       -1.21775512       3.45072578       3.37630001      -0.09639210       0.02014278       0.06421022
C       -2.43872400       5.59972644       3.58406211       0.01220836       0.02906745       0.00044431
C       -3.64668545       7.74232468       3.67348814       0.02451995      -0.02599485      -0.02931212
C       -4.88800157       9.87493296       3.64704565       0.04733577      -0.01700875       0.04643993
C        2.51354823       1.29695043       3.71992101      -0.02351437       0.05427509      -0.00479363
S        1.40176746       3.52076122       2.65249535       0.17796924      -0.04898421       0.08897097
C        0.00555202       5.56731986       3.66531282       0.08208987      -0.00286504      -0.00526657
C       -1.17873741       7.72674961       3.77272923       0.04599565       0.02677821      -0.00372583
C       -2.41047689       9.86194983       3.77660553       0.01989749       0.00706464      -0.05718375
C        4.97507713       1.33363053       3.94113811      -0.05816657      -0.00748387      -0.02686836
S        3.65580870       3.50948633       4.81612745       0.01249447       0.14067530      -0.11421554
C        1.30075664       7.74947824       3.98231171      -0.02939677      -0.03030395      -0.08129076
C        0.05026262       9.87526328       3.83527954       0.02012976      -0.04682227       0.01742387
C        7.43533525       1.33759212       3.80482321      -0.03385267       0.06028149      -0.04052190
C        6.20378945       3.49211227       3.91097636       0.02686938       0.08546776       0.05886251
C        5.04151316       5.67467655       3.99632930      -0.08722369       0.00110411       0.05423815
C        3.79024996       7.75911412       3.91643650       0.03692344      -0.05575673       0.05123585
C        2.52824141       9.87318184       3.81953147       0.01895665      -0.05300403      -0.05517467
C        9.91087649       1.33006816       3.58420813      -0.02801729       0.08978935       0.04277259
C        8.66059095       3.46847013       3.61739096       0.04482377      -0.07574595      -0.00029447
C        7.44887605       5.61345500       3.68513021      -0.06891986      -0.10971021      -0.00695623
C        6.22924038       7.76192090       3.71634249      -0.02105845      -0.08028889      -0.04009248
C        4.98170231       9.87986513       3.68282380      -0.12104589      -0.00855769      -0.00219540
Ti       2.16345382       5.15033101       5.95604204       0.03253309       0.10153893       0.18625058
O        1.39025905       4.15248527       7.02067226      -0.04124892       0.00849345      -0.40607441
O        3.00126661       6.49399345       6.90229056       0.08283813      -0.02948563      -0.10481722
H        3.45932876       7.30548252       6.63601705      -0.00718670      -0.03583584       0.13579052
