52
Lattice="12.336457 0.0 0.0 -6.168228499999997 10.683685154694365 0.0 0.0 0.0 15.0" Properties=species:S:1:pos:R:3:forces:R:3 energy=-447.8940340520263 free_energy=-447.8940340520263 stress="-0.004310019875916963 0.0009272491904361919 -4.309294732167612e-06 0.0009272491904361919 -0.006668424099060875 2.702175747052159e-05 -4.309294732167612e-06 2.702175747052159e-05 -1.2367116796728507e-05" pbc="T T T"
C        0.09260896       0.01326727       3.85595492       0.00233919      -0.00776255       0.00464459
C       -1.14437151       2.14707752       3.63510591       0.00062957      -0.00332987      -0.00477324
C       -2.39725814       4.28823966       3.70678418      -0.00249286       0.00265490       0.00041258
C       -3.61784834       6.42276679       3.88672261      -0.00022985      -0.00310003       0.00735750
C       -4.84588371       8.55396940       3.96371451       0.00066237       0.00060853      -0.00244214
C        2.55863993      -0.00377506       3.88482562       0.00051729       0.00334459       0.00521640
C        1.34163237       2.06479534       3.45094573       0.00093524      -0.00505494      -0.00430805
C       -0.05959104       4.29570970       3.06120000      -0.00848506       0.00745893      -0.00700273
C       -1.19172138       6.44537210       3.45036763       0.00024955       0.00567231      -0.00274036
C       -2.37165985       8.55471347       3.80739323      -0.00175674       0.00067822       0.00053827
C        5.02511076       0.01431203       3.90945338      -0.00170270       0.00021471      -0.00837228
C        3.79038563       2.15089729       3.95024844       0.00200777       0.00213669       0.00664114
S        1.45435167       6.45313075       2.55991943      -0.00821781      -0.00296906       0.00623109
C        0.08425017       8.57809622       3.61273402       0.00579000      -0.00211098       0.00302824
C        7.48870406       0.02850723       3.90431125       0.00270180      -0.00268877       0.00234971
C        6.26663962       2.14409383       4.04190858       0.00005630      -0.00047452      -0.00494176
C        5.04210482       4.25985573       4.13860353      -0.00069068       0.00589879       0.00752222
B        3.74616052       6.42225097       4.06874928       0.00321076       0.00509844      -0.00393369
C        2.54941725       8.60357227       3.78472965       0.00228011       0.00068920       0.00171672
C        9.96748007       0.03122278       3.91102530       0.00268140      -0.00329149      -0.00416001
C        8.73082187       2.15699166       3.92219810       0.00091623       0.00079470       0.00218443
C        7.50100909       4.28461247       4.02912140      -0.00364102      -0.00384809      -0.00605668
C        6.26455554       6.42195843       4.07518388       0.00065063       0.00413675       0.00153072
C        5.02370974       8.56633926       3.98797810      -0.00493949      -0.00394201       0.00216346
C        0.08890351       1.42820710       3.64523272       0.00247960      -0.00455772       0.00989303
C       -1.19238604       3.55679765       3.46755863      -0.00496496       0.00107915      -0.00745850
C       -2.39877467       5.71541324       3.69575768      -0.00010937       0.00193327      -0.00531544
C       -3.61257724       7.84494861       3.89317783      -0.00093876      -0.00107758       0.00261313
C       -4.84518479       9.97743217       3.90616945       0.00354805      -0.00117709      -0.00389170
C        2.56268331       1.41900287       3.78214577       0.00275057       0.00142499       0.00118209
S        1.38252553       3.48881871       2.41894224       0.00540051       0.00983827       0.00533434
C       -0.05578760       5.69938916       3.06052055       0.00198249       0.00795082      -0.00031540
C       -1.15117696       7.85781770       3.60305507       0.00196564       0.00139640       0.00172372
C       -2.37288470       9.97752916       3.88695299      -0.00294610       0.00136264      -0.00307539
C        5.02837890       1.43357093       3.99126878       0.00037580      -0.00011429       0.00123076
C        3.82575648       3.53878817       4.10307879       0.00196711       0.00403402      -0.00758869
C        1.33819385       7.94904556       3.44451255       0.00591521      -0.00050005       0.00187370
C        0.08938550       9.99446204       3.83192983       0.00088050      -0.00209635       0.00398994
C        7.49954595       1.44462877       3.97979705       0.00146121      -0.00115101      -0.00443590
C        6.28186136       3.55863233       4.10102883      -0.00427818      -0.00024776      -0.00506795
C        5.04891324       5.68296082       4.12211546      -0.00068116       0.00765955       0.00039390
C        3.77179427       7.88704669       3.93430314      -0.00389284      -0.00044982       0.00054525
C        2.55495157      10.02087050       3.89162040       0.00359601      -0.00155585       0.00284426
C        9.97155207       1.45131280       3.84194243       0.00019725      -0.00245124      -0.00793196
C        8.72575352       3.57672004       3.90954333      -0.00136994       0.00079924      -0.00367143
C        7.49816877       5.70961789       4.01686704      -0.00131191      -0.00353305      -0.00011684
C        6.25561178       7.84554695       4.02284782      -0.00180808       0.00264035       0.00094689
C        5.02835312       9.99563379       3.92993971       0.00081392      -0.00747661      -0.00221351
Ti       2.21634003       4.82048899       4.22192764      -0.00480342      -0.00170933       0.00869735
O        1.41912577       4.58236511       5.71147943      -0.00332532      -0.00211895      -0.00845808
O        0.59920272       4.42636285       6.83583921       0.00043513      -0.01152437       0.01430929
H        1.19485581       4.68789704       7.57149929       0.00318905       0.00080793       0.00115699
