52
Lattice="12.336457 0.0 0.0 -6.168228499999997 10.683685154694365 0.0 0.0 0.0 15.0" Properties=species:S:1:pos:R:3:forces:R:3 energy=-449.39702056315315 free_energy=-449.39702056315315 stress="-0.0038518616553051346 0.0002476794682104746 1.076611558453588e-05 0.0002476794682104746 -0.002677262034707319 2.4292274729400308e-05 1.076611558453588e-05 2.4292274729400308e-05 9.556214745446024e-06" pbc="T T T"
C       -0.07721679      -0.01210472       3.58914868       0.00646272       0.00394475      -0.00092960
C       -1.32856437       2.11520342       3.77919928       0.00393543       0.01329043       0.00204015
C       -2.56776606       4.26603253       3.66009990       0.00248326       0.00018919      -0.00863064
C       -3.78019455       6.40742338       3.49483994       0.00099872      -0.00579398       0.00016660
C       -5.00610672       8.54774271       3.46165344      -0.00206253       0.00118034       0.00607797
C        2.39985683       0.00980059       3.60864458      -0.00279205       0.00552984       0.01412007
C        1.14569803       2.04251786       4.15676575      -0.00148285      -0.00752607       0.00028800
C       -0.25503336       4.25793720       4.40645821       0.00125501       0.00175996       0.00813038
C       -1.36098051       6.41707713       3.92054726       0.00080878      -0.01090148      -0.00558955
C       -2.54210010       8.54423373       3.58472211      -0.00675095      -0.00403834       0.00588166
C        4.85521117      -0.00268178       3.57563432      -0.00760702      -0.00042009      -0.00055758
C        3.66105399       2.09664377       3.82734561       0.00180077       0.00074868      -0.00438526
P        1.22007121       6.43272007       4.98008195       0.00079156       0.00067544      -0.00204971
C       -0.08926773       8.56115968       3.83843564      -0.00011113      -0.00162120       0.01136687
C        7.32553938      -0.00870732       3.54911021       0.00185697      -0.00733794       0.00326323
C        6.09941605       2.12404893       3.50594278       0.00213751       0.00590261      -0.00110706
C        4.92690560       4.25080578       3.76343493      -0.00483445       0.00008638      -0.00900076
C        3.70224291       6.42584970       4.04144406      -0.00708365       0.00238057       0.01029061
C        2.40094423       8.56501731       3.83195715       0.00899095      -0.01148049       0.00560031
C        9.79439648      -0.01022228       3.53712337      -0.00395634       0.00593804       0.01136068
C        8.56009954       2.12783920       3.48631984      -0.00235428       0.00554013       0.00129901
C        7.32634860       4.26977327       3.45115823       0.00814748      -0.00218346       0.00273341
C        6.09963148       6.40371424       3.49736174       0.00252486      -0.00543303       0.00856829
C        4.85860761       8.53403602       3.57798479       0.00168424       0.00814532      -0.00291584
C       -0.08322416       1.39870975       3.82766493      -0.00045462       0.00332449       0.00283695
C       -1.37480811       3.53279039       3.92772360       0.00445423       0.01156895      -0.00439750
C       -2.56600502       5.69478808       3.66464151       0.00001776      -0.00749101      -0.00797937
C       -3.77566274       7.83364353       3.49207650      -0.00593571      -0.00304132      -0.00201324
C       -5.00421333       9.97343778       3.53608529       0.00244773       0.00444261       0.00199731
C        2.41324424       1.42861285       3.85572338       0.00092819       0.00766366      -0.01400778
P        1.03083600       3.41060070       5.26273745      -0.00457021      -0.01206121      -0.00466962
C       -0.23367455       5.67394779       4.36204129      -0.00007708      -0.00211890       0.00951817
C       -1.32451454       7.83863336       3.79019413      -0.00204560      -0.00991454      -0.00484043
C       -2.54411795       9.97580462       3.56682600      -0.00960749      -0.00013218       0.01341215
C        4.85694001       1.42846423       3.59842751       0.00094933       0.00195481      -0.00975217
O        3.73099794       3.50294437       4.02134435       0.00134554      -0.00260641       0.00521917
C        1.15829375       7.93215674       4.10863782       0.00339562       0.00223556       0.01222644
C       -0.08016230       9.97157164       3.62212773      -0.00333544      -0.00209011      -0.01039647
C        7.32162322       1.41731543       3.47296864      -0.00053747      -0.00018416      -0.00787944
C        6.09931318       3.54440848       3.51303217       0.00425859       0.00622778       0.00228696
C        4.87398311       5.67939740       3.75069480      -0.00765150      -0.00198871      -0.00260316
C        3.63402386       7.81476852       3.81254158       0.00494441      -0.00187248      -0.01469668
C        2.39439250       9.96774995       3.59560714       0.00207625      -0.01264662       0.00031263
C        9.79322607       1.41340547       3.56126886       0.00029355       0.00997422       0.00360984
C        8.55356894       3.55409732       3.49063643       0.00332191       0.00077355      -0.00098820
C        7.32002826       5.69221641       3.44786929       0.00815752      -0.00537449      -0.01011228
C        6.09448244       7.82806531       3.48806338      -0.00058277      -0.00113026      -0.00918348
C        4.85874311       9.95700790       3.54071287       0.00277861       0.01007128       0.00863927
Ti       3.06766345       4.93116581       5.33947118      -0.00702121       0.01072896      -0.00864427
O        3.92118338       5.10897573       6.80867609      -0.00569874       0.01716460      -0.00616608
O        4.47249046       5.33639297       8.07052595       0.00217069      -0.01171436       0.00098461
H        5.31803064       4.84074720       8.03976986       0.00113488      -0.01033929       0.00126540
