52
Lattice="12.336457 0.0 0.0 -6.168228499999997 10.683685154694365 0.0 0.0 0.0 15.0" Properties=species:S:1:pos:R:3:initial_magmoms:R:1:forces:R:3 energy=-462.11409991809234 free_energy=-462.11409991809234 stress="-0.003957438698071388 0.0029473979011330666 -1.747964294473814e-05 0.0029473979011330666 -0.0058559506940121485 1.4146546186414721e-05 -1.747964294473814e-05 1.4146546186414721e-05 2.730596515761419e-06" pbc="T T T"
C       -0.03718963      -0.02073140       3.72463686       0.00000000       0.00163699       0.00180507      -0.00535701
C       -1.25417792       2.12906729       3.84181936       0.00000000       0.00249745      -0.00433852       0.00374187
C       -2.48259991       4.25855831       3.84698892       0.00000000      -0.00347349      -0.00095287       0.00297938
C       -3.73336294       6.38691145       3.73553713       0.00000000      -0.00255834       0.00101638      -0.00378065
C       -4.98409533       8.51705289       3.64292014       0.00000000       0.00018414       0.00317646       0.00079021
C        2.42229816      -0.03592201       3.70778112       0.00000000       0.00170987      -0.00322326       0.00761140
C        1.20373748       2.10670449       3.85423289       0.00000000       0.00163959      -0.00147218       0.00448998
C       -0.00784460       4.28537721       3.99718728       0.00000000      -0.00044309       0.00132578       0.00145270
C       -1.27160108       6.40549088       3.85195194       0.00000000      -0.00048765      -0.00298055       0.00232836
C       -2.51809535       8.52307664       3.70739518       0.00000000      -0.00148868      -0.00023710      -0.00065916
C        4.89329805      -0.03007053       3.67670714       0.00000000       0.00113802       0.00144858      -0.00148474
C        3.67276226       2.07145264       3.72290483       0.00000000      -0.00258523      -0.00016196       0.00311226
C        2.48228303       4.14551689       4.04419184       0.00000000       0.00460416       0.00562227      -0.00240660
N        1.10705774       6.50159193       4.10830682       0.00000000       0.00677811       0.00184949       0.00118054
C       -0.06732752       8.53653349       3.70592896       0.00000000      -0.00325860      -0.00310337       0.00577708
C        7.36262342      -0.01671243       3.69371539       0.00000000      -0.00065401       0.00494963       0.00257088
C        6.14647643       2.09831965       3.70516461       0.00000000      -0.00029846      -0.00158155       0.00080873
C        4.92303648       4.20773572       3.61899505       0.00000000       0.00060706      -0.00132039       0.00033487
S        3.69668911       6.37080843       2.32895185       0.00000000      -0.00429562      -0.00045463      -0.00178082
C        2.39742543       8.53662828       3.59213235       0.00000000      -0.00192179       0.00228707       0.00007448
C        9.83524153      -0.01149473       3.69845826       0.00000000      -0.00282604       0.00043450       0.00368531
C        8.61413082       2.11827067       3.76983472       0.00000000       0.00345609       0.00341716       0.00095241
C        7.38709213       4.24382236       3.71737631       0.00000000      -0.00330498      -0.00485285       0.00323887
C        6.14663044       6.38433367       3.54403984       0.00000000       0.00057544      -0.00300312       0.00093045
C        4.89506252       8.53087132       3.50980312       0.00000000       0.00260454       0.00425932       0.00526584
C       -0.02982730       1.40523806       3.81551795       0.00000000       0.00369418      -0.00081028      -0.00653300
C       -1.24053695       3.56116569       3.90427575       0.00000000      -0.00287196      -0.00396039      -0.00013822
C       -2.49527494       5.68021963       3.81943545       0.00000000      -0.00320677      -0.00036233       0.00117890
C       -3.74891903       7.80715097       3.69640450       0.00000000      -0.00257983       0.00287310      -0.00497940
C       -4.98102285       9.94219930       3.68999518       0.00000000       0.00090648       0.00209760       0.00471265
C        2.42893288       1.38339186       3.76175739       0.00000000      -0.00064325      -0.00264405      -0.00419116
C        1.23262806       3.54601354       3.98189172       0.00000000       0.00291232       0.00238091      -0.00240220
C       -0.02551496       5.73200140       4.00158664       0.00000000       0.00483932       0.00306717       0.00063040
C       -1.28831752       7.81809642       3.75425422       0.00000000      -0.00429930      -0.00445336       0.00618384
C       -2.51214355       9.94436653       3.68572271       0.00000000       0.00210487      -0.00123850      -0.00283200
C        4.90748349       1.38420191       3.68653928       0.00000000      -0.00162001       0.00180633      -0.00041584
C        3.67733795       3.49730824       3.77256488       0.00000000       0.00252108      -0.00044971       0.00052978
C        1.14532389       7.82896063       3.76915878       0.00000000      -0.00101449       0.00129806       0.00013798
C       -0.04277225       9.95575237       3.67524586       0.00000000       0.00060870      -0.00039702      -0.00514371
C        7.37710986       1.40143511       3.72377997       0.00000000       0.00270279       0.00652615       0.00584902
C        6.15984987       3.51834223       3.68424269       0.00000000      -0.00110128      -0.00418307      -0.00791947
C        4.94395728       5.62104063       3.37574624       0.00000000      -0.00528375       0.00063594       0.00253608
C        3.63961274       7.86807744       3.31659418       0.00000000      -0.00010342       0.00414744      -0.00229164
C        2.42455446       9.96228630       3.66342404       0.00000000      -0.00355281       0.00153393       0.00517325
C        9.84809346       1.41337925       3.77859933       0.00000000       0.00109208      -0.00023655      -0.00696639
C        8.62142853       3.54105302       3.78661062       0.00000000      -0.00166022      -0.00061031      -0.00669391
C        7.37404081       5.67133402       3.68206902       0.00000000      -0.00023630      -0.00592582       0.00011745
C        6.11840760       7.80332732       3.54163456       0.00000000       0.00411317      -0.00092123      -0.00106820
C        4.89666673       9.95278269       3.65873323       0.00000000       0.00012082       0.00498774      -0.00021202
Ti       3.03269449       6.05264215       4.75672125       0.00000000      -0.00966549       0.00145278      -0.01501724
O        3.42376076       5.61898990       6.49351937       1.00000000       0.00516060      -0.01187376      -0.00245099
O        3.64570728       7.04604609       6.16482826       1.00000000       0.00722701       0.00134987       0.00634943
