52
Lattice="12.336457 0.0 0.0 -6.168228499999997 10.683685154694365 0.0 0.0 0.0 15.0" Properties=species:S:1:pos:R:3:forces:R:3 energy=-449.28141757893866 free_energy=-449.28141757893866 stress="-0.00448893875477617 -0.0007126674140865427 2.864776821310311e-05 -0.0007126674140865427 -0.0023249042038979693 -5.024824034478975e-05 2.864776821310311e-05 -5.024824034478975e-05 1.576408747707722e-05" pbc="T T T"
C        0.00562551      -0.07038642       3.64995196      -0.00639346      -0.00236587       0.00809467
C       -1.24277926       2.05799257       3.78060219      -0.00817289      -0.00586854       0.00559722
C       -2.48004558       4.19909062       3.49151921       0.00436104      -0.00057052       0.00895239
C       -3.69727571       6.34173342       3.29813069       0.00517666       0.00098419      -0.00734622
C       -4.93043945       8.48659636       3.38552689       0.00148677      -0.00401804      -0.00697581
C        2.47497398      -0.08428557       3.68376041       0.00028513      -0.00420627       0.00209848
C        1.22167154       1.96081173       4.26823174       0.00348796       0.00829370      -0.00797272
C       -0.14639990       4.25693693       4.13661736       0.00638915       0.00283196      -0.01229135
C       -1.26101070       6.35136238       3.53527729      -0.00894022       0.00237945       0.00785272
C       -2.46167005       8.48415536       3.39639847      -0.00038010      -0.00956391       0.00284832
C        4.94869274      -0.08554097       3.62489843      -0.00040805       0.00029615       0.00230690
C        3.73503934       1.94688695       4.23147002       0.00554290       0.00596000       0.00960074
C        1.10392024       6.38633398       4.20147774      -0.00481106       0.00190136       0.00476949
C        0.01043897       8.46439680       3.60650986       0.00470038      -0.00077023      -0.00079070
C        7.41720651      -0.08976618       3.61059843       0.00093418       0.00109024       0.00492452
C        6.18167308       2.06295679       3.71791828       0.00198681      -0.00737905      -0.00771672
C        5.03836057       4.28614113       3.99600140      -0.00719520      -0.00554080      -0.00492731
O        3.89628352       6.43049805       4.18704191       0.00012856       0.00719322       0.01554090
C        2.50034956       8.44088102       3.81001677      -0.00372873       0.01864231       0.00021493
C        9.87172529      -0.08485695       3.62160119       0.00833185      -0.00630583      -0.01327025
C        8.63952307       2.05741782       3.53822901      -0.00305074      -0.00695645      -0.01025791
C        7.40665719       4.20224152       3.43183676      -0.00475106       0.00613490       0.00021901
C        6.18976522       6.36146817       3.43647596       0.00490873       0.00224782      -0.01430971
C        4.95141030       8.47921027       3.57091993      -0.00112713      -0.00974484      -0.00002294
C       -0.00623751       1.33815158       3.89822415      -0.00528149      -0.00219572       0.01122738
C       -1.27660651       3.48774487       3.77957763       0.00497434      -0.00433374       0.00708887
C       -2.47261382       5.62578956       3.40089760      -0.00079480       0.00102116       0.00140834
C       -3.69297624       7.77136427       3.32419081       0.00175621      -0.01014013      -0.00114855
C       -4.92733496       9.90639341       3.55265502      -0.00344383      -0.00641628      -0.00056609
C        2.47480690       1.28922828       4.07184726       0.00357288       0.00139732       0.00304987
P        1.14451224       3.53149244       5.06755563       0.00507457       0.00139039      -0.01676796
C       -0.07533264       5.66669067       3.93954087      -0.00880157       0.00509601      -0.00158519
C       -1.23214826       7.76947135       3.47206311       0.00032873      -0.00026694       0.00708158
C       -2.45897669       9.89951241       3.54302579       0.00198528      -0.00614322       0.00124552
C        4.95794609       1.32536143       3.84810309      -0.00162983       0.00562001      -0.00380229
P        3.85370029       3.49639406       5.04846964       0.00847281       0.01124979       0.00987432
C        1.22627808       7.73469616       3.87198979       0.00591661       0.00181912      -0.00076741
C        0.01371418       9.88395332       3.58428095       0.00076019       0.00106763      -0.00388257
C        7.40779644       1.34263552       3.59239478       0.00056662      -0.00995231      -0.00730346
C        6.19690055       3.49717412       3.68141367      -0.00265819      -0.01050386      -0.00116721
C        5.04529625       5.67611409       3.82391839       0.00863921      -0.00398262      -0.00701561
C        3.76209516       7.80359585       3.84068762      -0.00603252       0.00629318       0.00659783
C        2.48204047       9.87300022       3.65182363       0.00538866       0.01477068       0.00827245
C        9.87298640       1.34754302       3.61982199      -0.00487370      -0.00810245      -0.00287940
C        8.63656520       3.48290974       3.44418448      -0.00029798       0.00248942       0.00184457
C        7.41228370       5.62462556       3.34017280       0.00338157       0.01016607       0.00746283
C        6.18610017       7.78177741       3.42688367       0.00175176       0.00080610      -0.00065118
C        4.94044151       9.90486435       3.58724418       0.00011246      -0.01122349       0.00134589
Ti       2.54936968       5.52489180       5.45115812      -0.00101963       0.00436582      -0.00324673
O        2.47576313       6.20903533       7.01176258      -0.00597889       0.00656792       0.00566013
O        2.41861047       6.82938171       8.26110086      -0.00605321      -0.01068916       0.00079581
H        2.83421392       6.16870952       8.85451182      -0.00457775       0.01516434      -0.00931039
