51
Lattice="12.336457 0.0 0.0 -6.168228499999997 10.683685154694365 0.0 0.0 0.0 15.0" Properties=species:S:1:pos:R:3:initial_magmoms:R:1:forces:R:3 energy=-456.2902157101663 free_energy=-456.2902157101663 stress="-0.007902430243766079 1.0006897494291563e-05 -1.3926095134986084e-05 1.0006897494291563e-05 -0.0024327955447096547 1.2232025655029983e-05 -1.3926095134986084e-05 1.2232025655029983e-05 9.333613785483736e-06" pbc="T T T"
C       -0.00032220       0.00135138       3.64458423       0.00000000       0.01001336       0.00056179       0.00660034
C       -1.24623524       2.11987842       3.61502254       0.00000000      -0.00348497      -0.00233532       0.00069394
C       -2.47943790       4.26479810       3.53534746       0.00000000       0.00358784       0.00252094      -0.01540026
C       -3.70068106       6.41247671       3.50795247       0.00000000      -0.00142631      -0.00044037       0.00442037
C       -4.92633050       8.55999766       3.57858642       0.00000000      -0.00924797      -0.00927201       0.00399098
C        2.46861828       0.01676009       3.67767381       0.00000000      -0.00322475       0.00397695      -0.01391785
C        1.22274006       2.15234129       3.82690509       0.00000000      -0.00736198      -0.00313450      -0.00171526
C       -0.04367040       4.25484820       3.80648338       0.00000000       0.00464576      -0.00256477       0.00274059
C       -1.26274758       6.41719297       3.62417387       0.00000000      -0.00526990      -0.00141795       0.00562226
C       -2.47347404       8.55842070       3.57649380       0.00000000       0.00487757       0.01016291      -0.00027864
C        4.93625425      -0.00025772       3.64845720       0.00000000       0.00261277       0.01108801       0.00362385
C        3.71519740       2.15165697       3.84443636       0.00000000       0.00131069      -0.00594344      -0.00370608
C        1.14592852       6.41869457       3.99086639       0.00000000      -0.00372063       0.00161897       0.00365743
C       -0.00826033       8.54028667       3.69314266       0.00000000       0.00178483       0.00197929      -0.00703238
C        7.40600262      -0.02202165       3.62814477       0.00000000      -0.00388815      -0.00004320       0.00482531
C        6.18235378       2.11884996       3.62766561       0.00000000       0.00450017       0.00560736       0.00673107
C        4.98136513       4.25434663       3.84123652       0.00000000      -0.00175870      -0.00036919      -0.00267477
C        3.79244929       6.42054256       4.02165806       0.00000000       0.00393003       0.00131459      -0.00251196
C        2.46922272       8.52613531       3.80664132       0.00000000      -0.00312462       0.00235480      -0.00281735
C        9.86675673      -0.02068234       3.62840254       0.00000000       0.00581030      -0.01191751       0.00616254
C        8.63568802       2.11843508       3.53832467       0.00000000       0.00397463       0.00128571      -0.00329479
C        7.41429641       4.26486203       3.54346747       0.00000000      -0.00618287      -0.00087275       0.00133575
C        6.19911360       6.41763733       3.64382173       0.00000000       0.00340380      -0.00250649       0.00851960
C        4.94586676       8.54155091       3.70543911       0.00000000      -0.00810778       0.00025263      -0.01196467
C       -0.00815709       1.42027126       3.68582366       0.00000000      -0.00449320       0.00161744       0.00147671
C       -1.26327833       3.54346860       3.62335438       0.00000000       0.00257494      -0.00026463       0.00184751
C       -2.47899118       5.69571677       3.53400028       0.00000000      -0.00324756      -0.00126043      -0.00397225
C       -3.70025329       7.84179422       3.53890984       0.00000000       0.00012527       0.00408636       0.00151851
C       -4.93051110       9.98272154       3.62955334       0.00000000       0.00099040      -0.00626396       0.00399918
C        2.46905753       1.43470633       3.80184352       0.00000000      -0.00631317      -0.00081186       0.00209412
C        1.14571944       3.54195412       3.98539927       0.00000000       0.00506865      -0.00179173       0.01388921
C       -0.04318048       5.70605601       3.80791074       0.00000000      -0.00381042      -0.00102505       0.00477086
C       -1.24620213       7.84071238       3.61953907       0.00000000       0.00251874       0.00072462       0.00038274
C       -2.46953449       9.98089441       3.63224144       0.00000000       0.00221202       0.01305189      -0.00369113
C        4.94465795       1.41895659       3.69749834       0.00000000       0.00858832       0.00442091       0.01041433
C        3.79271133       3.53977597       4.02124643       0.00000000       0.00318913      -0.00651489      -0.01086814
C        1.22270157       7.80853742       3.83440102       0.00000000      -0.00063055       0.00341404      -0.00950297
C        0.00015922       9.95907397       3.64763951       0.00000000      -0.00377160       0.00237198      -0.00540880
C        7.40921629       1.40071164       3.57684502       0.00000000       0.00277237       0.00318358       0.00141407
C        6.19936029       3.54298668       3.64499237       0.00000000      -0.00623286       0.00274678      -0.00319315
C        4.98113394       5.70625163       3.84122440       0.00000000       0.00367062       0.00046828      -0.00586650
C        3.71581401       7.80925481       3.85027456       0.00000000      -0.00658261       0.00358000      -0.01033067
C        2.46860317       9.94352898       3.67451742       0.00000000      -0.00312095      -0.00266598       0.00906094
C        9.86287576       1.40193919       3.57259726       0.00000000       0.00046708      -0.01190316       0.00225245
C        8.63552581       3.54782360       3.50934261       0.00000000      -0.00075262       0.00515534       0.00328696
C        7.41407905       5.69588511       3.54181215       0.00000000       0.00216515      -0.00457784       0.00927142
C        6.18344549       7.84179524       3.63097465       0.00000000      -0.01123173      -0.00684221       0.00608910
C        4.93603907       9.96041619       3.65058314       0.00000000       0.01259243      -0.00254392      -0.00856554
Ti       2.46035138       4.97991823       4.72104438       0.00000000       0.00117437       0.00734109      -0.00445659
O        2.39517200       5.01339292       7.76094286       1.00000000       0.00231405      -0.00653669      -0.00661425
O        2.42576865       4.99295768       6.43496374       1.00000000       0.00611059      -0.00106643       0.00709185
