53
Lattice="12.336457 0.0 0.0 -6.168228499999997 10.683685154694365 0.0 0.0 0.0 15.0" Properties=species:S:1:pos:R:3:forces:R:3 energy=-468.3794290248354 free_energy=-468.3794290248354 stress="-0.0024740545381691857 0.0019469411903051616 1.2135108337176493e-05 0.0019469411903051616 -0.00478187468580884 -1.3324143203214694e-05 1.2135108337176493e-05 -1.3324143203214694e-05 -1.709541280047751e-05" pbc="T T T"
C        0.05526585       0.03706797       3.67112154      -0.00154277       0.00191530      -0.00166348
C       -1.16619832       2.18175344       3.80348633      -0.00280191      -0.00609417      -0.00596282
C       -2.39711629       4.31328286       3.80540505      -0.00283050       0.00412623       0.00254226
C       -3.64364675       6.44392042       3.67474518      -0.00487262      -0.00212322       0.00296887
C       -4.89804472       8.57115982       3.57375956      -0.00167687      -0.00328831      -0.00402226
C        2.51649435       0.02375343       3.71484688      -0.00435026       0.00220558      -0.00470704
C        1.29488925       2.15972752       3.84994710      -0.00176947       0.00136497       0.00259715
C        0.06952236       4.31671784       4.00203158      -0.00538937      -0.00396672       0.01463182
C       -1.18810578       6.45655619       3.87655507       0.00668000      -0.00345656      -0.00851880
C       -2.42570881       8.58210512       3.72764665       0.00878258      -0.00552392       0.00017027
C        4.98709401       0.03246985       3.76892836      -0.00203197       0.00098651      -0.00465523
C        3.76199226       2.15524637       3.81044637       0.00146911       0.00016625      -0.00480496
C        2.56534634       4.21495173       4.17950765      -0.00076587      -0.01443079      -0.00262997
C        1.22539219       6.52617818       4.21820354       0.01017773      -0.00038755       0.00943906
C        0.04313623       8.59398918       3.84768514       0.00078756       0.00520391      -0.00968787
C        7.45706208       0.04595259       3.80268015       0.00811551      -0.00667636      -0.00583632
C        6.23400367       2.16492911       3.78227312       0.00381315       0.00697214      -0.00965720
C        5.00942918       4.28652264       3.66598823      -0.00279038       0.00605866       0.00590157
S        3.59932004       6.36170288       2.69387275       0.00490093       0.00420694      -0.00457566
C        2.51383068       8.60675001       3.70876669      -0.00174408      -0.00088346      -0.00153188
C        9.93050936       0.04817452       3.70833415       0.00013398       0.00590967       0.00503879
C        8.70286165       2.17779589       3.78384386       0.00131774       0.00112103      -0.01213270
C        7.47351174       4.30594912       3.68994462       0.00073270      -0.00453643       0.00899495
C        6.22524995       6.43436648       3.45133791       0.00167067      -0.00810425      -0.00155065
C        4.98066880       8.58728382       3.46570222      -0.00509859       0.00999338      -0.00461322
C        0.06253577       1.46172509       3.77470148       0.00007139      -0.00094420       0.00097922
C       -1.16049905       3.60631547       3.86829636      -0.00443157      -0.00427375      -0.00206191
C       -2.40727073       5.73774258       3.78719076      -0.00102201       0.00257186      -0.01172658
C       -3.65568033       7.86581655       3.64986227       0.00478536      -0.00267636       0.00484039
C       -4.88734750      10.00007269       3.64446357      -0.00382679      -0.00262350       0.00287106
C        2.52210694       1.44558720       3.79391239      -0.00175111       0.00369165       0.00066168
C        1.31575483       3.59161001       4.02010735      -0.00243863      -0.00254453       0.00589931
C        0.06239706       5.75818052       4.04301780       0.00462838      -0.00252379       0.00505321
C       -1.19240310       7.87634523       3.82327732       0.01087973      -0.00405230      -0.00543890
C       -2.41779996      10.00290743       3.72908428      -0.00392972      -0.00248636       0.00361230
C        4.99569062       1.45208575       3.77673763       0.00270534       0.00389079       0.00793625
C        3.76325363       3.58271029       3.86959510       0.00092181      -0.00162168      -0.00139321
C        1.27976139       7.88041972       3.91371086      -0.00424481       0.00193626      -0.00489965
C        0.05224276      10.01356334       3.79948887       0.00090162       0.00281977      -0.00156198
C        7.46581752       1.46366338       3.79436410       0.00423726      -0.00375312      -0.00728643
C        6.24420084       3.58580927       3.71987466      -0.00308318       0.00780057       0.00048739
C        5.04031592       5.66659696       3.34479095      -0.00159694       0.00074593       0.00251539
C        3.72179677       7.94478700       3.37196361       0.00019968       0.00386429       0.00241373
C        2.52444037      10.02687641       3.75234583       0.00791720      -0.00243506      -0.00681359
C        9.93709245       1.47141155       3.76742317      -0.00256138       0.00173692       0.00545436
C        8.70845684       3.59989250       3.76048143      -0.00052813       0.00140044       0.00712215
C        7.46516522       5.72752784       3.60719134      -0.00087793      -0.00933104       0.00201064
C        6.20620021       7.85954965       3.45527866      -0.00790590      -0.00295899      -0.00369521
C        4.98895650      10.01447637       3.61746621      -0.00362977       0.01093664       0.01622528
Ti       2.49729555       5.68753710       5.71675388      -0.00139630      -0.00596951       0.00305445
O        3.92003367       6.47525903       6.09898037       0.00134800       0.00750241       0.00840710
O        1.54652843       5.06539823       7.19248764       0.00285349       0.00216263      -0.00355308
H        1.90133028       4.78519046       8.05122737      -0.00914210       0.00637520       0.00315193
