52
Lattice="12.336457 0.0 0.0 -6.168228499999997 10.683685154694365 0.0 0.0 0.0 15.0" Properties=species:S:1:pos:R:3:initial_magmoms:R:1:forces:R:3 energy=-462.3837720748984 free_energy=-462.3837720748984 stress="-0.005957352890588429 0.001761018140929412 -3.5691106843972776e-06 0.001761018140929412 -0.008234765851338243 -4.1030711279620624e-07 -3.5691106843972776e-06 -4.1030711279620624e-07 -1.3487699206538617e-05" pbc="T T T"
C       -0.04420717      -0.02073267       3.71316861       0.00000000      -0.00321592      -0.00271505       0.00333578
C       -1.27195623       2.11916288       3.83033557       0.00000000       0.00166836      -0.00447526       0.00194506
C       -2.50486952       4.25269121       3.85224909       0.00000000       0.00147228       0.00289855       0.00454657
C       -3.74421971       6.38550679       3.75033869       0.00000000      -0.00019867       0.00138495      -0.00361411
C       -4.97936650       8.52282494       3.65039760       0.00000000       0.00105148      -0.00024248      -0.00263533
C        2.41665508      -0.03738189       3.73832171       0.00000000      -0.00074607       0.00042402       0.00123666
C        1.19211935       2.09729289       3.85988383       0.00000000      -0.00084534       0.00046518      -0.00363648
C       -0.03899975       4.25382504       4.01142173       0.00000000       0.00197081       0.00072813      -0.00016148
C       -1.29048610       6.39691604       3.91769294       0.00000000      -0.00214413       0.00228744      -0.00413363
C       -2.52597679       8.52357367       3.76870393       0.00000000       0.00291474      -0.00685795      -0.00526421
C        4.88371496      -0.03018869       3.71586678       0.00000000       0.00155809       0.00403786       0.00025992
C        3.65875039       2.07234863       3.72483594       0.00000000      -0.00199295       0.00616459      -0.00311223
C        2.45651476       4.14911616       3.99906684       0.00000000       0.00143823      -0.00340627      -0.00108499
C        1.11991916       6.46816481       4.11022462       0.00000000      -0.00305966      -0.00054190      -0.00685264
C       -0.07482435       8.54199150       3.78091779       0.00000000       0.00150637       0.00116617       0.00016227
C        7.35095896      -0.01304801       3.70256189       0.00000000       0.00400896      -0.00236526       0.00087028
C        6.13111383       2.09957111       3.69176451       0.00000000       0.00245623       0.00412987      -0.00143405
C        4.90872665       4.20056760       3.57110278       0.00000000      -0.00320723      -0.00320885       0.00340131
P        3.65153385       6.38538660       2.37081593       0.00000000       0.00212985      -0.00203271      -0.00198907
C        2.39095466       8.55930040       3.59748123       0.00000000      -0.00478342       0.00351540       0.00082328
C        9.82697396      -0.00872690       3.67221713       0.00000000      -0.00078065      -0.00250918       0.00527347
C        8.59784897       2.11696188       3.74895491       0.00000000      -0.00103583      -0.00152047       0.00419538
C        7.37111121       4.24424429       3.68945896       0.00000000      -0.00234128       0.00265772      -0.00128491
C        6.15152005       6.39147441       3.50155050       0.00000000       0.00228008      -0.00296470       0.00009107
C        4.90665113       8.54642278       3.48179718       0.00000000      -0.00088737       0.00037531      -0.00095056
C       -0.04153730       1.40004863       3.81072638       0.00000000       0.00058484      -0.00379055      -0.00167041
C       -1.26875599       3.54364516       3.90901027       0.00000000       0.00414367      -0.00111572      -0.00035991
C       -2.51229190       5.67754944       3.85199615       0.00000000      -0.00136780       0.00442766      -0.00162557
C       -3.75213098       7.80945715       3.72849102       0.00000000       0.00005750      -0.00190577      -0.00215592
C       -4.98337565       9.94291863       3.70294014       0.00000000      -0.00223867       0.00032527       0.00109643
C        2.42031959       1.38111232       3.77757598       0.00000000      -0.00090533       0.00407588      -0.00168254
C        1.20808139       3.52959107       3.97419644       0.00000000       0.00203416      -0.00118759       0.00066128
C       -0.04224797       5.69594950       4.03416449       0.00000000      -0.00502167       0.00164354       0.00125012
C       -1.29545958       7.81811083       3.83320935       0.00000000       0.00408844      -0.00150665      -0.00513818
C       -2.51912080       9.94210373       3.73509859       0.00000000       0.00100267      -0.00427877      -0.00232420
C        4.89335086       1.38355390       3.69584520       0.00000000       0.00029339       0.00809235       0.00298231
C        3.66198426       3.49726034       3.74163973       0.00000000       0.00022871      -0.00009430       0.00441780
C        1.16165654       7.83264355       3.81446644       0.00000000      -0.00255536       0.00277534       0.00432438
C       -0.05499264       9.95517893       3.72027947       0.00000000       0.00314912       0.00118903       0.00263844
C        7.36153699       1.40204892       3.71430183       0.00000000       0.00072538      -0.00222920       0.00172621
C        6.14142987       3.51791183       3.64621731       0.00000000      -0.00238883       0.00319055      -0.00309771
C        4.92273526       5.63518559       3.36823312       0.00000000      -0.00069776      -0.00575954       0.00565302
C        3.63886001       7.86273263       3.36316910       0.00000000      -0.00604351       0.00375939       0.00201550
C        2.41550279       9.97013942       3.65316627       0.00000000       0.00152793      -0.00043789      -0.00344257
C        9.83202076       1.40883682       3.75513518       0.00000000      -0.00061133      -0.00356847       0.00321845
C        8.60090055       3.53995953       3.76897686       0.00000000      -0.00137673       0.00161807       0.00331269
C        7.36582992       5.67356928       3.65659998       0.00000000       0.00137482       0.00060859      -0.00035085
C        6.12597263       7.81283208       3.52090332       0.00000000       0.00208806      -0.00183011      -0.00688823
C        4.89381501       9.95758208       3.62834092       0.00000000      -0.00248874      -0.00178381       0.00406344
Ti       3.09868563       6.03731599       4.78966906       0.00000000       0.00391572       0.00234300      -0.01841033
O        3.84041071       5.60074129       6.43268271       1.00000000       0.00087388      -0.00265484       0.00065511
O        3.68939033       7.08141435       6.18764850       1.00000000       0.00039050       0.00069946       0.01914387
