52
Lattice="12.336457 0.0 0.0 -6.168228499999997 10.683685154694365 0.0 0.0 0.0 15.0" Properties=species:S:1:pos:R:3:initial_magmoms:R:1:forces:R:3 energy=-464.72213875848564 free_energy=-464.72213875848564 stress="-0.00294461129422838 0.00017959464565801502 -2.3635682309855875e-06 0.00017959464565801502 -0.0022785563623073813 -2.6710225393576063e-05 -2.3635682309855875e-06 -2.6710225393576063e-05 -1.643958909471798e-05" pbc="T T T"
C       -0.02496620      -0.02341387       3.58904495       0.00000000      -0.00077047      -0.00813968       0.00013295
C       -1.25531386       2.11549033       3.70544403       0.00000000      -0.00154267       0.00276244      -0.00653663
C       -2.48476942       4.24814168       3.70075678       0.00000000      -0.00442539      -0.01032032      -0.00714642
C       -3.72246903       6.38115352       3.58960426       0.00000000       0.00330700       0.01167151      -0.00904733
C       -4.96348634       8.51751223       3.53530604       0.00000000      -0.00137980       0.00348583       0.00709884
C        2.44225417      -0.03018595       3.54102825       0.00000000      -0.00031181      -0.00910794      -0.00481030
C        1.20519730       2.09487881       3.75333811       0.00000000       0.00103225       0.01102037      -0.00028238
C       -0.02040743       4.26448991       3.97036946       0.00000000       0.00271606       0.00906551       0.00321134
C       -1.26767762       6.39459644       3.73146127       0.00000000       0.00855899      -0.01295667       0.00467542
C       -2.49323435       8.52017685       3.53300388       0.00000000      -0.00483087      -0.00315662       0.00092925
C        4.91324680      -0.02867681       3.53217633       0.00000000      -0.00046710      -0.01192531      -0.00078585
C        3.68393949       2.09054185       3.68015805       0.00000000       0.00210750       0.00488010       0.00362471
C        2.45852529       4.06611686       4.26394263       0.00000000      -0.00716042      -0.00727075      -0.00667455
N        1.05086676       6.48813848       4.25595914       0.00000000       0.00301048      -0.00090191       0.00116458
C       -0.03408998       8.51927223       3.65177391       0.00000000      -0.00626529      -0.00295836       0.00662029
C        7.38344487      -0.03437249       3.60436994       0.00000000      -0.00133500       0.01114129      -0.01050694
C        6.14927352       2.11135422       3.60854562       0.00000000      -0.00457976      -0.00772833       0.00179242
C        4.91012844       4.26292912       3.79780116       0.00000000       0.00286600       0.00798916      -0.00361561
O        3.77120282       6.43289674       3.68566811       0.00000000       0.00892218       0.00387907       0.00194336
C        2.44582235       8.48364097       3.78140052       0.00000000      -0.00037122       0.00028088      -0.00644972
C        9.84230866      -0.03271119       3.63192033       0.00000000      -0.00487751       0.00557676      -0.00214830
C        8.61574080       2.10966056       3.62905557       0.00000000      -0.00835087       0.00074932      -0.00116691
C        7.37956734       4.24541258       3.63179217       0.00000000      -0.00376727      -0.00389169       0.00619401
C        6.15398220       6.38660831       3.64705050       0.00000000       0.00757432       0.00028326       0.00344485
C        4.91538563       8.52591954       3.63153195       0.00000000       0.01010454      -0.00851940       0.00098505
C       -0.02605150       1.39865488       3.67047172       0.00000000       0.00220347      -0.00244724       0.01164367
C       -1.24659420       3.54618229       3.78730599       0.00000000       0.00331136       0.00347376      -0.00100130
C       -2.48927327       5.67023554       3.66381908       0.00000000       0.00164974      -0.00664796       0.00343955
C       -3.72518740       7.80458890       3.54012764       0.00000000      -0.00514953       0.01255677      -0.00129300
C       -4.96093441       9.94665355       3.54050644       0.00000000      -0.00118917      -0.00687187       0.00234686
C        2.44194946       1.38796301       3.64350948       0.00000000       0.00196759      -0.00199065       0.00737142
C        1.21483194       3.51099574       4.00991171       0.00000000      -0.00360919       0.01405783       0.00196253
C       -0.04849123       5.71432370       3.99537751       0.00000000       0.01294255      -0.00252327       0.00255092
C       -1.26614469       7.80940415       3.62554811       0.00000000      -0.00398592      -0.00997686      -0.00494500
C       -2.49042928       9.94571184       3.51397681       0.00000000      -0.00134451      -0.00909197       0.00644645
C        4.91657147       1.39278129       3.58441928       0.00000000      -0.00383350      -0.01078847      -0.00581374
C        3.67308148       3.50478588       3.91389484       0.00000000      -0.00232097       0.01524234      -0.00501319
C        1.15996737       7.80425922       3.88498184       0.00000000      -0.00339059      -0.00290493      -0.00031113
C       -0.02183159       9.94367144       3.57251144       0.00000000       0.00279433      -0.00016416      -0.00994123
C        7.38190653       1.39566164       3.59804106       0.00000000      -0.00296120       0.00350698      -0.00320082
C        6.14549056       3.53902187       3.66033825       0.00000000      -0.00314831      -0.00787328       0.00947464
C        4.96409267       5.67424725       3.78967873       0.00000000       0.00637462       0.00486109      -0.00239685
C        3.70770662       7.85014212       3.75792996       0.00000000       0.00624600       0.00074606      -0.00337507
C        2.44423610       9.92711101       3.65559898       0.00000000      -0.00551865       0.00770414       0.00628366
C        9.84943256       1.39997635       3.64563573       0.00000000      -0.00714906       0.00621082      -0.00190537
C        8.61903898       3.53411927       3.64260683       0.00000000      -0.00999852      -0.00549650      -0.00117498
C        7.38564638       5.66560174       3.61610468       0.00000000       0.00561420       0.00419676       0.00529987
C        6.15184106       7.81142650       3.59159455       0.00000000       0.00837856      -0.00256209       0.00039719
C        4.90942903       9.95375414       3.61000302       0.00000000      -0.00274922      -0.00638025      -0.00410681
Ti       2.69199583       5.84922019       5.27083979       0.00000000       0.00875148       0.00957907      -0.01410621
O        2.68347314       5.84001439       7.08151774       1.00000000      -0.00707843       0.00681653       0.00917071
O        3.72774990       6.71651771       6.48868694       1.00000000       0.00342897       0.00085884       0.00955111
