53
Lattice="12.336457 0.0 0.0 -6.168228499999997 10.683685154694365 0.0 0.0 0.0 15.0" Properties=species:S:1:pos:R:3:forces:R:3 energy=-465.1825786031202 free_energy=-465.1825786031202 stress="-0.0017052170886662787 9.86201146221614e-05 5.0209183188792865e-06 9.86201146221614e-05 -0.0016169591458430775 1.4715480523256863e-05 5.0209183188792865e-06 1.4715480523256863e-05 3.495386205160784e-05" pbc="T T T"
C       -0.04128457      -0.01849447       3.71409850      -0.00139140      -0.00285391       0.00823055
C       -1.27113836       2.12291829       3.74831364       0.00734382      -0.00094973       0.01131885
C       -2.49818122       4.24849988       3.75542573       0.00159278       0.00481931      -0.00329101
C       -3.74145805       6.38341801       3.73254935      -0.00341639      -0.00487759      -0.00782429
C       -4.97896065       8.52099760       3.71714851       0.00487166       0.00117730       0.00150499
C        2.42447208      -0.02625178       3.67027161       0.00081894       0.01155449       0.00033531
C        1.19820646       2.11349475       3.80688866      -0.00061290       0.00742776       0.01030320
C       -0.00813256       4.27629125       3.95063152      -0.00584134       0.00205528      -0.00192465
C       -1.27825889       6.38784232       3.79147602       0.00648443      -0.00202446       0.00293602
C       -2.50457230       8.51878059       3.66945853      -0.00410188      -0.00182769      -0.00585880
C        4.89202046      -0.02185081       3.61055813       0.00402355       0.00189312       0.00025838
C        3.65242060       2.10519529       3.72977448       0.00475752       0.00109973       0.00168414
N        2.43957495       4.11699927       4.20748079       0.00130361      -0.00313230      -0.01507562
O        1.06852915       6.46304751       4.12604355       0.01160448       0.00613613      -0.00070716
C       -0.04891394       8.52476659       3.68950079      -0.00802207      -0.00628206      -0.00193754
C        7.36342058      -0.02806456       3.61505541      -0.00134974      -0.00341057       0.00222087
C        6.12328042       2.11811591       3.63963034       0.00049751      -0.00240456       0.00808667
C        4.86459175       4.25723184       3.81682598      -0.00086156      -0.00001447      -0.00318951
O        3.77967076       6.44057156       3.39065096       0.00856989       0.00776325       0.00790369
C        2.41342961       8.48718060       3.74348263      -0.00599609       0.00013707       0.01180246
C        9.82240802      -0.02642892       3.68173389       0.00306426      -0.00024353      -0.01117285
C        8.59457822       2.11399021       3.66161608      -0.00154343       0.00081406      -0.00063459
C        7.35437202       4.24732647       3.71193601      -0.00253322       0.00105422       0.01048114
C        6.13748030       6.38920662       3.81353133      -0.00384127       0.00326245      -0.00165383
C        4.90077013       8.53049115       3.77801978      -0.00524431      -0.00936449      -0.01440029
C       -0.04066593       1.40723618       3.74807418       0.00657820      -0.00014347      -0.00408228
C       -1.25648320       3.54895490       3.80958997      -0.00375528      -0.00214464      -0.00142519
C       -2.51094156       5.66771807       3.75208622       0.00312531       0.00567052       0.00837933
C       -3.74276946       7.80769767       3.70473228      -0.00242623      -0.00495690       0.00406303
C       -4.97864802       9.94848974       3.69544245       0.00204963       0.00602680       0.00583296
C        2.42454389       1.39385578       3.72876267       0.00097424       0.01438799      -0.01017661
C        1.22492453       3.51478256       3.99780140      -0.00529726       0.00687393       0.00005716
C       -0.09699733       5.67915305       3.96408080       0.00748004       0.00107230       0.00703983
C       -1.28320077       7.81325324       3.70924283      -0.00641363      -0.00551005      -0.00042498
C       -2.50835986       9.94776725       3.63770684       0.00070581       0.00326984       0.00673759
C        4.89096983       1.40360583       3.63711982       0.00325021       0.00020506      -0.00077795
C        3.63628629       3.50545862       3.91163419       0.00244418      -0.00176582      -0.00710609
C        1.15166953       7.85139617       3.83946048      -0.00510439       0.00264485      -0.00115235
C       -0.04189177       9.95450211       3.61489937       0.00042442      -0.00631105      -0.00081870
C        7.35943209       1.40332613       3.62075457      -0.00407909      -0.00201175       0.00926071
C        6.11370368       3.54195520       3.70455133       0.00004841      -0.00122051       0.00404169
C        4.92812092       5.67436375       3.84237666      -0.00209878       0.00389775      -0.00554278
C        3.68859417       7.83283479       3.78717401      -0.00602255      -0.00666845       0.00035347
C        2.42346534       9.93952268       3.65663240       0.00054405      -0.00045676      -0.00451477
C        9.82908940       1.40471165       3.68676575       0.00457690       0.00146086      -0.00379745
C        8.59534002       3.53686270       3.69990056       0.00297306       0.00213367       0.00065200
C        7.36360632       5.66859578       3.75903375      -0.00605770      -0.00013566      -0.00073813
C        6.13448567       7.81387326       3.77486591       0.00415135       0.00101715      -0.00390344
C        4.89283853       9.95634846       3.72675913      -0.00166873      -0.00968818       0.00099615
Ti       2.75393454       5.88435032       4.96781872      -0.00148935      -0.01420410       0.00289158
O        3.19567672       6.03761062       6.60829458      -0.00879977      -0.00683653      -0.00405533
O        3.40190954       6.17807417       8.00256793      -0.00652400       0.00587501      -0.00685142
H        4.34031477       5.91687997       8.11019478       0.01023413      -0.00429069      -0.00433415
