52
Lattice="12.336457 0.0 0.0 -6.168228499999997 10.683685154694365 0.0 0.0 0.0 15.0" Properties=species:S:1:pos:R:3:forces:R:3 energy=-447.9514443308358 free_energy=-447.9514443308358 stress="-0.002016468117205783 -0.00026031977782966473 -1.495047369998324e-05 -0.00026031977782966473 -0.00010083556292499535 -2.352554947811331e-05 -1.495047369998324e-05 -2.352554947811331e-05 -2.5641506498920703e-05" pbc="T T T"
C        0.08595311      -0.00082593       3.87404605       0.00343381       0.00207568       0.00548670
C       -1.16242493       2.12718961       3.64000070      -0.00781013      -0.00355560       0.00250156
C       -2.41889327       4.26896514       3.72180432      -0.00252414       0.00032567      -0.00056891
C       -3.63134300       6.41078707       3.92139028      -0.00285943       0.00827338      -0.00351585
C       -4.84677174       8.54932726       3.99521028      -0.00068598      -0.00649298      -0.00279740
C        2.55890321       0.00892360       3.92408926       0.00065991      -0.00617829       0.00705588
C        1.32593818       2.07667470       3.46302232      -0.00390761      -0.00456314      -0.00668138
C       -0.09355638       4.28592359       3.04264697      -0.00447211      -0.00290916      -0.00053774
C       -1.21365474       6.42639952       3.48519053      -0.00516669       0.00948318      -0.00842976
C       -2.37647169       8.54309827       3.85857978      -0.00444905       0.00523052      -0.01067271
C        5.01880077      -0.00298495       3.94552003       0.00449667      -0.00948604       0.00176267
C        3.80807517       2.11276367       3.95015177       0.00471077      -0.00260913      -0.00123399
S        1.36438028       6.46020904       2.45872814       0.00038422      -0.00710514      -0.00229943
C        0.08457192       8.54448084       3.67032820       0.00100066      -0.00057663       0.00009022
C        7.48971275      -0.01102986       3.94151520      -0.00172420       0.00175088       0.00107829
C        6.25706337       2.13226605       4.05063523       0.00938028      -0.00010305      -0.00184241
C        5.05351828       4.28279180       4.11166594      -0.00053755      -0.00100382       0.00111282
N        3.82906879       6.43614329       4.01306728       0.00676330       0.00120524      -0.00022898
C        2.56418346       8.52659461       3.79623888      -0.00101563       0.00231246       0.00444073
C        9.95713851      -0.00642674       3.92050409      -0.00306459      -0.00063549       0.00027450
C        8.71757231       2.13430821       3.93479262       0.00316671      -0.00359865      -0.00565411
C        7.47508915       4.27591115       4.03153423       0.00282683       0.00422265      -0.00760324
C        6.25134365       6.41620368       4.07044649      -0.00244783      -0.00276845       0.00690429
C        5.02244365       8.53453074       3.98441153       0.00604693       0.00550959       0.00327900
C        0.08588146       1.42136513       3.65826441      -0.00529650       0.00014741      -0.00493846
C       -1.21521064       3.53875386       3.47084735      -0.00557875      -0.00478304      -0.00390757
C       -2.41942077       5.69726204       3.72848460      -0.00649783       0.00673847      -0.01651703
C       -3.61669284       7.83405185       3.93646948      -0.00020465       0.00346405      -0.00145973
C       -4.84541428       9.97906475       3.93911445       0.00122210      -0.00736799       0.00000697
C        2.56866848       1.44970288       3.81397909       0.00153745      -0.00402800      -0.00040707
S        1.36739763       3.51009146       2.44380350       0.00003467       0.00114115      -0.00326122
C       -0.09496820       5.68014708       3.05269947      -0.00660809      -0.00003211      -0.00232714
C       -1.15930036       7.83906726       3.65452194      -0.00380488       0.00918633      -0.00142817
C       -2.37965653       9.97647888       3.92918136       0.00082324      -0.00315338       0.00521061
C        5.01713759       1.43194673       4.00920660       0.00840280      -0.00519566       0.00164722
O        3.84707415       3.52314396       4.09569144      -0.00442453       0.00534017       0.00668072
C        1.33485605       7.89530576       3.47594306       0.00087683      -0.00252218       0.00241009
C        0.08637716       9.96516963       3.88089820       0.00303867      -0.00519278       0.00809549
C        7.48091862       1.42269138       4.00139583       0.00616578      -0.00037171      -0.00904338
C        6.24500151       3.55730472       4.08799882       0.00404297       0.00098690       0.01009606
C        5.01349888       5.70302189       4.09029010       0.00136672      -0.00390903       0.00712178
C        3.80570715       7.80501533       3.91849848       0.00590796       0.00362085       0.00647689
C        2.55812051       9.96171750       3.91710875      -0.00493801       0.00371913       0.00743927
C        9.95772472       1.42321317       3.85009274      -0.00363867      -0.00535437      -0.00490015
C        8.70264494       3.55829611       3.91968191       0.00045504      -0.00300697      -0.00629203
C        7.47147197       5.69587785       4.02790716      -0.00124536       0.00576357      -0.00264810
C        6.25701055       7.83404561       4.03242305      -0.00027240      -0.00399081      -0.00655453
C        5.01969660       9.96541080       3.93201566       0.00262034       0.00728811       0.00699574
Ti       2.43097710       5.00734769       4.04460283       0.00298973      -0.00074556       0.00606664
O        1.64880958       5.02349711       5.54253384       0.00388894       0.00048935       0.01391280
O        0.81996434       4.98873774       6.69125251      -0.01166588       0.01267936      -0.00527703
H        1.47372677       4.95364280       7.42522323       0.00859720       0.00028510       0.00488054
