51
Lattice="12.336457 0.0 0.0 -6.168228499999997 10.683685154694365 0.0 0.0 0.0 15.0" Properties=species:S:1:pos:R:3:initial_magmoms:R:1:forces:R:3 energy=-445.71315373422067 free_energy=-445.71315373422067 stress="-0.005081452203073977 0.0036881962844500676 -1.6035719419302917e-05 0.0036881962844500676 -0.006880835359581012 -9.06555989933238e-06 -1.6035719419302917e-05 -9.06555989933238e-06 -1.544820970856893e-05" pbc="T T T"
C        0.01672854      -0.02596418       3.60736059       0.00000000      -0.00359013      -0.00332271      -0.00322202
C       -1.19233677       2.12953792       3.42454218       0.00000000       0.00209645      -0.01032188      -0.00324630
C       -2.44905395       4.25793904       3.44765779       0.00000000       0.00170513       0.00071490      -0.00217420
C       -3.69889601       6.38487779       3.58547761       0.00000000      -0.00305961       0.00134872       0.00289808
C       -4.94310212       8.50458288       3.69841955       0.00000000       0.00399628       0.00109982      -0.00053765
C        2.47781219      -0.06057700       3.68609456       0.00000000      -0.00643545      -0.00472435       0.00180604
C        1.29862307       2.05047081       3.53988956       0.00000000       0.00376660       0.00834604       0.00225542
C       -0.02125688       4.33215321       3.31213448       0.00000000      -0.01202095       0.00394365      -0.00225528
C       -1.27059161       6.43266153       3.36615464       0.00000000      -0.00135665      -0.00725129      -0.00114326
C       -2.47827479       8.52559191       3.50414155       0.00000000      -0.00153403       0.00177760       0.00268668
C        4.94960838      -0.03384674       3.64672981       0.00000000       0.00510143       0.00240334      -0.00325704
C        3.73029519       1.98963575       4.18664524       0.00000000      -0.00395944      -0.00306112       0.00122146
N        1.11022386       6.42915756       3.79818570       0.00000000       0.00069851       0.00575833       0.00114784
C       -0.00714598       8.52909053       3.49203014       0.00000000      -0.01112765      -0.00828026      -0.00237603
C        7.41326383      -0.01674920       3.56683842       0.00000000       0.00424162      -0.00202970       0.00110795
C        6.21198947       2.08882261       3.92713478       0.00000000      -0.00536090       0.00622994       0.00466447
C        5.15752542       4.20527796       4.62711880       0.00000000      -0.00238130       0.00122227      -0.00770621
P        3.61066099       6.37065147       4.74981535       0.00000000       0.01211356      -0.00163479      -0.00322613
C        2.43964965       8.54563825       3.74431612       0.00000000       0.00416966       0.00288362       0.01268975
C        9.88861248      -0.01745502       3.57341696       0.00000000       0.00418459      -0.00757349      -0.01204835
C        8.66664151       2.11538234       3.57499890       0.00000000      -0.00230089      -0.00210902      -0.00114802
C        7.45638123       4.23681085       3.84465296       0.00000000       0.00123768      -0.00053981      -0.00062987
C        6.24042424       6.38077891       4.09573862       0.00000000      -0.00322872       0.00254601      -0.00610041
C        4.94623735       8.53868044       3.88056303       0.00000000       0.00430705       0.00271949       0.00541800
C        0.03885349       1.40854043       3.49882780       0.00000000       0.00505233      -0.00127872       0.00041794
C       -1.20627147       3.55317043       3.36232266       0.00000000      -0.00044392      -0.00502316       0.00000071
C       -2.47350159       5.68337772       3.43084813       0.00000000      -0.00323513      -0.00106509       0.00140625
C       -3.70852694       7.80549217       3.58367104       0.00000000       0.00146439       0.00239661       0.00452722
C       -4.93332584       9.92828730       3.64573738       0.00000000      -0.00665304      -0.00074139      -0.00144651
C        2.49768797       1.34724969       3.82788187       0.00000000      -0.00219232      -0.00257018      -0.00017700
S        1.53560461       3.65860096       2.91802230       0.00000000       0.00093919       0.00845707       0.00017511
C       -0.03715147       5.76006269       3.43801889       0.00000000       0.00062094       0.00244357      -0.00935276
C       -1.24928317       7.83767647       3.42448917       0.00000000      -0.01038775      -0.00985109      -0.00366777
C       -2.45537974       9.93638666       3.61219235       0.00000000       0.00098547       0.00297848      -0.00816653
C        4.96978139       1.37289121       3.91539048       0.00000000      -0.00168026       0.00369847      -0.00009677
S        3.73543806       3.36496902       5.22731760       0.00000000       0.00076582       0.00611165       0.00137960
C        1.19604047       7.79858081       3.67586535       0.00000000      -0.00471630       0.00623758      -0.00059691
C        0.01209816       9.95096429       3.54277344       0.00000000       0.00376711      -0.00562419       0.00544703
C        7.42440454       1.40393661       3.66399211       0.00000000      -0.00580664       0.00141483       0.00212684
C        6.26152292       3.49362680       4.13688813       0.00000000      -0.00045158       0.00454633      -0.00072493
C        5.14288672       5.61890046       4.59228757       0.00000000       0.00215260      -0.00415506      -0.00621634
C        3.67611890       7.90666805       4.03250420       0.00000000       0.00477185       0.00930481       0.00659527
C        2.47179846       9.95687975       3.58610495       0.00000000       0.00658961       0.00023513      -0.00193635
C        9.90663934       1.41119954       3.49532129       0.00000000      -0.00106742      -0.00883193       0.00131973
C        8.66846901       3.53583294       3.59884509       0.00000000       0.00435188      -0.00060393       0.00372366
C        7.44128340       5.66429139       3.83126558       0.00000000      -0.00230164       0.00040942      -0.00008497
C        6.17241857       7.79938308       3.90420694       0.00000000       0.00712181       0.00382790      -0.00035204
C        4.94953194       9.95359002       3.66128562       0.00000000       0.00056577      -0.00402492       0.00530554
Ti       1.65751546       4.87679205       5.14823141       0.00000000       0.00703570       0.00475723      -0.00343334
O        2.85813009       6.17872117       6.10633006       1.00000000       0.01361677      -0.00567868       0.01081160
O        0.46238969       4.39827148       6.18652030       1.00000000      -0.01212806       0.00248396       0.00619080
