52
Lattice="12.336457 0.0 0.0 -6.168228499999997 10.683685154694365 0.0 0.0 0.0 15.0" Properties=species:S:1:pos:R:3:forces:R:3 energy=-454.1778448538139 free_energy=-454.1778448538139 stress="-0.0023676227229507576 -0.0023645206769590515 2.9125713224094682e-06 -0.0023645206769590515 0.0013024319353439058 -1.8004491642363975e-05 2.9125713224094682e-06 -1.8004491642363975e-05 3.4692095839287033e-06" pbc="T T T"
C       -0.03211580       0.02289748       3.85214219       0.00598460       0.00490486       0.00303955
C       -1.28303870       2.13850244       3.86509275      -0.00040173      -0.00105020       0.00156826
C       -2.50709612       4.27644451       3.87584682       0.00002244      -0.00233443      -0.00663482
C       -3.72081371       6.42177557       3.86217114      -0.00514713      -0.00483978      -0.00097990
C       -4.95691223       8.57094051       3.86482433       0.00054082      -0.00245439      -0.00693835
C        2.43377986       0.02469806       3.79273529      -0.00589442       0.00326464      -0.00423625
C        1.17154363       2.17993135       3.78309205       0.00009181      -0.00614916       0.00127286
C       -0.04359147       4.25903828       3.93393149       0.00095604      -0.00657688       0.00374326
C       -1.26189411       6.41577760       3.91941635      -0.00232687       0.00013294       0.00267113
C       -2.49078580       8.55931968       3.86034910       0.00201560       0.00558419       0.00028638
C        4.90671567       0.00250815       3.71653578      -0.00338366      -0.00504051      -0.00216834
C        3.64631402       2.10210758       3.37134606      -0.00321893       0.00042539       0.00491775
N        1.15389403       6.40046569       4.00787872       0.00488299       0.00441905      -0.00707954
C       -0.01887193       8.52618319       3.86037085       0.00282178       0.00042826       0.00422733
C        7.37080445      -0.01063721       3.77396930       0.00021011      -0.00606029      -0.00485087
C        6.13063025       2.15042299       3.59874278       0.00448795       0.00135480      -0.00593317
C        4.91053261       4.35944115       3.46140060       0.00623807      -0.00411452      -0.00480285
O        3.76768208       6.47677593       3.62998530       0.00921868      -0.00202172      -0.00645712
C        2.44711721       8.49431604       3.85753729      -0.00399623      -0.00131096       0.00249499
C        9.82587691      -0.01083725       3.83722623       0.00075252       0.00230709       0.00459869
C        8.58990225       2.13818960       3.79162013      -0.00254848       0.00589515       0.00212865
C        7.36338146       4.28518283       3.74282768       0.00419874       0.00221608       0.01144560
C        6.17292444       6.45488473       3.74782821       0.00159196      -0.00208524       0.00527473
C        4.91424911       8.56148543       3.83809663      -0.00713812       0.00053883       0.00862700
C       -0.04428803       1.44890858       3.84072668       0.00164308       0.00276766       0.00278927
C       -1.27852794       3.55829139       3.89475396      -0.00159100      -0.00437197      -0.00065911
C       -2.49335034       5.70120997       3.89147520      -0.00527618      -0.00436843      -0.00105330
C       -3.72189641       7.84921039       3.87035979       0.00307771      -0.00081678       0.00571447
C       -4.96085434       9.99938936       3.85612088      -0.00010273       0.00097285      -0.00516354
C        2.41662225       1.45265352       3.66034473      -0.00331018      -0.00200378      -0.00306988
N        1.13881761       3.55445745       3.86953072       0.00021447      -0.00747589      -0.00845520
C       -0.03600932       5.70613907       3.96698005       0.00324567      -0.00001024      -0.00319754
C       -1.26016853       7.83681577       3.88547340       0.00264317       0.00253218      -0.00590061
C       -2.49723221       9.98687970       3.79277758      -0.00740819       0.00444962      -0.00026587
C        4.89824500       1.42531538       3.54995159      -0.00101220      -0.00291346       0.01522597
P        3.60440396       3.63994400       2.46887606      -0.00696895       0.00709573      -0.00137596
C        1.19307081       7.77892039       3.90777657       0.00020628       0.00469006       0.01290794
C       -0.02658793       9.96136830       3.78222731      -0.00013633      -0.00508612       0.00173575
C        7.35951214       1.42513048       3.72303354       0.00083050      -0.00042685      -0.00135758
C        6.13838042       3.57840974       3.59649856       0.00877666       0.00425464      -0.00303431
C        4.98083862       5.76236179       3.60078486       0.00662395      -0.00418385      -0.00336380
C        3.70488490       7.87305652       3.82610590      -0.00545646      -0.00230247      -0.00150083
C        2.43216377       9.94212927       3.82509088       0.00005504      -0.00344443       0.00296027
C        9.82230456       1.42255895       3.83801984      -0.00335369       0.00300103      -0.00179592
C        8.59356239       3.56539916       3.80803831       0.00070164       0.00379658       0.00154280
C        7.38965711       5.71183688       3.79174835      -0.00152925      -0.00312164      -0.00114628
C        6.16085695       7.86781563       3.82800092      -0.00309561      -0.00170138      -0.00242068
C        4.90103342       9.98704471       3.85464123       0.00469909       0.00346295      -0.00180474
Ti       2.58720754       4.96780617       4.26095533      -0.00165428       0.00220746       0.00182674
O        2.93792425       4.71455976       5.89436247       0.00039686       0.01144310      -0.00449853
O        3.13718306       4.35483571       7.24682500       0.00646379      -0.00504718      -0.01354505
H        3.66541916       5.10392346       7.60183420      -0.00864141       0.00916743       0.01269055
