52
Lattice="12.336457 0.0 0.0 -6.168228499999997 10.683685154694365 0.0 0.0 0.0 15.0" Properties=species:S:1:pos:R:3:forces:R:3 energy=-446.1672542126628 free_energy=-446.1672542126628 stress="-0.002416565130777572 -0.0014339844801586157 3.620310077395715e-06 -0.0014339844801586157 -0.003558823800765277 1.0776940327187448e-05 3.620310077395715e-06 1.0776940327187448e-05 3.473554496566229e-06" pbc="T T T"
C        0.09787315      -0.05280934       3.81170412      -0.00423824       0.00191105       0.00008404
C       -1.14810663       2.08221853       3.60336669       0.01134954      -0.00262159      -0.00710116
C       -2.40809894       4.21915598       3.63061177      -0.00043078       0.00175767       0.00099435
C       -3.61709702       6.36105629       3.80995498      -0.00244509       0.00546084      -0.00494470
C       -4.83027675       8.49442284       3.88199177      -0.00434208       0.00597799       0.00724586
C        2.56736989      -0.08082546       3.91277303      -0.00362130       0.00248630       0.00165581
C        1.35483426       2.01003677       3.57418849       0.00528378       0.00375958      -0.00528680
C       -0.05194094       4.23772894       3.03649780       0.00230675       0.00242164       0.00573761
C       -1.19725036       6.38217777       3.39913781       0.00515545      -0.00043622       0.00755961
C       -2.35909249       8.48798340       3.78304280      -0.00510182       0.00340698       0.00624241
C        5.03727776      -0.06390522       4.00508954       0.00562175       0.00032783       0.00632740
C        3.76839072       2.02046373       4.28768128      -0.00441100      -0.00229696       0.00054399
S        1.36511443       6.49276900       2.31536076      -0.00483441      -0.01258317       0.00051862
C        0.10167265       8.49521328       3.67688472      -0.00280358      -0.00112162       0.00240826
C        7.50079277      -0.04949079       3.96379636       0.00137226       0.00104416      -0.00767376
C        6.26037130       2.09254648       4.19542830      -0.00088885      -0.00070890       0.00489757
C        5.07875430       4.30457141       4.44422311      -0.00041970      -0.00754728      -0.00874874
N        3.85911697       6.41693474       4.20177065      -0.00742671      -0.00192629       0.00241188
C        2.58696076       8.49157371       3.83371730       0.00128861       0.00514964      -0.00871414
C        9.96964657      -0.04538789       3.88496225      -0.00451021       0.00358206      -0.00211787
C        8.72325709       2.09075531       3.90978085       0.00051097       0.00004284       0.00080514
C        7.49136866       4.23195263       4.02909217       0.00099311      -0.00398084      -0.00059353
C        6.27830304       6.39037901       4.05696328      -0.00170884      -0.00882548      -0.00311209
C        5.04596660       8.49982129       3.95233304       0.00189450      -0.00142980       0.00095205
C        0.09600321       1.37236522       3.64827631       0.00888638       0.00075578      -0.00002884
C       -1.19203820       3.49222764       3.41543237       0.00576151       0.00126842       0.00995251
C       -2.40425602       5.64775375       3.61891375      -0.00005281       0.00383276      -0.00100771
C       -3.60006671       7.78070364       3.82179685      -0.00641329       0.00783572       0.00402190
C       -4.83774744       9.91305094       3.85774300      -0.00621175       0.00540304      -0.00731828
C        2.55933249       1.33582396       3.95279602      -0.00099669       0.00160981      -0.00545797
S        1.51989675       3.53839120       2.75874646       0.00016663      -0.00437791      -0.00278892
C       -0.06002054       5.64735257       2.99931504       0.00811597       0.00237263      -0.00170122
C       -1.13458111       7.78937611       3.60025457      -0.00640684      -0.00179452      -0.00395674
C       -2.35861229       9.90396740       3.91712276       0.00031780       0.00398279       0.00635498
C        5.02873055       1.36147289       4.19535868      -0.00144580       0.00027077      -0.00162990
P        3.60097932       3.58910170       5.08291626       0.00720111      -0.00088768       0.00450080
C        1.35756223       7.82272589       3.53206921      -0.00251878       0.00699425      -0.00104261
C        0.10244439       9.91161150       3.90782490       0.00469973      -0.00064457       0.00143406
C        7.49107198       1.38102233       4.03977130      -0.00077808       0.00029153       0.00432051
C        6.26588541       3.52880640       4.24128120       0.00242517      -0.00357537       0.00073864
C        5.05167609       5.71872664       4.25182532      -0.00548870      -0.00544445       0.00710965
C        3.82917265       7.77722078       3.98141860       0.00018168       0.00032686      -0.00424138
C        2.57109250       9.92535881       3.91389001      -0.00133711       0.00370660       0.00059444
C        9.96621017       1.38175075       3.80603048       0.00414279       0.00189427      -0.00720330
C        8.71178720       3.51421983       3.86652178      -0.00056413      -0.00094538      -0.00235922
C        7.49412835       5.65506430       3.97168083       0.00298079      -0.00415150       0.00018601
C        6.27657654       7.79559444       3.95922875       0.00241502      -0.00460949       0.00478017
C        5.03324098       9.92347641       3.87723684      -0.00511369       0.00136852       0.00179572
Ti       2.03244693       5.45843600       4.31268836       0.00228670      -0.00330559      -0.00832248
O        1.17144503       5.78045782       5.73722367      -0.00255055       0.00325891       0.00282890
O        0.35663523       5.99074940       6.86713124       0.00596052      -0.00913801       0.00652691
H        0.96537745       6.43953773       7.49615804      -0.00425769      -0.00014862      -0.00817845
