52
Lattice="12.336457 0.0 0.0 -6.168228499999997 10.683685154694365 0.0 0.0 0.0 15.0" Properties=species:S:1:pos:R:3:forces:R:3 energy=-453.9910275529487 free_energy=-453.9910275529487 stress="-0.002911102121366942 0.002185947208132443 1.7862781243572577e-05 0.002185947208132443 0.0009362916663116097 -1.9052615053214384e-06 1.7862781243572577e-05 -1.9052615053214384e-06 -1.1170119131321337e-05" pbc="T T T"
C        0.03898593       0.01439449       3.73214608      -0.00167493       0.00083428       0.00250524
C       -1.19025534       2.15404764       3.60701724       0.00364038      -0.00429732       0.00432560
C       -2.43067590       4.29065959       3.74896602       0.00713253       0.00374574      -0.00130121
C       -3.67676947       6.42733397       3.86608950       0.00073954       0.00049460      -0.00255785
C       -4.90936678       8.56306642       3.87511398      -0.00215965       0.00298145      -0.00325815
C        2.51059058       0.02889593       3.77822307       0.00236218      -0.00225203      -0.00148005
C        1.29533616       2.10946169       3.37958015       0.00469916       0.00569055       0.00559009
C        0.01081298       4.35367302       3.46642466      -0.00339486      -0.00070567      -0.00588666
C       -1.23524612       6.46070898       3.73281631      -0.00225555       0.00059966       0.00125580
C       -2.44287761       8.57801621       3.84289190       0.00012861      -0.00652709       0.00442433
C        4.97741569       0.02297751       3.81950800      -0.00109340       0.00232556      -0.00269209
C        3.77271105       2.18222129       3.74522316      -0.00043349      -0.00576556       0.00024881
N        1.17892103       6.45524938       3.67010375      -0.00078776      -0.00034197      -0.00129203
C        0.03063689       8.55866601       3.79724402       0.00109710       0.00325875       0.00109825
C        7.45421538      -0.00488661       3.81880248       0.00330370      -0.01336531      -0.00009674
C        6.22526521       2.14491529       3.84292005       0.00229334      -0.00469885      -0.00128129
C        4.98222786       4.27486381       3.92186328      -0.00455025       0.00319391       0.00110146
O        3.80627047       6.43460818       4.03341236      -0.00712044       0.00700042      -0.00884009
C        2.51523870       8.50039389       3.84844230       0.00048230       0.00715128      -0.00370542
C        9.90937591      -0.00473293       3.78530787      -0.00042943       0.00374283      -0.00513339
C        8.68787118       2.14361396       3.79211039      -0.00725311       0.00502942      -0.00098458
C        7.44331472       4.28216229       3.87843280      -0.00412602       0.00122422      -0.00102279
C        6.20012548       6.41906735       3.95158225       0.00862807       0.00107475      -0.00696660
C        4.96608789       8.54343443       3.89021300      -0.00467431      -0.00378535      -0.00063783
C        0.04421516       1.43603836       3.56105759       0.00586960       0.00359313       0.00937579
C       -1.20022553       3.58485175       3.60237860       0.00487185      -0.00536065      -0.00265539
C       -2.44725560       5.71987949       3.78726404       0.00021765       0.00220087       0.00097687
C       -3.67306525       7.85481502       3.86991762      -0.00391744       0.00007539       0.00532656
C       -4.89524565       9.99456053       3.79983230      -0.00234527       0.00347316      -0.00463746
C        2.52670902       1.45490545       3.64170263       0.00232047      -0.00218843      -0.00228946
P        1.33334262       3.66169453       2.49954506       0.00449446       0.00268498       0.00584500
C       -0.01385666       5.78196488       3.61358815      -0.00377150      -0.00140825       0.00451927
C       -1.21715505       7.86975466       3.79877872       0.00210331      -0.00186544      -0.00116584
C       -2.43124838      10.00232480       3.82942447       0.00202011      -0.00516572       0.00198402
C        4.98928521       1.44871084       3.80819101       0.00096098      -0.00047870       0.00604160
N        3.79808602       3.55413321       3.81679608       0.00072315      -0.00686146       0.00035694
C        1.24121810       7.81666647       3.78028374       0.00261404       0.00340040       0.00841867
C        0.04309333       9.98290798       3.82016387      -0.00165727       0.00059085       0.00696001
C        7.45662103       1.42623680       3.82413248      -0.00040123      -0.01225574       0.00445836
C        6.22215640       3.56319860       3.88372276      -0.00504113      -0.00136075      -0.00897030
C        5.01378398       5.69264437       3.99128873       0.00184402       0.00768845      -0.00260871
C        3.75515269       7.85106779       3.92183950      -0.00546668       0.00353462       0.00868165
C        2.51468794       9.94892732       3.82095686       0.00551837       0.00013855      -0.00486382
C        9.91963699       1.43296573       3.73112663      -0.00627153       0.00250350      -0.00845119
C        8.68344203       3.57066264       3.81182878      -0.00009982       0.00968315      -0.00057873
C        7.43594630       5.70367174       3.90635849       0.00748887      -0.00093702      -0.00504148
C        6.20541511       7.84679582       3.91703456       0.00134998       0.00031473      -0.00542451
C        4.97216899       9.97842896       3.80470271      -0.00286643      -0.00350206      -0.00673058
Ti       2.37428049       4.95519237       4.26565304       0.00314584      -0.00675076       0.00452518
O        1.99294490       4.62213096       5.87565484      -0.00402011      -0.00309409       0.00762445
O        1.62962991       4.22377418       7.18088843       0.00205398       0.00748602       0.00053993
H        2.11566598       4.86152454       7.75014915      -0.00629198      -0.00274700       0.00437037
