51
Lattice="12.336457 0.0 0.0 -6.168228499999997 10.683685154694365 0.0 0.0 0.0 15.0" Properties=species:S:1:pos:R:3:initial_magmoms:R:1:forces:R:3 energy=-445.0849887910583 free_energy=-445.0849887910583 stress="-0.0018094635726652831 0.00014639602296081565 -1.0402940456111199e-05 0.00014639602296081565 0.0009931345781648648 2.4243189688061226e-05 -1.0402940456111199e-05 2.4243189688061226e-05 -9.08047765242519e-06" pbc="T T T"
C        0.03907858       0.00028144       3.82128752       0.00000000      -0.00973804       0.00660823       0.00486147
C       -1.20774155       2.12875895       3.55833599       0.00000000      -0.00462987       0.00266006       0.00611692
C       -2.47308622       4.27159372       3.59638302       0.00000000       0.01360949      -0.00273694       0.00112162
C       -3.68451351       6.41390416       3.80668931       0.00000000       0.01024609      -0.00050093       0.00511616
C       -4.89629998       8.55071726       3.92634386       0.00000000       0.00461541      -0.00262001      -0.00215426
C        2.51292695       0.01332605       3.88753328       0.00000000      -0.00228846      -0.00513757      -0.00485347
C        1.28441850       2.08161243       3.44543880       0.00000000       0.00350745      -0.00772571      -0.00902624
C       -0.14308242       4.29110536       2.95348969       0.00000000      -0.00630736       0.00505567       0.00801144
C       -1.26845873       6.43345597       3.36080825       0.00000000      -0.00292093      -0.00764019       0.00246839
C       -2.42680415       8.54612188       3.77101367       0.00000000       0.01259237       0.00781095       0.00393273
C        4.97284062      -0.00252303       3.89400565       0.00000000      -0.00455652      -0.00090111       0.00374505
C        3.76777728       2.12220190       3.92994048       0.00000000       0.00145576       0.00444729      -0.00005428
S        1.34248658       6.45933767       2.41690653       0.00000000       0.00008505       0.00658066      -0.00632966
C        0.03640925       8.54571873       3.60118642       0.00000000      -0.01459059      -0.00469578      -0.00562417
C        7.44330412      -0.01189214       3.88272987       0.00000000      -0.00032728      -0.00265096      -0.00208353
C        6.21285724       2.13253227       3.99241493       0.00000000      -0.00756557      -0.00743943       0.00219252
C        5.01167095       4.27606385       4.09653887       0.00000000      -0.00240047      -0.00040175      -0.00405882
N        3.78337418       6.42838866       4.06234117       0.00000000      -0.00329841       0.00201840      -0.00102916
C        2.51431775       8.52354590       3.77388011       0.00000000       0.00594145      -0.00336428      -0.00208040
C        9.91095651      -0.00662463       3.86093063       0.00000000       0.00306254       0.00328733       0.00463148
C        8.67127275       2.13359653       3.84227343       0.00000000       0.00471604       0.00866538      -0.00346961
C        7.42871581       4.27653549       3.94158437       0.00000000       0.00209815      -0.00178277      -0.00313451
C        6.20287340       6.41392353       4.01419725       0.00000000      -0.01244721       0.00002378       0.00603385
C        4.97343679       8.53228305       3.95053705       0.00000000       0.00389973       0.00466719      -0.00591064
C        0.04082593       1.42361453       3.60328581       0.00000000      -0.00502079       0.00769712       0.00300096
C       -1.26371835       3.54102194       3.36718962       0.00000000      -0.00031013      -0.00300221      -0.00090436
C       -2.47624094       5.70126995       3.59474193       0.00000000       0.00836871      -0.00949983       0.00502387
C       -3.66795142       7.83676230       3.84242436       0.00000000       0.01694996       0.00597811      -0.00107959
C       -4.89276782       9.98139704       3.88900768       0.00000000      -0.00909070      -0.00033741      -0.00642973
C        2.52454603       1.45267456       3.80248551       0.00000000       0.00763810      -0.00435921      -0.00404051
S        1.37396959       3.54292341       2.48390087       0.00000000       0.00021437       0.00846034      -0.00727385
C       -0.15224629       5.69035207       2.93562617       0.00000000       0.00040777       0.00163027       0.00582376
C       -1.20948800       7.84411954       3.55787211       0.00000000      -0.00686575      -0.00968800      -0.00706839
C       -2.42613080       9.97768719       3.87286705       0.00000000       0.00054170       0.00378455       0.00641128
C        4.97337461       1.43356009       3.96823337       0.00000000      -0.00614713      -0.00575927       0.00321949
O        3.81479949       3.52399530       4.07138239       0.00000000      -0.00441332       0.01123179      -0.00015947
C        1.28778659       7.89533685       3.42485494       0.00000000      -0.00809874       0.00641931       0.00319152
C        0.03975095       9.96489717       3.82328901       0.00000000      -0.00855898      -0.00309271      -0.00300152
C        7.43576083       1.42226066       3.92789645       0.00000000       0.00180760       0.00306983       0.00432800
C        6.20141519       3.55684629       4.03320650       0.00000000      -0.00493072      -0.00601255       0.00109492
C        4.96740384       5.70185530       4.08397952       0.00000000      -0.01017486      -0.00177166      -0.00327167
C        3.75648670       7.79433302       3.92059447       0.00000000       0.00969900      -0.00004630      -0.00910283
C        2.51123849       9.95889624       3.87036171       0.00000000       0.00635137      -0.00341106      -0.00500373
C        9.91181383       1.42281245       3.76625456       0.00000000      -0.00068188       0.00241292       0.00225008
C        8.65321002       3.55819567       3.81006361       0.00000000       0.01235647       0.00703525      -0.00023741
C        7.42268648       5.69606865       3.93577368       0.00000000      -0.00297752       0.00241418      -0.00262043
C        6.20798933       7.83323097       3.97674135       0.00000000      -0.00276827      -0.00096924       0.00418310
C        4.97231654       9.96458766       3.88158569       0.00000000      -0.00122553       0.00394407       0.00293875
Ti       2.28437592       5.03287393       4.29901970       0.00000000       0.00087181      -0.00762101       0.00509873
O        1.91991985       4.26794366       5.90375207       1.00000000      -0.00186352      -0.01575846       0.00224610
O        1.24412710       5.56310250       5.66474786       1.00000000       0.01316215       0.00302368       0.00296005
