51
Lattice="12.336457 0.0 0.0 -6.168228499999997 10.683685154694365 0.0 0.0 0.0 15.0" Properties=species:S:1:pos:R:3:initial_magmoms:R:1:forces:R:3 energy=-445.7398686887463 free_energy=-445.7398686887463 stress="-0.002539976490688385 -0.002183864477985501 -5.81331182398485e-06 -0.002183864477985501 -0.0017695980051967626 -6.194882240408741e-06 -5.81331182398485e-06 -6.194882240408741e-06 -4.42258892722219e-06" pbc="T T T"
C       -0.04561083      -0.05440781       3.83431783       0.00000000      -0.00206313      -0.00149588       0.00522848
C       -1.29068142       2.08970890       3.99267514       0.00000000      -0.00607777      -0.00570667       0.00535423
C       -2.50915756       4.23201020       3.75912453       0.00000000      -0.00400665       0.00503765       0.00374504
C       -3.71495091       6.37163988       3.53481832       0.00000000      -0.00256855       0.00715838       0.01005865
C       -4.96481226       8.50861514       3.59931450       0.00000000       0.00637852       0.00319640      -0.00749269
C        2.43220522      -0.07147162       3.80551639       0.00000000      -0.01296409      -0.00406926      -0.00127335
C        1.19423929       2.00327300       4.26671976       0.00000000       0.00113118       0.00367331       0.01383798
C       -0.13190786       4.29344084       4.34230621       0.00000000      -0.00332000       0.01065131       0.00007356
C       -1.28295916       6.38587535       3.81965726       0.00000000      -0.00149498       0.00624705      -0.00023771
C       -2.49576458       8.50333275       3.64967369       0.00000000      -0.00582474      -0.00874524       0.00007531
C        4.89832575      -0.04178167       3.65196203       0.00000000      -0.00561471      -0.00473749      -0.00698522
C        3.61823730       2.04239984       3.63709053       0.00000000       0.00859007      -0.00724956       0.00022147
N        1.09446546       6.41824595       4.23729152       0.00000000       0.00871193      -0.01085798       0.00764322
C       -0.03511012       8.49412795       3.75812574       0.00000000       0.00078950      -0.00637035      -0.00196955
C        7.36495190      -0.05270603       3.65729927       0.00000000       0.00892420      -0.00294935       0.00979005
C        6.11592702       2.10722008       3.47454756       0.00000000       0.01128231       0.01026676       0.00379259
C        4.96248372       4.32392751       3.21912559       0.00000000      -0.00859345      -0.00262671      -0.00957489
O        3.76225676       6.39801293       3.47661700       0.00000000       0.00328594      -0.01457256      -0.01043923
C        2.44143575       8.44935960       3.79054672       0.00000000      -0.00399250       0.00888048       0.00323183
C        9.81997045      -0.05665143       3.74972912       0.00000000       0.01110290       0.00862730       0.01044387
C        8.59206315       2.09414751       3.65435681       0.00000000      -0.01016683      -0.01115544       0.00728959
C        7.37990156       4.23887318       3.42890321       0.00000000       0.00555813      -0.00104481       0.00033024
C        6.18609805       6.40989270       3.33469881       0.00000000       0.00140731       0.00068671       0.01561566
C        4.90577180       8.50523970       3.62067663       0.00000000      -0.00534919       0.00369994      -0.00710600
C       -0.05519410       1.36137062       4.05253678       0.00000000      -0.00161331      -0.00319743       0.00195070
C       -1.29803196       3.52581798       4.03443065       0.00000000       0.00200894       0.00179726      -0.00975492
C       -2.49545234       5.65583061       3.69002655       0.00000000      -0.00424822       0.01144170       0.00214023
C       -3.72448048       7.79383368       3.58095610       0.00000000       0.00064459      -0.00007956      -0.00531158
C       -4.97557488       9.92045145       3.76049175       0.00000000      -0.00612736      -0.00244913      -0.00704202
C        2.42348738       1.33622287       3.95375509       0.00000000      -0.00296453       0.00031957      -0.00642720
P        1.21645282       3.51202156       5.17406911       0.00000000       0.00360917       0.00961861      -0.00293593
C       -0.07829928       5.71448199       4.14233817       0.00000000       0.00023145       0.00392545      -0.01180804
C       -1.26876400       7.79346673       3.72404889       0.00000000      -0.00292965      -0.00070657      -0.00960595
C       -2.49676568       9.92426326       3.69077024       0.00000000      -0.01347335      -0.00960889       0.00135714
C        4.87987461       1.39564477       3.57244025       0.00000000       0.01120818       0.00300469      -0.00403995
S        3.36452866       3.66978949       3.10383723       0.00000000       0.00013242      -0.00036516       0.00483826
C        1.17106016       7.75217215       3.91873598       0.00000000       0.00204486      -0.00800015       0.00591889
C       -0.03390824       9.92214319       3.67185882       0.00000000       0.00243288      -0.00310421      -0.00739901
C        7.35094796       1.38545032       3.57993843       0.00000000      -0.00136254      -0.00664427       0.00106886
C        6.13713836       3.53343559       3.34673225       0.00000000       0.00211357       0.00756652       0.00328632
C        4.99843739       5.71351280       3.27715254       0.00000000       0.00188282      -0.00311841       0.00062216
C        3.69889808       7.80990312       3.70366501       0.00000000      -0.00604618      -0.00141867      -0.00665258
C        2.42683893       9.89868231       3.71783166       0.00000000       0.01466370       0.01123190       0.00644955
C        9.82286539       1.38034176       3.79693096       0.00000000      -0.00541852      -0.00009714      -0.00687106
C        8.60424208       3.52002086       3.60471136       0.00000000       0.00269937      -0.01097011      -0.01257114
C        7.40059448       5.66051512       3.40463796       0.00000000       0.00342805       0.00184484       0.00845284
C        6.15423329       7.81792943       3.50064579       0.00000000       0.00247611       0.00669340       0.00345592
C        4.88961287       9.92816141       3.73753423       0.00000000       0.00149039       0.00461462      -0.00319498
Ti       2.81012923       5.42560497       5.02298844       0.00000000      -0.01354059       0.00718538      -0.00324606
O        4.15448350       5.42167959       6.19699539       1.00000000       0.00732093      -0.00703961      -0.00137071
O        2.92709219       6.12935493       6.66209457       1.00000000       0.00421143       0.00101141       0.00703713
