52
Lattice="12.336457 0.0 0.0 -6.168228499999997 10.683685154694365 0.0 0.0 0.0 15.0" Properties=species:S:1:pos:R:3:forces:R:3 energy=-453.9571145724454 free_energy=-453.9571145724454 stress="-0.003927560715292552 0.0020776710130895786 2.9821039430044534e-05 0.0020776710130895786 0.0007698012725050687 -1.9125464714078773e-05 2.9821039430044534e-05 -1.9125464714078773e-05 -3.8365296208743285e-06" pbc="T T T"
C       -0.01391753      -0.01249399       3.78475948       0.00428759       0.00790817       0.00126158
C       -1.24768561       2.11298377       3.89591483      -0.00077421       0.00437298      -0.01234825
C       -2.47808017       4.25129973       3.89068778      -0.00210210      -0.00458438       0.01178197
C       -3.72514209       6.38762615       3.79949776      -0.00961404      -0.00479706       0.00092469
C       -4.96057521       8.52958524       3.71011338       0.00879457      -0.00298431      -0.00144404
C        2.44521835       0.01101493       3.81824008      -0.00716816      -0.00076406       0.00066683
C        1.20860272       2.16330140       3.90387430       0.00155518      -0.00393259       0.00152849
C       -0.03140029       4.25558860       3.98923506       0.00468666       0.00646562      -0.00008230
C       -1.26616330       6.39495532       3.92560665      -0.00981893      -0.00798882      -0.00018174
C       -2.49284765       8.53112063       3.84496999       0.00162281       0.00380509      -0.01217912
C        4.91605006      -0.02286899       3.84923916       0.00015489       0.00061616      -0.00138580
C        3.71372580       2.13526792       3.79023180      -0.00101437       0.00461371      -0.00117648
O        1.12615170       6.41526633       3.92058547       0.01478584       0.00289616       0.00898623
C       -0.02709222       8.51101104       3.86360313      -0.00198444      -0.00562584      -0.00687418
C        7.39013778      -0.04710192       3.85949941       0.00616594      -0.00103387       0.00034635
C        6.17586199       2.08816514       3.81257336      -0.00592748       0.00330793      -0.00649696
C        4.97849960       4.17762073       3.59616223       0.00670253       0.00063610      -0.00528972
P        3.63060226       6.30435162       2.46694477       0.00602284      -0.00950021      -0.00305203
C        2.42298037       8.49156477       3.67580114      -0.00292019      -0.00036986       0.00083451
C        9.85121567      -0.03851792       3.80310902       0.00450154      -0.00303101      -0.00560608
C        8.63034993       2.10177071       3.86987296      -0.00455404      -0.00008295      -0.00687227
C        7.40760665       4.23858372       3.76964404      -0.00142663      -0.00165131      -0.00314047
C        6.16254631       6.37550656       3.55904058       0.00479112       0.00091609       0.00259120
C        4.91084147       8.52455607       3.54275844      -0.00075115       0.00139111       0.00231236
C       -0.01089522       1.41834196       3.86725664       0.00059850       0.00694135      -0.00140936
C       -1.25427435       3.53493165       3.93115847       0.00312381       0.00346577       0.00207176
C       -2.49317450       5.67328899       3.88044101      -0.01532370      -0.00729131       0.00815786
C       -3.73029333       7.81613655       3.78690232       0.00603978      -0.00154710      -0.00194056
C       -4.95190274       9.96374749       3.76843644      -0.00399784      -0.00023768       0.00377521
C        2.45211518       1.45135127       3.84440288       0.00159111      -0.00154910       0.00571232
N        1.16414981       3.53846109       4.00452584      -0.00067392      -0.00469280      -0.00501520
C       -0.07878216       5.67077138       3.98669064       0.00333883       0.00673281      -0.00143647
C       -1.27117859       7.81902416       3.88701581      -0.00540438      -0.00602115      -0.00034839
C       -2.49431025       9.96522882       3.83501042      -0.00433860       0.00450983       0.00767746
C        4.93111528       1.39942207       3.81782828      -0.00302877       0.00149914      -0.00055392
N        3.78662159       3.49710476       3.66948192       0.00878461       0.00521966       0.01159541
C        1.18043304       7.82507264       3.80553502       0.00069662      -0.00071737      -0.00073246
C       -0.01722209       9.94080483       3.85911086       0.00488351      -0.00211158       0.00501842
C        7.40076449       1.38096620       3.85886773      -0.00615956       0.00280198       0.00337441
C        6.19506795       3.49816491       3.72604964       0.00158906       0.00047717      -0.00232368
C        4.95582056       5.60191660       3.41384841       0.01259232      -0.00147615      -0.00682034
C        3.66609837       7.84580032       3.36830118      -0.00744620       0.00110640      -0.01117066
C        2.44542025       9.92407354       3.80275981       0.00479700      -0.00257365       0.00084015
C        9.85969006       1.38993662       3.86923225      -0.00229527      -0.00428456      -0.00307778
C        8.63149453       3.52825299       3.85166980      -0.00318177      -0.00040194       0.00593199
C        7.38918139       5.66810731       3.72005478      -0.00154817      -0.00505146      -0.00117343
C        6.14999304       7.80647061       3.57395505       0.00614283       0.00078024       0.00496828
C        4.91929956       9.94785965       3.72095695       0.00942393       0.00101065       0.00561487
Ti       2.54313881       4.93254510       4.23670333      -0.01192332       0.00338352       0.00969024
O        2.85341960       5.24668403       5.87024632      -0.01227971       0.00917268      -0.00385055
O        2.95456659       5.77649053       7.18052542       0.00890528      -0.00895713      -0.00266370
H        3.28446950       5.01123361       7.70295822      -0.01092178       0.00922894       0.00298335
