51
Lattice="12.336457 0.0 0.0 -6.168228499999997 10.683685154694365 0.0 0.0 0.0 15.0" Properties=species:S:1:pos:R:3:initial_magmoms:R:1:forces:R:3 energy=-445.6838580932982 free_energy=-445.6838580932982 stress="-0.004623537930096164 -0.002420954256696215 1.0319140426721909e-05 -0.002420954256696215 -0.008617950386976016 2.1155229675752785e-05 1.0319140426721909e-05 2.1155229675752785e-05 -1.747708478721844e-05" pbc="T T T"
C        0.07910971      -0.08617465       3.98364419       0.00000000       0.00590875      -0.01340132       0.01108353
C       -1.16348994       2.06450613       3.82506968       0.00000000      -0.01197018       0.04314784      -0.01145477
C       -2.42675315       4.19267313       3.67047042       0.00000000      -0.01909236      -0.01206744       0.00746065
C       -3.63465925       6.32719534       3.84900967       0.00000000      -0.00684133       0.01612015      -0.02616214
C       -4.84705710       8.45721142       4.00741069       0.00000000       0.02669720       0.01604044      -0.01177826
C        2.55239768      -0.13939800       3.87245500       0.00000000       0.04041285       0.01141593       0.01972124
C        1.33310259       1.96632779       3.94281847       0.00000000      -0.01691097      -0.01182797       0.03056038
C       -0.01069239       4.21778063       3.29604630       0.00000000       0.02675082      -0.03619763      -0.01585976
C       -1.21797112       6.33890502       3.37433626       0.00000000       0.02720241       0.00795682      -0.04046061
C       -2.38122937       8.44439111       3.74800533       0.00000000      -0.01497347       0.01675373       0.00449181
C        5.01020857      -0.09329981       3.70487212       0.00000000      -0.01516644      -0.00828282       0.03769995
C        3.74792943       1.97985574       3.55463516       0.00000000      -0.01320926      -0.03784835      -0.02752082
S        1.40485606       6.37547062       2.46261648       0.00000000      -0.00962214       0.00153396       0.00133263
C        0.06889516       8.46254289       3.60862999       0.00000000      -0.01277876       0.02862394       0.02949446
C        7.47362456      -0.06693988       3.75892965       0.00000000      -0.01497200       0.00513832       0.03356685
C        6.21580616       2.08125305       3.70295361       0.00000000       0.00775758      -0.00608747      -0.01587369
C        5.00563605       4.28843021       3.76906224       0.00000000       0.01124424       0.03318885       0.02313939
N        3.85504538       6.41254639       4.22191934       0.00000000      -0.00782847       0.00053630      -0.02514974
C        2.57797341       8.48895509       3.84166004       0.00000000       0.00341003      -0.02241350      -0.00230311
C        9.94599448      -0.06139573       3.92143256       0.00000000      -0.00730076       0.01609633      -0.00621276
C        8.69288348       2.06720327       3.79847079       0.00000000       0.00191804      -0.01315378       0.03877153
C        7.44901851       4.20422520       3.87397415       0.00000000       0.02746122       0.00234684      -0.00602221
C        6.25729536       6.35375929       4.08894251       0.00000000      -0.02266475       0.00558280      -0.02962875
C        5.03615758       8.48843196       4.04662830       0.00000000       0.03614657      -0.04212715      -0.02806411
C        0.07528701       1.33990649       3.92688713       0.00000000      -0.01613954       0.02986365       0.02230934
C       -1.19072330       3.47589844       3.60761997       0.00000000      -0.01357194      -0.00723679      -0.01899639
C       -2.42916751       5.61473960       3.62985191       0.00000000       0.02459602       0.00017291      -0.01854058
C       -3.61750050       7.74357631       3.88006970       0.00000000       0.00525542       0.02141090      -0.01503110
C       -4.85871122       9.87167726       3.97744637       0.00000000       0.03699622       0.00976069      -0.01012648
C        2.55106558       1.27200577       3.80593727       0.00000000      -0.02258844      -0.00384625       0.01199291
P        1.52519648       3.67196817       3.96914199       0.00000000      -0.00821500      -0.00729198      -0.01436684
C       -0.07330311       5.60086450       3.03596866       0.00000000       0.02131010      -0.04069385       0.00236804
C       -1.15508333       7.74965871       3.55604615       0.00000000      -0.02400246       0.05341634      -0.03645491
C       -2.37755785       9.86151214       3.77582091       0.00000000       0.00914383      -0.00592445       0.03564057
C        4.99783420       1.34652502       3.65113156       0.00000000      -0.00707840      -0.03222696      -0.04179901
S        3.55996067       3.64074011       2.98921168       0.00000000      -0.01526882      -0.00158137      -0.02158912
C        1.34273948       7.79803062       3.54380707       0.00000000       0.00683804       0.01295831       0.02538219
C        0.07742923       9.88778842       3.70005801       0.00000000      -0.02488727       0.01091881       0.04207890
C        7.45174917       1.36492181       3.75667116       0.00000000       0.00645461      -0.00456619       0.03999229
C        6.19524011       3.51006626       3.79283851       0.00000000       0.01916498       0.03291192      -0.00250719
C        5.01712171       5.67780943       4.07254567       0.00000000      -0.02670468       0.00135838       0.01965663
C        3.81959686       7.77546016       4.02759968       0.00000000       0.00233883      -0.01857215       0.03860815
C        2.54906350       9.91460239       3.85355888       0.00000000       0.00054965       0.00115198      -0.02117613
C        9.93933465       1.36028095       3.85804367       0.00000000      -0.00993041       0.02212863      -0.01134227
C        8.68153996       3.48796095       3.79496102       0.00000000       0.01515703      -0.02827546      -0.01581484
C        7.47066740       5.62139972       3.96528742       0.00000000      -0.02303886       0.02097403      -0.01554104
C        6.25794840       7.76825919       4.08706355       0.00000000       0.02446617      -0.02258795      -0.01915751
C        5.01269032       9.90728498       3.99178868       0.00000000      -0.00297230      -0.03695696       0.00099785
Ti       1.99425727       6.19493782       5.05962329       0.00000000      -0.01768435       0.04679522       0.02746870
O        1.80901981       7.09315112       6.43778292       1.00000000      -0.00006005      -0.03774669      -0.02919015
O        1.70894528       4.31190369       5.40374138       1.00000000      -0.00170722      -0.01738952       0.03430632
