52
Lattice="12.336457 0.0 0.0 -6.168228499999997 10.683685154694365 0.0 0.0 0.0 15.0" Properties=species:S:1:pos:R:3:forces:R:3 energy=-451.0260297715129 free_energy=-451.0260297715129 stress="-0.0043692633984485875 -0.004486875774810212 5.57712423830492e-05 -0.004486875774810212 -0.0008607491393614026 -3.052682773063148e-05 5.57712423830492e-05 -3.052682773063148e-05 -6.46641642436662e-05" pbc="T T T"
C       -0.03446873       0.04662058       3.98083735      -0.00781951      -0.00783619      -0.00933376
C       -1.30673406       2.15960745       4.00804351      -0.00060523      -0.00172594      -0.00921737
C       -2.53119629       4.31192315       3.91249476      -0.00096394      -0.00075950       0.00047439
C       -3.72134624       6.46374787       3.86617300      -0.00090773       0.00577560       0.00350546
C       -4.94462829       8.60899971       3.92902366       0.00646922       0.00481153       0.00302208
C        2.43094874       0.06486918       3.86203964      -0.00735622      -0.00215242       0.00909288
C        1.15157570       2.16357860       3.94673250       0.00170402      -0.00479176      -0.00384770
C       -0.12437289       4.27033969       3.92139588       0.00381188      -0.00476005       0.00010632
C       -1.27220743       6.43237594       3.71267111       0.00782468      -0.00647154      -0.00406187
C       -2.47653695       8.58770971       3.79027359      -0.00169123      -0.00799974      -0.00741617
C        4.89389258       0.04907113       3.71226995       0.00135179      -0.00172995       0.00134555
C        3.62905845       2.14995951       3.47385254       0.00126731       0.00654867      -0.00311631
S        1.32365696       6.28184830       2.86030767      -0.00166980      -0.00553012       0.00087320
C       -0.01700728       8.57464434       3.63700518       0.00278693       0.00139881      -0.00892955
C        7.35612865       0.04000076       3.79542342       0.01186058      -0.00208314      -0.00310280
C        6.10829153       2.20033247       3.63995215      -0.00189860       0.00273122      -0.00796799
C        4.96342658       4.41637148       3.50611680      -0.00358579      -0.00793087       0.00878980
N        3.77700757       6.48722850       4.04943782       0.00309297       0.00906353       0.01722563
C        2.44781453       8.56631354       3.81766014      -0.00363722       0.00308635      -0.01036807
C        9.81930913       0.03182710       3.96322350       0.00060235       0.00033105      -0.00140971
C        8.57088499       2.17785860       3.88469832      -0.00902383      -0.00364537      -0.00016666
C        7.36144895       4.33146857       3.80118126       0.00070616       0.00142246       0.00364515
C        6.17829415       6.49735024       3.86184480       0.00621579      -0.00013898       0.00552530
C        4.91572990       8.59040788       3.95638047       0.00974483       0.00184522       0.00555068
C       -0.05064881       1.47583118       3.99243557      -0.00030057      -0.00824087      -0.00234712
C       -1.31955752       3.57167923       3.97599930       0.00238876      -0.00339625       0.00513441
C       -2.50393951       5.73250691       3.84620349      -0.00094054       0.00421164      -0.00156808
C       -3.71369827       7.88757410       3.86866013      -0.00030203      -0.00005548      -0.00729650
C       -4.96106696      10.03502374       3.94350666      -0.00837582      -0.00063349      -0.00264156
C        2.40098552       1.50254425       3.79385539       0.00125512       0.00301139       0.00662997
O        1.08181591       3.56311443       4.10632649       0.00091680       0.00221727      -0.02445225
C       -0.10324283       5.63330742       3.61334393       0.01275398      -0.00506135      -0.00156698
C       -1.24957981       7.86028533       3.68153292       0.00124140      -0.00550094      -0.00581988
C       -2.49889522      10.02459755       3.78599003      -0.00461874      -0.00533251       0.00209248
C        4.87251917       1.48816065       3.60081804      -0.00024533       0.00457857      -0.00433764
S        3.52559018       3.76039235       2.80680986       0.00626051      -0.00746133       0.00098380
C        1.23524546       7.91177544       3.51649371      -0.00340113      -0.00336308      -0.00837870
C       -0.03566480      10.01210914       3.72217474       0.01236896       0.00482740      -0.00573644
C        7.33464773       1.47696400       3.78193591      -0.00579491      -0.00323774      -0.00684648
C        6.12597607       3.63027274       3.64264776       0.00106754      -0.00245107       0.00803241
C        4.94533160       5.81334568       3.80315390       0.00002200      -0.00139572       0.01047849
C        3.70371116       7.84838693       3.94753957       0.00264153       0.00941112       0.00217816
C        2.42493351      10.00272863       3.88311278       0.00710485       0.00046629      -0.00702645
C        9.80869419       1.45862264       3.96711887      -0.00335107       0.00060612       0.00239386
C        8.57557640       3.60261932       3.87924352      -0.00200294      -0.00188847       0.00231269
C        7.38448546       5.75605803       3.84733920       0.00497079       0.00260761       0.00688840
C        6.16325297       7.90570821       3.93740504       0.01293602       0.00404753      -0.00234821
C        4.89600002      10.01446991       3.97881083      -0.00323747      -0.00084700       0.00188208
Ti       2.38302436       5.11165500       4.96549178      -0.01360703      -0.00025651      -0.01711828
O        1.54643075       6.06449267       6.02270543      -0.03778831      -0.01447709       0.04513616
O        3.36021743       3.89291351       6.00601991       0.00493901       0.07911621      -0.00901353
H        3.61494048       4.05081706       6.93214825      -0.00518078      -0.03096108       0.02213673
