51
Lattice="12.336457 0.0 0.0 -6.168228499999997 10.683685154694365 0.0 0.0 0.0 15.0" Properties=species:S:1:pos:R:3:initial_magmoms:R:1:forces:R:3 energy=-442.03072282581826 free_energy=-442.03072282581826 stress="-0.003936903641645229 0.001121523881256009 6.297120169239221e-07 0.001121523881256009 -0.0024946968614006615 -8.16378972102828e-06 6.297120169239221e-07 -8.16378972102828e-06 -5.898624564439132e-06" pbc="T T T"
C       -0.06557044      -0.01675722       3.86301476       0.00000000       0.00764854      -0.00469133      -0.00205089
C       -1.29334814       2.13120646       3.91548696       0.00000000      -0.00374559      -0.00349480      -0.00978502
C       -2.54508166       4.26615695       4.16231940       0.00000000      -0.00735457       0.00846549      -0.00742822
C       -3.77417315       6.40422140       4.10192900       0.00000000      -0.00232767      -0.00201522      -0.00686080
C       -5.01107837       8.53125672       3.92617024       0.00000000       0.00263726       0.00051239      -0.01230174
C        2.40280009      -0.02106097       3.81270907       0.00000000      -0.01081089       0.00666463      -0.00801848
C        1.15501828       2.05036016       3.43319090       0.00000000       0.00242529      -0.00441146       0.00287736
C       -0.15627830       4.33462165       3.85058030       0.00000000       0.00156507       0.00169186      -0.00041266
C       -1.32791512       6.42878165       4.20890924       0.00000000      -0.00080234      -0.00078523       0.00101739
C       -2.54478301       8.54583568       4.09436296       0.00000000       0.00331436       0.00747241      -0.00070531
C        4.87251703      -0.01945079       3.85890650       0.00000000      -0.00207865       0.00252317      -0.00424664
C        3.66374377       2.01191989       3.23030652       0.00000000       0.00438912      -0.00969666       0.00307438
N        1.09504718       6.41962468       3.95813670       0.00000000      -0.00700036       0.01006383       0.00602130
C       -0.07290016       8.52501815       4.03276454       0.00000000      -0.00076441      -0.00048136      -0.00071470
C        7.33815069      -0.02414807       3.93193572       0.00000000       0.00060632      -0.00192198       0.00307548
C        6.12463071       2.10899273       3.65299175       0.00000000       0.00710817       0.00458733      -0.00407587
C        5.09992533       4.27064240       3.01597473       0.00000000       0.00847365      -0.00452198      -0.01125209
S        3.70054765       6.52122536       2.29121620       0.00000000      -0.00081129      -0.00649062       0.00474954
C        2.39331800       8.51156548       3.76690874       0.00000000      -0.00436021      -0.00625372      -0.00233651
C        9.80344912      -0.02085560       3.91566933       0.00000000      -0.00018516      -0.01161830       0.00385292
C        8.57405333       2.11992965       3.99050456       0.00000000      -0.00225769       0.00568014      -0.00086022
C        7.36013404       4.25623715       3.86393064       0.00000000      -0.00048443      -0.00188827      -0.00490801
C        6.16772225       6.41284412       3.56430015       0.00000000       0.00027643      -0.00018257       0.00378349
C        4.87111791       8.53247532       3.67922657       0.00000000       0.00152258       0.00802921       0.00597445
C       -0.06294230       1.41605196       3.76832998       0.00000000       0.00284877      -0.00627488      -0.00381849
C       -1.31596952       3.55340900       4.03126569       0.00000000      -0.00515349       0.00450863       0.00563051
C       -2.54718575       5.69201070       4.20607243       0.00000000      -0.00183791       0.00317960      -0.00430938
C       -3.77691916       7.82728233       4.06481513       0.00000000       0.00268559       0.00156087       0.00200096
C       -5.00305478       9.95922170       3.89040675       0.00000000       0.00043297      -0.00132776       0.00239637
C        2.40724245       1.37848062       3.48310845       0.00000000       0.00030907      -0.00137077      -0.00466589
S        1.04838655       3.67129244       2.79718185       0.00000000       0.00808903      -0.00729608      -0.01387413
C       -0.10248345       5.74116805       4.05700182       0.00000000       0.00131429       0.00601211      -0.00706161
C       -1.31349400       7.84046360       4.14781709       0.00000000       0.00440881      -0.00179122       0.00408323
C       -2.53355475       9.96257421       3.93826613       0.00000000      -0.00971964       0.01152593      -0.01051856
C        4.88419085       1.39176841       3.58274575       0.00000000       0.00588859       0.00352474       0.01052536
S        3.74785548       3.46909573       2.25329268       0.00000000      -0.01079874       0.00633259       0.00138854
C        1.14288549       7.79038414       3.92076504       0.00000000      -0.00514800       0.00438273       0.00645785
C       -0.06293929       9.95056643       3.95535461       0.00000000      -0.00101140      -0.00132287      -0.00145739
C        7.33665258       1.40611538       3.88579742       0.00000000       0.00143470       0.00385128      -0.00013174
C        6.17933713       3.52557957       3.52953160       0.00000000       0.00356430       0.00090633      -0.00187235
C        5.08500569       5.68155656       3.03497651       0.00000000       0.00337750      -0.00344392       0.00090401
C        3.62896440       7.88327272       3.43109401       0.00000000      -0.00000480       0.00735010       0.01305770
C        2.40066800       9.94548628       3.90593346       0.00000000      -0.00222548      -0.01155388       0.00553690
C        9.81530856       1.41296723       3.97772239       0.00000000      -0.00539020      -0.00710994       0.00503464
C        8.57226796       3.54291757       4.05356617       0.00000000      -0.00296754       0.00581107      -0.00028367
C        7.35617452       5.68609224       3.87945907       0.00000000      -0.00344834      -0.00623920       0.00449929
C        6.11071490       7.82485630       3.71265992       0.00000000      -0.00001048       0.00261260       0.00082237
C        4.86601891       9.95328715       3.86044822       0.00000000       0.00801158       0.00120899       0.00548160
Ti       2.72884976       5.10856885       4.10277730       0.00000000       0.00217835      -0.00944313       0.01695753
O        3.48558047       5.50775884       5.68427154       1.00000000       0.00687801      -0.01052269      -0.00320187
O        2.97129288       4.10882922       5.57793028       1.00000000      -0.00068910       0.00769180       0.00794902
