53
Lattice="12.336457 0.0 0.0 -6.168228499999997 10.683685154694365 0.0 0.0 0.0 15.0" Properties=species:S:1:pos:R:3:forces:R:3 energy=-464.86846053105785 free_energy=-464.86846053105785 stress="0.0001675443899200512 0.0006184399052186634 1.7786879707720927e-05 0.0006184399052186634 -0.005784229414071004 -3.068371425179245e-05 1.7786879707720927e-05 -3.068371425179245e-05 -8.172673715606748e-06" pbc="T T T"
C       -0.02335432       0.00879508       3.88246476      -0.00930459       0.00425553      -0.00957420
C       -1.24669059       2.15682297       3.98625785       0.00608012       0.00427633       0.00498098
C       -2.47879221       4.28908521       3.92413944       0.00565260       0.01373822       0.01415985
C       -3.72248601       6.41549019       3.82436683       0.00776965      -0.00973664      -0.00213343
C       -4.96207049       8.54584509       3.78663708      -0.00419373      -0.01018710      -0.00615579
C        2.44411193      -0.01654411       3.90660028      -0.00562224       0.00703988       0.00133687
C        1.22170626       2.12953853       4.02488837       0.00752092      -0.01924109       0.01008197
C        0.01076490       4.28286393       3.86690233      -0.00798831       0.00781875       0.01229769
C       -1.24531874       6.40728361       3.59333394      -0.00396034       0.00110788       0.00214252
C       -2.48158484       8.54207856       3.71320266      -0.01516443      -0.01440709      -0.00465566
C        4.91339561      -0.00240880       3.82011762      -0.00225163       0.01666106       0.00085738
C        3.66976559       2.09961205       4.01919667       0.00557427       0.01113106      -0.00517167
N        2.45627073       4.16147289       4.30316488      -0.00960732      -0.04293215       0.00787119
P        1.23268372       6.34847274       2.41070566      -0.00117018      -0.00850196      -0.00967565
C       -0.03578126       8.59116094       3.40156140      -0.00035162      -0.00268447      -0.01096621
C        7.37347138       0.04026699       3.72233976       0.00550352       0.01264624      -0.00287264
C        6.14252728       2.13755847       3.97650169      -0.00888638       0.00382550       0.00396226
C        4.89314145       4.23729266       3.99321445       0.00558738      -0.01921719       0.02289896
P        3.61338703       6.31542741       2.64420121       0.03890994      -0.00660185      -0.02373831
C        2.43460662       8.67365593       3.23330203      -0.00021447       0.00585533       0.01071885
C        9.84964182       0.04390447       3.76683386      -0.00306576      -0.01021465      -0.01842525
C        8.61471797       2.15998014       3.95050591      -0.00298395      -0.00144526       0.01599283
C        7.37514208       4.28454084       3.96508799       0.00722802       0.00203797      -0.00731718
C        6.13645408       6.42194549       3.77678782       0.00535430       0.00319309       0.00006395
C        4.91299238       8.58713894       3.56016275       0.00453497       0.01547018      -0.01032990
C       -0.01867393       1.43207487       3.97406232       0.00511888      -0.00043417       0.00005944
C       -1.23454152       3.57976543       3.96355888      -0.00254119       0.00717473      -0.00173966
C       -2.48239707       5.70708537       3.80603512       0.00754193       0.01033445       0.00083242
C       -3.72305813       7.83620293       3.77969387      -0.01173544      -0.02384213      -0.00999598
C       -4.96173696       9.96612540       3.86090207      -0.01457078      -0.00288442      -0.01378890
C        2.44155873       1.39997748       4.00379324       0.01281307       0.01608058      -0.01127045
C        1.24923811       3.54689081       4.06856738      -0.02077430      -0.02716990       0.00830033
C       -0.03343810       5.65427330       3.46531891      -0.00660523       0.00800243       0.00543320
C       -1.25236733       7.84053965       3.53436387      -0.00135772      -0.00600270       0.00546791
C       -2.48709619       9.96297619       3.80948689      -0.00106068      -0.00455032       0.01043497
C        4.91303725       1.41303816       3.95328681      -0.00873229       0.01378314      -0.01235595
C        3.65494747       3.50619865       4.09782978      -0.00069918       0.00451097       0.01364973
C        1.19601217       7.98495203       3.05116543      -0.00447117       0.00652890      -0.01215962
C       -0.02642645       9.99919445       3.65463880       0.00190881       0.00457198      -0.00688649
C        7.37857074       1.44532622       3.90540552      -0.01080275       0.00764289      -0.00405606
C        6.13851961       3.55781602       4.00420363       0.01101823      -0.00338817       0.00300761
C        4.88502550       5.67111583       3.77315761       0.00851090      -0.00889345       0.01021697
C        3.67500557       7.96204678       3.22972002       0.00128257       0.02118043       0.01512591
C        2.44363630      10.04692580       3.58267394      -0.01136827       0.00522727       0.00370857
C        9.85175854       1.45370357       3.92463197       0.00457173      -0.01088014      -0.00992105
C        8.61538351       3.58152359       3.97260696       0.00853771       0.00574661      -0.00326059
C        7.36934952       5.71046064       3.88043320       0.00664877       0.00620797       0.02048441
C        6.13351145       7.83949306       3.69351950       0.00012221      -0.01184487       0.01184150
C        4.91259958      10.00268859       3.74659747       0.00552199       0.00441610      -0.00909249
Ti       3.13666736       5.85584712       5.34389977      -0.00710055      -0.00181336      -0.03500508
O        1.88479691       6.88249341       5.71003854      -0.02130779      -0.03150294       0.03947796
O        3.90875785       5.14567001       6.87402904       0.05188600       0.04518075       0.00339465
H        4.32597432       5.57264233       7.64027543      -0.02730620       0.00272977      -0.01825267
