52
Lattice="12.336457 0.0 0.0 -6.168228499999997 10.683685154694365 0.0 0.0 0.0 15.0" Properties=species:S:1:pos:R:3:forces:R:3 energy=-447.70055623532784 free_energy=-447.70055623532784 stress="-0.0039039863437873926 -0.0001401719014895185 3.080568249408306e-05 -0.0001401719014895185 -0.0007780862792242716 2.0131580499845358e-05 3.080568249408306e-05 2.0131580499845358e-05 -4.292075723752525e-06" pbc="T T T"
C        0.00637907       0.04525114       3.79732596      -0.00378783      -0.00476434      -0.00965390
C       -1.23239630       2.18369555       3.73133368      -0.00650702       0.00647225      -0.00409376
C       -2.47295808       4.31715666       4.00928442       0.00245112      -0.00063132       0.00127499
C       -3.69696975       6.46066670       4.12180320       0.00985594      -0.00521952      -0.00385231
C       -4.92793102       8.60239943       4.01552190      -0.00322325      -0.00033715      -0.00107286
C        2.47463707       0.03355992       3.70716227       0.00690455      -0.00294573       0.00757683
C        1.21833400       2.09267105       3.24463599       0.00223239      -0.01197305      -0.00397510
C       -0.07965458       4.38219605       3.60651055       0.00289055      -0.00370261       0.00712591
C       -1.25698193       6.47880095       4.02073767      -0.00344654       0.00029986      -0.00429272
C       -2.46586714       8.60124832       4.00269299      -0.00727555       0.00259290      -0.00052858
C        4.94428920       0.03441557       3.77764931      -0.00086463       0.00602449       0.00533356
C        3.73292148       2.08981243       3.22295747      -0.00174052       0.01016622      -0.00799256
N        1.15622130       6.46427992       3.81500560      -0.01441897       0.00044722       0.00146615
C        0.00601514       8.57583708       3.94234208      -0.00061316      -0.00301534      -0.00303680
C        7.41225622       0.02634495       3.86592480      -0.00006583       0.00534774       0.01420193
C        6.17465388       2.18371463       3.73253094      -0.00414673      -0.00020385      -0.00120116
C        4.98974153       4.38419714       3.65623955       0.00152168       0.00989696       0.00815725
O        3.80583466       6.50393347       3.80712187      -0.00727284      -0.00417763      -0.00402522
C        2.48163947       8.53686737       3.91359124       0.01671511      -0.00498321      -0.00763418
C        9.87050439       0.02851076       3.87746293      -0.00157658       0.00135846       0.00119518
C        8.63797595       2.17718230       3.91600663       0.00534039       0.00409316      -0.00716219
C        7.40130469       4.31652661       4.02174197       0.00461715      -0.00600287      -0.00141546
C        6.20175282       6.48118528       4.05967666       0.00069526       0.00333287       0.00280250
C        4.94623602       8.59303301       3.97370657      -0.00030145      -0.00382055       0.00033266
C        0.00250976       1.46685816       3.59693099      -0.00677061      -0.00108047      -0.01046194
C       -1.24956625       3.60698221       3.80450817      -0.00167874       0.00422346       0.00658622
C       -2.47135869       5.74378992       4.07965281       0.00791420      -0.00571900      -0.00447115
C       -3.69496182       7.88700802       4.06926481      -0.00358190      -0.00192527      -0.00112226
C       -4.92599648      10.02309976       3.85091013       0.00302548      -0.00131278       0.00165733
C        2.47526504       1.43519271       3.36107289       0.00498432      -0.00373717       0.00701904
S        1.10120797       3.69140605       2.50815038       0.01034988       0.00577366      -0.00003562
C       -0.04234096       5.78797194       3.82739060      -0.00754395      -0.00342999       0.00623240
C       -1.23817200       7.89144963       4.01488616      -0.00775534       0.00088635      -0.00143821
C       -2.46155420      10.01735065       3.83868233       0.00367862       0.00183691       0.00290628
C        4.94525551       1.45796170       3.58307452      -0.00576221       0.00528173      -0.00285678
S        3.87406886       3.67043737       2.43789525       0.00152190       0.00228198      -0.00001063
C        1.21734142       7.83196039       3.90766810       0.00782708       0.00095016      -0.00943929
C        0.01100867      10.00284097       3.87569417      -0.00123842       0.00017585       0.00225450
C        7.40062685       1.46360799       3.85264974       0.00238646       0.00717385       0.00504991
C        6.18354220       3.60347607       3.82700972      -0.00145924      -0.00103237       0.00166721
C        5.01826892       5.77779530       3.86519424      -0.00341700       0.00818946      -0.00002267
C        3.73482178       7.90738718       3.93325990       0.00833170      -0.01192398      -0.01019348
C        2.47460883       9.98397602       3.89769521       0.00237725      -0.00138252      -0.00142391
C        9.87898453       1.46740083       3.85495490       0.00044144       0.00337288       0.00762075
C        8.63552843       3.59921140       4.00744695       0.00580124      -0.00094730      -0.00277394
C        7.41638773       5.74171171       4.09792721       0.00647319      -0.00297394       0.00270367
C        6.18894633       7.89904286       4.04265960      -0.00337397       0.00162160       0.00552500
C        4.93894361      10.01919103       3.89837463      -0.00451323      -0.00386179       0.00337656
Ti       2.50648966       4.97519837       3.95740939      -0.00012990       0.00597516       0.00320178
O        2.48541332       4.32027192       5.51346950       0.00219000      -0.00040193      -0.00825385
O        2.50432376       3.60284384       6.73636516      -0.01334628       0.00192248       0.00481382
H        2.58648695       4.32098738       7.40443098      -0.00471521      -0.00819197       0.00235911
