52
Lattice="12.336457 0.0 0.0 -6.168228499999997 10.683685154694365 0.0 0.0 0.0 15.0" Properties=species:S:1:pos:R:3:forces:R:3 energy=-448.4443311333107 free_energy=-448.4443311333107 stress="-0.002120348667601312 0.003082965113399383 -3.902007528978787e-06 0.003082965113399383 -0.003144109692466272 2.6158688551781915e-05 -3.902007528978787e-06 2.6158688551781915e-05 5.300427463071483e-07" pbc="T T T"
C       -0.07178848      -0.08957550       3.88324133       0.00705430      -0.00139381       0.01372293
C       -1.27797859       2.06856949       4.08327486      -0.00167667      -0.00536422      -0.00065803
C       -2.53468900       4.20059902       3.93772823       0.00128636       0.00249873      -0.00293675
C       -3.77278460       6.32524842       3.71069016       0.00305722       0.00085847      -0.00166809
C       -5.03324530       8.44693338       3.68057250      -0.00093777       0.00174808       0.00821179
C        2.38910635      -0.10694775       3.71382610       0.00137135       0.00050866       0.01559020
C        1.21624411       2.00057849       4.06894990      -0.00552150       0.00368378      -0.00136889
C       -0.14820512       4.28093713       4.38043718      -0.01679657       0.00656204      -0.00580244
C       -1.34656430       6.36623879       4.03404194       0.00481613       0.00387033       0.00307976
C       -2.55920245       8.46375124       3.78092772      -0.00455793      -0.00126979       0.00367794
C        4.86343223      -0.09155519       3.68769955      -0.00291592       0.00021225       0.00294967
C        3.62974876       1.96174258       3.29733432       0.00423242      -0.00836448       0.00192900
N        1.03953392       6.41179368       4.41625593       0.00868335      -0.00164950       0.00776647
C       -0.10182366       8.47488591       3.97797088      -0.00070630      -0.00267401      -0.00155125
C        7.32835329      -0.07757684       3.86846964      -0.00568341       0.00034183      -0.00385535
C        6.12638163       2.03106765       3.44516943       0.00655920       0.00476787      -0.00358950
C        5.03320984       4.16978115       2.87694885      -0.01301843      -0.00253579      -0.00411861
S        3.40815990       6.24670939       2.90506164      -0.00266038       0.00199745      -0.00028076
C        2.36629578       8.46399963       4.00393875       0.00333708       0.00281396       0.00148429
C        9.80258491      -0.08250022       3.95280665      -0.00115500       0.00099496      -0.00628094
C        8.58310301       2.05487316       3.82421547       0.00837320      -0.00365551      -0.01241606
C        7.37562270       4.17708193       3.50498883      -0.00294289      -0.00060615      -0.00253946
C        6.13013103       6.32302993       3.36350212      -0.00113802       0.00215143       0.00058117
C        4.84576040       8.44931626       3.70824436       0.00144364       0.00885215      -0.00300320
C       -0.04767950       1.34626070       4.03802739      -0.00219706      -0.00031743      -0.00151230
C       -1.29986865       3.50015222       4.14089170      -0.00866524      -0.00170057       0.00430709
C       -2.54714960       5.62261137       3.89424501       0.00780337       0.00459492      -0.00409974
C       -3.78971227       7.74571142       3.71494214      -0.00275346      -0.00065997      -0.00248565
C       -5.02160244       9.87338570       3.77369179       0.00422709      -0.00109434      -0.00821124
C        2.40893073       1.31099969       3.69163843      -0.00206068      -0.00367790      -0.00098453
S        1.34993893       3.56343489       4.77575982       0.01600400      -0.01045219       0.00260479
C       -0.12406573       5.70137399       4.30460173      -0.00211271       0.00601282       0.00573905
C       -1.33399739       7.77127509       3.92658340      -0.00190038       0.00064540       0.00249783
C       -2.54214231       9.87986101       3.70813600      -0.00234055      -0.00060074       0.00612968
C        4.87888015       1.32430942       3.46579651       0.00636640      -0.00183713      -0.00717516
S        3.54199585       3.40786034       2.37478829       0.00192598       0.00690784      -0.00658054
C        1.10899571       7.74744672       4.13927289       0.00467957      -0.00042293      -0.00510750
C       -0.07559638       9.89250338       3.84306890      -0.00641855      -0.00097544       0.00151637
C        7.34034656       1.34145045       3.71636556       0.00459350       0.00207243       0.00490092
C        6.17286429       3.43888858       3.25635688      -0.00780260       0.00193499      -0.00879545
C        5.00268507       5.56358944       3.01193715       0.00065657      -0.00130491       0.00242514
C        3.58559933       7.78707657       3.71739776       0.00484229      -0.00395475       0.01770916
C        2.38866582       9.89444633       3.97183854      -0.00320338       0.00424805      -0.00202692
C        9.82207366       1.35351241       3.97043310       0.00388183      -0.00546161      -0.00315171
C        8.58878317       3.47566697       3.75968031       0.00208025      -0.00220913      -0.00704305
C        7.35911849       5.60268263       3.51794530       0.00069132       0.00030350       0.00097641
C        6.07463100       7.73792909       3.57259593      -0.00159652       0.00648641       0.00629930
C        4.85793575       9.87934384       3.87544270       0.00340753       0.00724489      -0.00300537
Ti       2.84260580       5.50005413       5.31583390       0.00085691      -0.00624675       0.00152419
O        3.87124087       4.23555019       5.65073948      -0.01423184      -0.01200520      -0.00263799
O        2.73762054       6.64657911       6.77930184      -0.00400283       0.00056578       0.00793284
H        3.26403341       6.62333228       7.59620426       0.00676574      -0.00244476      -0.01066952
