51
Lattice="12.336457 0.0 0.0 -6.168228499999997 10.683685154694365 0.0 0.0 0.0 15.0" Properties=species:S:1:pos:R:3:initial_magmoms:R:1:forces:R:3 energy=-452.8594691947141 free_energy=-452.8594691947141 stress="-0.004751651494299082 -0.0021122868036797145 4.4563362513723696e-06 -0.0021122868036797145 0.0017339217639500157 -3.3968444429997423e-06 4.4563362513723696e-06 -3.3968444429997423e-06 -6.843347257985797e-06" pbc="T T T"
C       -0.02756361       0.00919963       3.80800428       0.00000000       0.00140047      -0.00191133       0.00403901
C       -1.27845477       2.12899591       3.82644645       0.00000000      -0.00135096      -0.00151146       0.00156302
C       -2.49279466       4.27065791       3.79079372       0.00000000       0.00169597      -0.00277409       0.00007000
C       -3.70577670       6.42195719       3.74576254       0.00000000       0.00117680      -0.00018968      -0.00144945
C       -4.94283545       8.56986241       3.77629093       0.00000000       0.00110002      -0.00448541      -0.00418723
C        2.44033392       0.02652440       3.78102801       0.00000000      -0.00307201       0.00010908      -0.00133952
C        1.17540530       2.17795949       3.83804549       0.00000000       0.00131006       0.00279756      -0.00142027
C       -0.04006027       4.25018668       3.97163434       0.00000000       0.00213719       0.00499025      -0.00300208
C       -1.26534714       6.41564197       3.88037993       0.00000000      -0.00259724      -0.00021664      -0.00183995
C       -2.48587263       8.56031355       3.80723988       0.00000000       0.00168543       0.00187634       0.00329484
C        4.90912727       0.00565112       3.67937578       0.00000000      -0.00417925       0.00370691       0.00081741
C        3.64712573       2.09257976       3.36283386       0.00000000       0.00281568       0.00571763      -0.00222181
N        1.12295637       6.41936444       4.04446859       0.00000000       0.00149722      -0.00543000       0.00267927
C       -0.02531407       8.53364413       3.83479421       0.00000000       0.00056614      -0.00539817       0.00057755
C        7.37597042      -0.02081025       3.71085507       0.00000000      -0.00193340       0.00113449      -0.00171736
C        6.13984025       2.14002135       3.47703940       0.00000000       0.00018486       0.00152748       0.00044220
C        5.00701354       4.35372618       3.23438616       0.00000000      -0.00594270      -0.00176370       0.00310958
N        3.78978449       6.41849213       3.66336835       0.00000000       0.00582249       0.00080099       0.00260628
C        2.44513210       8.48510977       3.82640547       0.00000000       0.00026284       0.00077690      -0.00215021
C        9.83287956      -0.02402299       3.77320984       0.00000000       0.00483483      -0.00041042      -0.00121876
C        8.60135113       2.12811932       3.68955243       0.00000000       0.00176846      -0.00238240       0.00044452
C        7.39939256       4.28136698       3.58207350       0.00000000      -0.00418491      -0.00180373       0.00252711
C        6.20153187       6.45098768       3.59116290       0.00000000      -0.00265258       0.00047540       0.00114529
C        4.92265101       8.54226688       3.74393811       0.00000000      -0.00060170       0.00139191       0.00230274
C       -0.03833220       1.43776619       3.83215958       0.00000000      -0.00051930      -0.00146248       0.00262956
C       -1.27361292       3.54863150       3.86157504       0.00000000       0.00366499       0.00003792      -0.00270263
C       -2.48634140       5.69746113       3.80745667       0.00000000      -0.00046869      -0.00161402       0.00080604
C       -3.71306172       7.84829292       3.78348112       0.00000000       0.00437479      -0.00138389      -0.00258581
C       -4.95628747       9.99350108       3.81189339       0.00000000      -0.00044316      -0.00572162      -0.00107047
C        2.42625844       1.45731966       3.69404620       0.00000000       0.00167256       0.00253201      -0.00315833
N        1.13004668       3.53823359       4.01225172       0.00000000       0.00185556       0.00355763      -0.00147875
C       -0.04213310       5.70848517       3.98205082       0.00000000      -0.00210380       0.00295358      -0.00156231
C       -1.25899907       7.83920368       3.84532086       0.00000000      -0.00095979      -0.00140114      -0.00093047
C       -2.49158414       9.99047803       3.76191400       0.00000000      -0.00300251       0.00259506       0.00370346
C        4.90015328       1.43215058       3.49726258       0.00000000       0.00052219       0.00574687      -0.00107996
S        3.56557725       3.65380277       2.56122714       0.00000000       0.00407703      -0.00126753       0.00186015
C        1.19065079       7.78204703       3.90502976       0.00000000       0.00354146      -0.00541777       0.00396599
C       -0.02294637       9.96174329       3.74002767       0.00000000      -0.00418285      -0.00152054      -0.00023205
C        7.36387424       1.41654505       3.62286645       0.00000000       0.00087679       0.00050604      -0.00081978
C        6.16722825       3.57240640       3.41716182       0.00000000      -0.00567564      -0.00193685       0.00309692
C        4.98058411       5.75959592       3.47165036       0.00000000      -0.00013446      -0.00239327      -0.00165881
C        3.70737372       7.78635853       3.75827848       0.00000000       0.00136434      -0.00061941       0.00022977
C        2.43734303       9.92475615       3.77144623       0.00000000       0.00262640       0.00356417      -0.00443898
C        9.82918565       1.40798450       3.76742874       0.00000000       0.00137107      -0.00204744       0.00075798
C        8.61438902       3.55615515       3.68795365       0.00000000       0.00017108      -0.00208231      -0.00022487
C        7.41016522       5.70983961       3.63120064       0.00000000      -0.00268448       0.00139869       0.00107239
C        6.17093998       7.86081004       3.70962027       0.00000000      -0.00317394       0.00094613       0.00120949
C        4.90585487       9.96552790       3.78477705       0.00000000       0.00274767       0.00065165      -0.00144725
Ti       2.58085745       4.99692117       4.53658895       0.00000000      -0.00365094       0.00625863      -0.01629900
O        2.53903360       5.31476872       6.29926110       1.00000000      -0.00073296       0.00237896      -0.00356391
O        3.51107438       4.25999375       5.87401957       1.00000000      -0.00287712      -0.00128700       0.01884942
