52
Lattice="12.336457 0.0 0.0 -6.168228499999997 10.683685154694365 0.0 0.0 0.0 15.0" Properties=species:S:1:pos:R:3:forces:R:3 energy=-449.05583419826905 free_energy=-449.05583419826905 stress="-0.007037215365638115 0.003942962623933786 2.768425870641007e-06 0.003942962623933786 -0.005904651744149882 -6.32485457172106e-06 2.768425870641007e-06 -6.32485457172106e-06 -1.8975317589112944e-05" pbc="T T T"
C        0.04155933      -0.03593337       3.77000640       0.00643149       0.00623040      -0.00084997
C       -1.16128875       2.12244532       3.63108467       0.00160465       0.00113595       0.00072835
C       -2.41881766       4.25631250       3.63055679       0.00106894       0.00052779       0.00410906
C       -3.66603960       6.38661522       3.72272300      -0.00267328      -0.00178716      -0.00688730
C       -4.90879303       8.50898874       3.76798783      -0.00093484      -0.00278918      -0.00389971
C        2.50526765      -0.05490786       3.95302405      -0.00066481       0.00436076       0.00147397
C        1.32196690       2.05097721       3.79593882      -0.00134095       0.00185543      -0.00397432
C       -0.00739528       4.33133572       3.45799828      -0.00448256      -0.00476923      -0.00985117
C       -1.24027350       6.42982855       3.56221575       0.00008119       0.00250917      -0.00619988
C       -2.44578275       8.53084210       3.74481405       0.00290125       0.00360698       0.00832274
C        4.98036232      -0.03006414       3.94367663      -0.00274271      -0.00465368      -0.00406027
C        3.75981028       2.00780901       4.42884693      -0.00030842      -0.00173636       0.00324051
N        1.13586581       6.44562340       3.89803249      -0.00378031       0.00020593       0.00740877
C        0.01332211       8.54079645       3.69697304       0.00547950      -0.00214636       0.00133067
C        7.45212860      -0.02538176       3.83232907      -0.00489346      -0.00268473       0.00515152
C        6.24749319       2.09463102       4.15929821      -0.00236272      -0.00117758       0.00106795
C        5.13875668       4.27048796       4.50549278      -0.00472861       0.00110946      -0.00503232
P        3.61197634       6.10210443       3.20955542       0.00045285       0.00083042      -0.00039028
C        2.48763397       8.51457666       3.68828840       0.00045968       0.00227966       0.00296405
C        9.91908372      -0.02781403       3.72333158       0.00258400       0.00095295      -0.00080620
C        8.70254342       2.10961407       3.80992109       0.00336527      -0.00054111       0.00175460
C        7.48699016       4.23841574       3.94931903       0.00047867      -0.00363872       0.00153341
C        6.23862438       6.37621799       3.88482746      -0.00146061      -0.00467324      -0.00661863
C        4.96639934       8.50254949       3.68328416       0.00046992       0.00232624      -0.00633379
C        0.06507070       1.40363352       3.72267706       0.00106536       0.00491661      -0.00087168
C       -1.17505079       3.55148366       3.54816742      -0.00182181      -0.00146253      -0.00092016
C       -2.44100477       5.68024673       3.61476007      -0.00033012       0.00122751       0.00255901
C       -3.67406522       7.80884295       3.74030777       0.00192905      -0.00018169      -0.00176252
C       -4.90187053       9.93137417       3.82113014       0.00346682       0.00087582       0.00256882
C        2.52344810       1.35460198       4.10622257      -0.00198287       0.00229928       0.00282671
S        1.55099182       3.64746422       3.19468724      -0.00038433      -0.01038278       0.00024179
C       -0.01358102       5.74831643       3.58736306      -0.00439559      -0.00374745       0.00951895
C       -1.22249939       7.84064760       3.65447746       0.00332762       0.00467554      -0.00798616
C       -2.42607961       9.94099119       3.89095296      -0.00210684       0.00438505      -0.00456211
C        4.99991379       1.38043989       4.18408601      -0.00224586      -0.00648112       0.00691819
S        3.82474138       3.48617006       5.31449015       0.00591004       0.00800471       0.01102632
C        1.22390137       7.80808103       3.73668416       0.00435451      -0.00005790       0.00202434
C        0.04212232       9.95505073       3.81236126      -0.00307759      -0.00461970       0.00275357
C        7.46253454       1.39759042       3.93220893      -0.00098054      -0.00079634       0.00013649
C        6.29002634       3.51098535       4.22906814      -0.00113355      -0.00076455       0.00642390
C        5.04865659       5.61442891       4.07987699      -0.00083479       0.00227276       0.00068711
C        3.71965349       7.81879838       3.58444844       0.00047074       0.00616095      -0.00205880
C        2.50810223       9.94438614       3.74522877      -0.00304803       0.00153830      -0.00927293
C        9.94011204       1.40508058       3.71156388       0.00458853       0.00060938      -0.00413265
C        8.70524484       3.53109116       3.78857637       0.00358627      -0.00061503       0.00208952
C        7.46402443       5.66348727       3.86062740      -0.00150854      -0.00474595      -0.00241788
C        6.20185114       7.79240149       3.74556425      -0.00250072      -0.00430910      -0.00400296
C        4.97460253       9.93647082       3.71742414       0.00578909       0.00560924       0.00129969
Ti       2.14492718       5.31782374       5.38531740       0.00009290       0.00198139       0.00699566
O        3.04888169       6.42080629       6.22723844       0.00301246      -0.01040643      -0.00307151
O        0.70264228       4.74195935       6.41973302      -0.01159854      -0.00149297      -0.02173903
H        0.49176374       3.93623416       6.91478695       0.00535221       0.00817323       0.02054656
