52
Lattice="12.336457 0.0 0.0 -6.168228499999997 10.683685154694365 0.0 0.0 0.0 15.0" Properties=species:S:1:pos:R:3:initial_magmoms:R:1:forces:R:3 energy=-451.77730873474957 free_energy=-451.77730873474957 stress="-0.003111480998550283 0.0005451801386389277 -2.5870855554605783e-05 0.0005451801386389277 -0.0048806072846970935 -1.1250913718459934e-05 -2.5870855554605783e-05 -1.1250913718459934e-05 -1.773538235804572e-05" pbc="T T T"
C       -0.04662621       0.03339529       3.86097440       0.00000000      -0.00206106      -0.00484684       0.00046802
C       -1.27448307       2.16506879       3.87200059       0.00000000      -0.00278451       0.00239788       0.00323764
C       -2.50434747       4.30716499       3.90474433       0.00000000       0.00150262       0.00149878       0.00162074
C       -3.74679859       6.44711024       3.86910201       0.00000000       0.00368201       0.00004351       0.00519227
C       -4.98537596       8.57374790       3.81518886       0.00000000      -0.00078980       0.00186882       0.00069165
C        2.41949185       0.03440650       3.77836441       0.00000000       0.00184427       0.00644067       0.00246263
C        1.17832784       2.15983261       3.46750426       0.00000000      -0.00056821      -0.00213430       0.00801368
C       -0.07814494       4.27341032       3.45279472       0.00000000      -0.00189611      -0.00170030      -0.00042181
C       -1.28398379       6.44809684       3.80145701       0.00000000       0.00181009       0.00136036       0.00797991
C       -2.50741926       8.58061894       3.91616781       0.00000000      -0.00169075       0.00343503       0.00206204
C        4.87929321       0.05055246       4.00729840       0.00000000       0.00143880       0.00078650      -0.00656895
C        3.67478740       2.14176352       3.53747680       0.00000000       0.00211942      -0.00424625      -0.00919454
P        2.48358542       4.19183946       2.09222836       0.00000000       0.00426270      -0.00148848      -0.00418410
S        1.31099962       6.51569667       3.16136212       0.00000000       0.00217167      -0.00755784      -0.00154766
C       -0.06478409       8.61386319       4.06259887       0.00000000       0.00150161       0.00050618       0.00367918
C        7.35301502       0.06070648       4.22226749       0.00000000      -0.00118771      -0.00174309      -0.00353706
C        6.13363200       2.16536518       3.95491105       0.00000000      -0.00553039      -0.00187800      -0.01497342
C        5.00717806       4.22322475       3.28929050       0.00000000      -0.00017057      -0.00171201      -0.00243887
S        3.97419421       6.10966757       1.63657599       0.00000000      -0.00966706      -0.00322993      -0.00561565
C        2.44472620       8.63459265       4.22721530       0.00000000       0.00278791       0.00328314      -0.00145213
C        9.84165961       0.05662175       4.15427676       0.00000000       0.00479410      -0.00154803       0.00491677
C        8.60106470       2.18114376       4.09671995       0.00000000      -0.00991389       0.00094102       0.00518978
C        7.37833966       4.30346433       3.86711247       0.00000000      -0.00065502       0.00668933      -0.00966487
C        6.15062509       6.43570473       3.51052100       0.00000000       0.00121383       0.00434011      -0.00253106
C        4.87380347       8.56822139       3.97889723       0.00000000       0.00029474      -0.00743289      -0.00373753
C       -0.04529461       1.45416120       3.75196925       0.00000000      -0.00488902      -0.00340739      -0.00385395
C       -1.28726061       3.58204889       3.77101776       0.00000000      -0.00180713       0.00163052      -0.00566402
C       -2.51733377       5.73111409       3.87889138       0.00000000       0.00368921      -0.00024202      -0.00581115
C       -3.74795584       7.86839136       3.85492145       0.00000000      -0.00091767      -0.00006812      -0.00286138
C       -4.98237699       9.99932176       3.81748501       0.00000000       0.00139999       0.00262195      -0.00276333
C        2.42738804       1.44974957       3.57430499       0.00000000       0.00312263       0.00099120      -0.00760791
C        1.12228548       3.54604003       3.13508461       0.00000000      -0.00120280      -0.00479251       0.00740902
C       -0.12904961       5.68865590       3.53239523       0.00000000      -0.00029380      -0.00194710       0.00656772
C       -1.27322386       7.87367474       3.91406704       0.00000000      -0.00062082       0.00240575       0.00758079
C       -2.51590080      10.01083318       3.90945747       0.00000000       0.00058636       0.00495201       0.00036433
C        4.88907208       1.46250845       3.86657949       0.00000000      -0.00286724      -0.00096770       0.00138384
C        3.75574060       3.52720432       3.15424690       0.00000000      -0.00463978      -0.00214458       0.00803600
C        1.19379816       7.99220968       4.01171839       0.00000000       0.00274563      -0.00172389       0.00724770
C       -0.05722975      10.03836232       4.14902036       0.00000000      -0.00032836      -0.00012095       0.00384795
C        7.36076158       1.47524057       4.13517840       0.00000000      -0.01114781      -0.00183620       0.00664607
C        6.17412946       3.56650621       3.75057974       0.00000000       0.00002969       0.00002483      -0.00905493
C        5.08679714       5.62522360       2.90846971       0.00000000       0.00883648      -0.00073542      -0.00266249
C        3.65495443       7.91866089       4.18849784       0.00000000      -0.00241361      -0.00226745      -0.00669805
C        2.42936059      10.05924791       4.26880412       0.00000000       0.00416003       0.00355988       0.01244294
C        9.83732415       1.47329505       4.07402382       0.00000000      -0.00436393       0.00140957       0.00540941
C        8.60382296       3.59865133       3.99501894       0.00000000      -0.00241464       0.00350460      -0.00531275
C        7.36450807       5.73032572       3.76807635       0.00000000       0.00270995       0.00715207      -0.00236727
C        6.11363627       7.84998589       3.74305824       0.00000000       0.00005369       0.00064347       0.00426364
C        4.89435203      10.01630009       4.01534763       0.00000000       0.00175506      -0.00978042       0.00098610
Ti       3.42043597       5.78396974       4.31233340       0.00000000      -0.00895309       0.01059675      -0.00330307
O        4.08480174       5.48972449       6.01306482       1.00000000       0.01127637       0.01016553       0.00896249
O        2.78943484       4.81234045       5.75650404       1.00000000       0.01398591      -0.01369775      -0.00283436
