53
Lattice="12.336457 0.0 0.0 -6.168228499999997 10.683685154694365 0.0 0.0 0.0 15.0" Properties=species:S:1:pos:R:3:forces:R:3 energy=-458.68279868311413 free_energy=-458.68279868311413 stress="-7.146208843257912e-05 0.0003632321424082978 1.658918510351294e-05 0.0003632321424082978 -0.0011373433149708665 9.053574805270242e-06 1.658918510351294e-05 9.053574805270242e-06 -1.973574352918209e-05" pbc="T T T"
C       -0.02127800      -0.06678911       3.71095256      -0.00812391      -0.00767455       0.00684551
C       -1.25423600       2.06524857       3.70574015       0.00664176       0.00100530      -0.01516349
C       -2.49476844       4.20617443       3.76346163      -0.00211877       0.00378793       0.00640023
C       -3.73862869       6.33848235       3.73431710      -0.00644765       0.01479567      -0.00436121
C       -4.97618077       8.46564709       3.71292167       0.00559048       0.00411567      -0.00968061
C        2.44485792      -0.07208671       3.59819631      -0.00638189       0.00045461      -0.00533507
C        1.21241019       2.07859873       3.45475207       0.00618235       0.00663390      -0.00251083
C       -0.03258983       4.19790412       3.74871471       0.00946964      -0.00511466       0.01514954
C       -1.27176520       6.34014542       4.03180424       0.00944921      -0.01283044       0.00145462
C       -2.48646377       8.47081209       3.85424591       0.00025831       0.00910401      -0.00318617
C        4.91513403      -0.07291451       3.73263580       0.00861445      -0.00070509       0.00161858
C        3.69720088       2.04259882       3.29980162       0.00931940      -0.00294184       0.00814636
P        2.40504793       4.28314095       2.31933039      -0.00912241      -0.01338497      -0.00565440
S        1.22838167       6.24651541       5.02733629      -0.01666162      -0.00026758      -0.00882394
C       -0.03302206       8.50038173       4.17675981      -0.01389087      -0.01012802      -0.02551320
C        7.38138841      -0.05792432       3.91539668       0.00176588      -0.00162419      -0.00000426
C        6.16343429       2.04696345       3.56596537      -0.00057493      -0.00280599       0.00214542
C        4.98185489       4.15532266       3.11881257       0.00561489       0.00703390       0.01068489
S        3.50517885       6.20976937       2.36393263      -0.01302716       0.00236390       0.00411782
C        2.46612613       8.55300460       4.39192922      -0.00348769      -0.00270934      -0.00412356
C        9.85718350      -0.05272837       3.90387921      -0.00455091       0.00186517       0.00072052
C        8.61863999       2.06898680       3.73218385      -0.00588495      -0.00798050       0.00804836
C        7.39169576       4.20024643       3.56096120       0.00010973      -0.00469994       0.00260161
C        6.12324265       6.33548682       3.43734028       0.00143052       0.01351075      -0.00041223
C        4.90854422       8.47773679       4.01269574       0.00039193      -0.00452035       0.01438477
C       -0.01987733       1.35721660       3.63688504       0.00615392      -0.00275349      -0.01258999
C       -1.26543551       3.48895256       3.74109304       0.00575998       0.00567910      -0.01290664
C       -2.50437249       5.62964081       3.83212940      -0.00077590       0.00767147      -0.02296014
C       -3.73275938       7.75972947       3.75822861       0.00426676       0.01355380      -0.00317932
C       -4.95992612       9.89652876       3.67824564      -0.00573764      -0.00258914       0.00772763
C        2.44769473       1.34923031       3.41226869       0.00315592       0.00374440       0.01400749
C        1.17652520       3.50693181       3.39258857       0.00217268       0.00575465      -0.00801227
C       -0.08572749       5.56975803       4.16261054       0.02465413      -0.00858079       0.00953620
C       -1.25694263       7.76647615       4.05872560      -0.01248656      -0.01456861       0.00076147
C       -2.48962586       9.89711654       3.72782320       0.00171887       0.00887217      -0.00322480
C        4.92710514       1.33532517       3.52939828       0.00594293      -0.00134610       0.00987766
C        3.77106616       3.43349545       2.99906569       0.01004692      -0.00431367      -0.01449310
C        1.20240078       7.88912360       4.50997812      -0.01592866      -0.00006010      -0.02290737
C       -0.02484614       9.91478143       3.94372496       0.00095856      -0.00210869       0.00662271
C        7.38776912       1.35280022       3.73725933      -0.00540797      -0.00408027      -0.00450716
C        6.18439311       3.46525374       3.42917800       0.00458339      -0.00562806      -0.00437739
C        4.97852497       5.57452988       3.01881622       0.00844315       0.00459570       0.00399158
C        3.71506926       7.87264540       4.48506751       0.00434559       0.02237940       0.01165851
C        2.45150647       9.94504463       4.05931903      -0.00069453      -0.00189220       0.00265206
C        9.85195079       1.36145103       3.77763051       0.00000414       0.00172399       0.00195264
C        8.61640702       3.49183872       3.68469337      -0.00164564      -0.00890464       0.00665369
C        7.36918344       5.62817732       3.56848396      -0.00558052       0.00406554       0.00723133
C        6.11603246       7.75217080       3.70857299       0.00932855       0.00745458       0.01286978
C        4.91971223       9.91119346       3.87802494      -0.01013445      -0.00485527       0.00415974
Ti       3.43555750       6.47989916       6.09388009      -0.00446874      -0.01234291       0.00151743
O        4.22993622       5.02559505       5.96881532      -0.00372714      -0.00526690      -0.01277960
O        3.46692141       7.19545544       7.79779719      -0.02928011       0.02677472       0.03101946
H        3.08654632       8.00878198       8.16477211       0.02976663      -0.02026199      -0.00785088
