52
Lattice="12.336457 0.0 0.0 -6.168228499999997 10.683685154694365 0.0 0.0 0.0 15.0" Properties=species:S:1:pos:R:3:forces:R:3 energy=-436.76615684628507 free_energy=-436.76615684628507 stress="-0.002998327451719559 -0.002805297386318199 -5.0756993363506584e-05 -0.002805297386318199 -0.004412268236188268 -3.662574247849163e-05 -5.0756993363506584e-05 -3.662574247849163e-05 -9.36085040864433e-06" pbc="T T T"
C       -0.01255386      -0.03307300       3.55739514      -0.00087872       0.00346185       0.00704169
C       -1.25922299       2.10389243       3.39150051      -0.00057700       0.00093320       0.00014943
C       -2.50013421       4.24772783       3.55722623       0.00316175       0.00293442       0.00800552
C       -3.70580418       6.38941525       3.69647184      -0.00032607       0.00115161       0.01601291
C       -4.93411172       8.52128642       3.68375773       0.00162342      -0.00579318       0.01234223
C        2.46348096      -0.05468832       3.61433933      -0.00001362       0.00024052       0.00565023
C        1.22653503       2.03749480       3.24534191      -0.00704095      -0.00887902      -0.01089120
C       -0.08883499       4.26396340       3.21414816       0.00119913      -0.00273246      -0.00450266
C       -1.24924371       6.37833462       3.68320568      -0.00064587       0.00785078       0.00164312
C       -2.45975851       8.51223439       3.73206671       0.00159180      -0.00581876       0.00520701
C        4.92520531      -0.02538804       3.79370763       0.00153647      -0.00714285      -0.00353890
C        3.64966942       2.05900187       3.84723654       0.00048913       0.00507671       0.00952381
B        1.07229568       6.40497760       4.16782182       0.00437477      -0.01236292       0.01349849
C        0.00549870       8.52042884       3.85440056       0.00040299       0.00662569       0.00704075
C        7.39385833      -0.01690591       3.80882038       0.00188131       0.00292235       0.01762440
C        6.13356668       2.13908137       3.88179608      -0.00031860       0.00241498       0.00161876
C        4.97129196       4.35820223       4.06227613      -0.00400430      -0.00339088       0.01527364
O        3.77794862       6.45554178       4.04229038       0.00741413      -0.00197343      -0.00406419
C        2.49955553       8.51685413       3.90159043      -0.00850145       0.00339492       0.01028970
C        9.85881328      -0.02206672       3.68042141       0.00223391       0.00167161       0.01135231
C        8.61164034       2.11928763       3.67778665       0.00261223      -0.00357290       0.00140468
C        7.38318898       4.26570689       3.78045012      -0.00467211       0.00541804      -0.00360635
C        6.18372372       6.42162677       3.81727535      -0.00028434      -0.00185972       0.00943255
C        4.94050013       8.52982331       3.78645792      -0.00327288      -0.00008490      -0.01158941
C       -0.01843674       1.39046392       3.37875135      -0.00703275       0.00021748       0.00214308
C       -1.27713904       3.52221757       3.36106158       0.00259234      -0.00102649       0.00087072
C       -2.48487107       5.67133459       3.63414989      -0.00027934       0.00743764      -0.00875319
C       -3.69533354       7.80988270       3.70179359       0.00157816      -0.00391576      -0.00527914
C       -4.94328212       9.93838947       3.60749384      -0.00109134      -0.00359685      -0.01485703
C        2.44914507       1.36115491       3.54740470      -0.00119621       0.00475942       0.00352833
S        1.28059591       3.56869314       2.44339386      -0.00219230      -0.01556110       0.00247337
C       -0.03878499       5.63086688       3.58500815      -0.00671000       0.00291049      -0.01390312
C       -1.22269147       7.79714519       3.78399093       0.00348707       0.00670848      -0.00591302
C       -2.46461776       9.93380043       3.72410241       0.00040311      -0.00774914      -0.00392529
C        4.90732066       1.41260708       3.85962173       0.00073536      -0.00151848      -0.01441063
S        3.46137586       3.65767108       4.43102296       0.00466379       0.01024544       0.00295964
C        1.25446283       7.83570568       3.94925022      -0.00764795      -0.00241478      -0.00541841
C       -0.00630194       9.95341780       3.82577044       0.00432648       0.00216134      -0.01080847
C        7.37147320       1.41748192       3.79335136       0.00007327       0.00035042      -0.00263886
C        6.14056021       3.57134532       3.90810707      -0.00586574       0.00290814      -0.00503333
C        4.98357941       5.75693903       3.97540918       0.00208101      -0.00372536       0.00539142
C        3.74104811       7.83154387       3.91057581      -0.00306849       0.00147883       0.00240007
C        2.47193787       9.94769797       3.79819587      -0.00113150       0.00555935       0.00594558
C        9.85203776       1.40667139       3.57805461       0.00260847      -0.00395737      -0.01069603
C        8.61017066       3.54009083       3.66804415      -0.00247433       0.00047064      -0.01219767
C        7.39990645       5.68067072       3.75867153      -0.00161002       0.00425390      -0.01168566
C        6.17776410       7.83199326       3.75558542      -0.00163205      -0.00384107      -0.00385282
C        4.92092950       9.95157033       3.67391927       0.00002218       0.00222233      -0.01191956
Tl       1.84098031       5.62016193       6.20833385       0.00707758      -0.01004027       0.00034329
O        3.13728251       5.06017408       7.92487656       0.00506609       0.01030725       0.00093926
O        2.09621720       5.03961953       8.98783577       0.00398434       0.00051741       0.00240225
H        2.45925018       5.74729610       9.55120069       0.00524765       0.00435243      -0.00302328
