51
Lattice="12.336457 0.0 0.0 -6.168228499999997 10.683685154694365 0.0 0.0 0.0 15.0" Properties=species:S:1:pos:R:3:initial_magmoms:R:1:forces:R:3 energy=-441.4154015640171 free_energy=-441.4154015640171 stress="0.016188232951338397 -0.0018046283765667719 -4.351414780909797e-06 -0.0018046283765667719 -0.004480167847998633 -6.679598307047874e-06 -4.351414780909797e-06 -6.679598307047874e-06 1.9076655626305167e-05" pbc="T T T"
C        0.03723930      -0.07516150       3.80033990       0.00000000       0.00835967      -0.00429658       0.00648105
C       -1.16274255       2.11457081       3.67666296       0.00000000       0.00032646      -0.00154741      -0.00375270
C       -2.35828559       4.23444096       3.60008391       0.00000000      -0.00113232       0.00056241       0.00040520
C       -3.63039523       6.33438488       3.68531928       0.00000000      -0.00926098       0.00420770       0.00502909
C       -4.89886354       8.44920020       3.80476587       0.00000000      -0.00595653       0.00116391      -0.00257152
C        2.51153576      -0.13956104       3.70997948       0.00000000       0.00391513      -0.00035821       0.00472375
C        1.27983909       2.00987339       3.59290524       0.00000000      -0.00137573       0.00212878       0.00577623
C        0.20317575       4.21414760       3.52480126       0.00000000      -0.00122606      -0.00141451      -0.00024349
C       -1.05540033       6.33110149       3.63622328       0.00000000       0.00392252       0.00025958      -0.00361631
C       -2.39168831       8.44502251       3.71116378       0.00000000       0.00251980       0.00081010       0.00117053
C        4.97910794      -0.06486673       3.60893368       0.00000000      -0.00317084       0.00286212      -0.00654100
C        3.67675332       1.99971378       3.39318718       0.00000000       0.00303902      -0.00455278       0.00139303
C        1.56179870       6.39990159       3.65412025       0.00000000       0.00152494      -0.00714223       0.00581462
C        0.07776976       8.49766308       3.67871244       0.00000000       0.00187900       0.00724987       0.00047584
C        7.43267144       0.00898418       3.67047150       0.00000000      -0.00487898      -0.00210018       0.00880628
C        6.17692698       2.11880557       3.49921694       0.00000000       0.00943370      -0.00439626      -0.00306483
C        4.91246928       4.28134097       3.43685094       0.00000000      -0.00108118       0.01111128       0.01065271
B        3.36872563       6.37422012       3.73574142       0.00000000       0.00754521      -0.00381115      -0.00840081
C        2.50828668       8.60460441       3.78727290       0.00000000      -0.00623193      -0.00004759      -0.00324730
C        9.91852699       0.00847583       3.78309585       0.00000000       0.00322578       0.00169485      -0.00483672
C        8.67808371       2.13153266       3.62650583       0.00000000      -0.00142744       0.00167985      -0.00446070
C        7.42988998       4.24150236       3.57003511       0.00000000      -0.00331682      -0.00324269       0.00973440
C        6.13603773       6.35066659       3.72477708       0.00000000       0.00286578      -0.00010072       0.00047085
C        4.95227817       8.50218332       3.85362946       0.00000000      -0.00261814      -0.00517882      -0.00195083
C        0.03919979       1.34845450       3.71616657       0.00000000       0.00115805      -0.00454041       0.00383391
C       -1.09824512       3.53556967       3.59195419       0.00000000       0.00064806      -0.00161467       0.00476847
C       -2.34179055       5.64684832       3.63343366       0.00000000      -0.00310650       0.00517016       0.00132256
C       -3.64108173       7.74548859       3.74526334       0.00000000      -0.00583578       0.00445534      -0.00498373
C       -4.90084413       9.86317958       3.79609868       0.00000000       0.00617155      -0.00188607      -0.00319373
C        2.49301975       1.26041979       3.58016494       0.00000000      -0.00168515       0.00018633      -0.00016920
C        1.39715917       3.40375853       3.43592556       0.00000000       0.00217533       0.00342283       0.00960073
C        0.26911902       5.65516203       3.59523061       0.00000000       0.00315465      -0.00569868       0.01262094
C       -1.13249724       7.74928161       3.67445346       0.00000000       0.00661478       0.00229198       0.00119932
C       -2.40435978       9.86295510       3.68383614       0.00000000       0.00163702       0.00077124       0.00261083
C        4.95137105       1.36825767       3.48765295       0.00000000       0.00687527       0.00011357       0.00047078
P        3.26089672       3.65124881       2.96221195       0.00000000      -0.01224282      -0.00851882      -0.00085565
C        1.33011767       7.81892043       3.70584943       0.00000000      -0.00297363      -0.00321276       0.01030602
C        0.05159673       9.93319487       3.65525637       0.00000000      -0.00655227       0.00678463       0.00026798
C        7.42370886       1.42741243       3.59870718       0.00000000       0.00417251      -0.00579588      -0.00322229
C        6.16183035       3.54534449       3.48263726       0.00000000       0.00284046      -0.00166835      -0.01030324
C        4.82872615       5.67950680       3.64608247       0.00000000       0.00325319       0.00636904      -0.00500130
C        3.69198519       7.85507135       3.83392176       0.00000000      -0.00472161      -0.00040030      -0.01421365
C        2.50542237      10.01261135       3.76517782       0.00000000      -0.00164249       0.00298549      -0.00173539
C        9.92147426       1.42522640       3.70410143       0.00000000      -0.00040051       0.00460467      -0.00710398
C        8.69713769       3.54620902       3.59036696       0.00000000      -0.00173885       0.00085113       0.00123607
C        7.42218571       5.65250009       3.66168410       0.00000000      -0.00693407      -0.00051697       0.00494129
C        6.18398336       7.76305742       3.81801966       0.00000000      -0.00362189      -0.00188067      -0.01791627
C        4.96710923       9.93458628       3.83460058       0.00000000       0.00549187      -0.00220752       0.00430619
Tl       2.74931710       4.66524114       5.80421298       0.00000000      -0.00139842       0.00518463      -0.00711632
O        1.84004537       5.78800277       9.19980278       1.00000000      -0.00108937       0.00170858      -0.01192848
O        1.28182894       6.03336248       8.11577847       1.00000000       0.00287056      -0.00249983       0.01201077
