52
Lattice="12.336457 0.0 0.0 -6.168228499999997 10.683685154694365 0.0 0.0 0.0 15.0" Properties=species:S:1:pos:R:3:forces:R:3 energy=-447.3010464613679 free_energy=-447.3010464613679 stress="0.028243524668674056 0.00114768270247728 2.6173046061912332e-06 0.00114768270247728 -0.001484755188991085 -2.597557786421129e-05 2.6173046061912332e-06 -2.597557786421129e-05 9.311120637033888e-07" pbc="T T T"
C        0.00701808      -0.03034847       3.70588760      -0.00196605       0.00273273       0.00620697
C       -1.16781221       2.17921186       3.69953880       0.00017118       0.00818845      -0.01051641
C       -2.38924689       4.28077210       3.67979579      -0.00167169       0.00041898      -0.00786824
C       -3.70446112       6.35833534       3.68275884       0.00416783      -0.00165918      -0.00277889
C       -4.96673722       8.46442310       3.69550462      -0.00051634      -0.00129446       0.00319835
C        2.46741044      -0.12188734       3.69421462       0.00252273       0.00280406      -0.00653272
C        1.30349862       2.05163193       3.70442415      -0.00375521       0.00101549       0.00140436
C        0.25449221       4.28165281       3.68176320      -0.00207255      -0.00348909      -0.00275415
C       -1.09736706       6.37380602       3.67606551       0.00240244      -0.00400999       0.00211898
C       -2.44662308       8.47110150       3.68879260       0.00411983       0.00422075      -0.00244608
C        4.93126723      -0.02654887       3.68528149       0.00338184       0.00767674      -0.00130980
C        3.65424246       2.07236507       3.67307663      -0.00398776       0.00084028      -0.00331031
C        1.54877632       6.46637481       3.69065859       0.00642957      -0.00717851      -0.00612772
C        0.02852343       8.54816975       3.69529912       0.00397124      -0.00273322      -0.00050252
C        7.38951381       0.06821872       3.69786851      -0.00153098      -0.00035587      -0.01221299
C        6.11899799       2.16968248       3.67468821      -0.00129876       0.00674095       0.00145378
C        4.67856896       4.25443264       3.66844785      -0.00807857       0.00019529      -0.00575209
B        3.26286267       6.41727231       3.69207741       0.01051303      -0.00099690       0.00471233
C        2.46348845       8.67165720       3.70691891       0.00080085      -0.00596961       0.01051284
C        9.88962390       0.07226076       3.70461135      -0.00233924      -0.00170465       0.00479681
C        8.64244322       2.18940973       3.68634643       0.00409719       0.00127771       0.00962619
C        7.32953220       4.27022174       3.67396177      -0.00456416      -0.00151896       0.00472641
C        6.02034907       6.35502285       3.68518683       0.00271061      -0.00491589      -0.00231834
C        4.89412105       8.54273778       3.70670717      -0.00235414      -0.00386266      -0.01071849
C        0.04413342       1.41387248       3.70635942      -0.00407494       0.00520954      -0.00448411
C       -1.08266994       3.60214220       3.68436919      -0.00124685       0.00639074      -0.00289260
C       -2.39165346       5.68659837       3.67805464       0.00151137      -0.00144208       0.00086327
C       -3.70511265       7.76696968       3.68875958       0.00295758       0.00029229       0.00129699
C       -4.95154308       9.88424054       3.70071184       0.00084500       0.00141759       0.00016592
C        2.47436684       1.28525418       3.69011578      -0.00332177       0.00159839       0.00343382
B        1.67724879       3.54126579       3.69623173      -0.01019448      -0.00553875       0.00856739
C        0.26090561       5.70359254       3.67542505       0.00661884      -0.00582134      -0.00408011
C       -1.18092161       7.78650465       3.68576154       0.00310794      -0.00313874       0.00781382
C       -2.45216094       9.88763214       3.68942664       0.00573759       0.00649100       0.00053111
C        4.90971067       1.40768878       3.67295335       0.00014545       0.00696609       0.00997308
C        3.39075672       3.49121083       3.67138610      -0.00157458      -0.00313869       0.00977610
C        1.28491393       7.88464905       3.70104424       0.00361882      -0.00622601      -0.01387856
C        0.00625409       9.98206333       3.69473249      -0.00021128       0.00024760      -0.00572341
C        7.38418768       1.48479091       3.68646404       0.00139351       0.00268653      -0.00177116
C        6.03585598       3.58276490       3.66876017      -0.01062988       0.00517853      -0.00015155
C        4.68302857       5.67599283       3.68046141       0.00261311      -0.00036010       0.01415012
C        3.63456860       7.90516611       3.70736222       0.00102110      -0.00562382      -0.00395206
C        2.47042964      10.07815767       3.70417978      -0.00243349      -0.00500781       0.01029275
C        9.90432199       1.49216397       3.69841861       0.00431871       0.00121173      -0.00540702
C        8.64203886       3.59820179       3.67815508      -0.00132970       0.00094854       0.00547669
C        7.32655377       5.67620441       3.68125651       0.00477397      -0.00349010      -0.01013579
C        6.10511749       7.77716075       3.69618539      -0.00191468      -0.00445459       0.00695628
C        4.93143751       9.98672839       3.70740198      -0.00191756      -0.00139587       0.00389744
Tl       2.28695154       4.67131201       6.48956449      -0.01902682       0.00187592      -0.00480795
O        2.54619034       5.88413817       8.38589685       0.00361282       0.00322697      -0.00564062
O        2.42086682       4.72343972       9.30130287      -0.00937611       0.00404426      -0.00321302
H        3.28722133       4.79546390       9.73936333       0.01382343       0.00142972       0.00933487
