51
Lattice="12.336457 0.0 0.0 -6.168228499999997 10.683685154694365 0.0 0.0 0.0 15.0" Properties=species:S:1:pos:R:3:initial_magmoms:R:1:forces:R:3 energy=-440.99807669972813 free_energy=-440.99807669972813 stress="-0.002132020102861934 0.0015534179100479576 -1.7880534516227522e-05 0.0015534179100479576 -0.007424169824974727 -4.111921234292008e-06 -1.7880534516227522e-05 -4.111921234292008e-06 -3.498585698197644e-05" pbc="T T T"
C        0.06753971       0.05536299       3.65429549       0.00000000       0.00017993       0.00006516       0.00589602
C       -1.15541783       2.19699249       3.66250060       0.00000000      -0.00178351       0.00543119       0.00499625
C       -2.38135204       4.33037943       3.61002546       0.00000000       0.00429120      -0.00008621       0.00243722
C       -3.62810078       6.45748902       3.58243915       0.00000000       0.00144842       0.00281741       0.00179209
C       -4.87748382       8.58920986       3.58902829       0.00000000      -0.00252227      -0.00115899       0.00692231
C        2.53316409       0.04505007       3.72352639       0.00000000       0.00583922      -0.00346482       0.00885542
C        1.31167077       2.20434569       3.74731763       0.00000000       0.00427979       0.00015988      -0.00035342
C        0.11143971       4.30788364       3.60385248       0.00000000      -0.00293249      -0.00043696      -0.00479789
C       -1.13090698       6.45867742       3.56097691       0.00000000      -0.00677300      -0.00449758       0.01330461
C       -2.39896260       8.59311255       3.64886182       0.00000000       0.00475834       0.00771204       0.00625753
C        5.00169705       0.05849471       3.77387188       0.00000000      -0.00430345       0.00344352      -0.00030495
C        3.76635357       2.19590301       3.81269566       0.00000000      -0.00239030      -0.00571994      -0.00034616
B        1.45044454       6.47119855       3.47342322       0.00000000      -0.00017277       0.00409461       0.01146560
C        0.06070301       8.62297511       3.67184234       0.00000000       0.00248682       0.00200690       0.00172398
C        7.46662894       0.08496698       3.77066752       0.00000000      -0.00392506      -0.00637860       0.00482252
C        6.24674532       2.18573223       3.78659296       0.00000000       0.00236706      -0.00609697       0.00815130
C        5.00641065       4.27197133       3.67298366       0.00000000      -0.00517265       0.00339916      -0.00864420
P        3.36885460       6.27881447       3.16810889       0.00000000      -0.01282118       0.01218596       0.00109465
C        2.51887649       8.68983018       3.60781549       0.00000000       0.00925928      -0.00656428      -0.00392813
C        9.94825845       0.08277671       3.68944071       0.00000000      -0.00310557      -0.00555725       0.00044590
C        8.71484190       2.20453897       3.72867432       0.00000000       0.00701573       0.00735624      -0.01548776
C        7.48178915       4.32689439       3.65912288       0.00000000       0.00235771       0.00184074       0.00276299
C        6.21303965       6.44872585       3.52445945       0.00000000       0.00086283       0.00135796      -0.00091103
C        4.99211134       8.60668575       3.52509811       0.00000000      -0.00417693      -0.00934383      -0.00227572
C        0.06671301       1.47714909       3.68618756       0.00000000      -0.00049510       0.00443701      -0.00140964
C       -1.15189476       3.61257544       3.61323202       0.00000000       0.00031480       0.00146126      -0.00902764
C       -2.38235508       5.75360081       3.57907049       0.00000000      -0.00378366      -0.00344451       0.00061560
C       -3.63623813       7.88153771       3.59913367       0.00000000       0.00316698       0.00391580       0.00528060
C       -4.87072388      10.01312131       3.65123443       0.00000000       0.00443165      -0.00193142       0.00936325
C        2.53615945       1.45860228       3.78657752       0.00000000       0.00054662      -0.00402644      -0.00187976
C        1.30951788       3.59257315       3.77400078       0.00000000       0.00341920       0.00263895      -0.00249559
C        0.11327685       5.73936592       3.52737125       0.00000000      -0.00375137      -0.00165671       0.00552452
C       -1.16213087       7.88740353       3.62407930       0.00000000       0.00000176      -0.00067208       0.00011426
C       -2.39960036      10.01582420       3.72112622       0.00000000       0.00482194       0.00644022      -0.00104419
C        5.01408795       1.47447603       3.80731679       0.00000000      -0.00352721       0.00002608      -0.00731660
C        3.79008394       3.58386762       3.80176893       0.00000000      -0.01024828      -0.00103489       0.00148110
C        1.30435122       7.96734116       3.60214121       0.00000000       0.00714963       0.00907833      -0.00855007
C        0.06539000      10.04666479       3.75393657       0.00000000      -0.00809425       0.00216021      -0.00331607
C        7.48115620       1.49343524       3.77920651       0.00000000       0.00738181      -0.00351365      -0.00078032
C        6.26214221       3.59645943       3.72089381       0.00000000       0.00039428      -0.00593808      -0.00637498
C        4.99889567       5.69063843       3.50710117       0.00000000      -0.00026691       0.00195513      -0.00217415
C        3.72816994       7.96363243       3.45727870       0.00000000       0.00383627      -0.01169822       0.00580288
C        2.53700608      10.08794653       3.71488000       0.00000000      -0.00138720      -0.00861041      -0.00685426
C        9.94509748       1.49576353       3.70224813       0.00000000       0.00224892       0.00091828      -0.00632405
C        8.71857980       3.62385359       3.67082619       0.00000000       0.00752472       0.00831597      -0.00314999
C        7.46783657       5.74890750       3.58721189       0.00000000       0.00167752       0.00367505      -0.00816985
C        6.22090983       7.87826969       3.52661111       0.00000000      -0.00685465      -0.00017360      -0.00870228
C        5.00249139      10.03488503       3.62199083       0.00000000      -0.00302970      -0.00543060      -0.00227045
Tl       2.52030559       4.71582596       5.69184247       0.00000000      -0.00992644      -0.00333733      -0.01213946
O        1.21484468       3.61911887       9.08003830       1.00000000       0.00728648       0.00354710       0.00900343
O        0.45084034       3.07297258       8.27197185       1.00000000       0.00209505       0.00033320       0.01091459
