52
Lattice="12.336457 0.0 0.0 -6.168228499999997 10.683685154694365 0.0 0.0 0.0 15.0" Properties=species:S:1:pos:R:3:initial_magmoms:R:1:forces:R:3 energy=-452.2980360736625 free_energy=-452.2980360736625 stress="0.0008527096586043593 -2.2907832908433653e-05 1.5994481226690603e-06 -2.2907832908433653e-05 0.0008574090676181712 1.1632750346154306e-06 1.5994481226690603e-06 1.1632750346154306e-06 -2.1967466841979537e-06" pbc="T T T"
C        0.08016600      -0.01198054       3.65424722       0.00000000      -0.00533061      -0.00130714       0.00495077
C       -1.15314057       2.11832368       3.65608349       0.00000000       0.00880191       0.00263725      -0.00940922
C       -2.38875532       4.25943394       3.65667512       0.00000000      -0.00526305       0.00416680      -0.00485112
C       -3.61762157       6.39258935       3.65668315       0.00000000       0.00129067       0.00285191      -0.00011322
C       -4.85667374       8.53015275       3.65561124       0.00000000      -0.00006470      -0.00372459      -0.00188591
C        2.55030985      -0.00732537       3.65772257       0.00000000       0.00332851      -0.00313165      -0.00206462
C        1.32290438       2.14841759       3.65180744       0.00000000      -0.00032701      -0.00152568      -0.00117189
C        0.06183654       4.24705332       3.64538804       0.00000000      -0.00466726       0.00026253       0.00326781
C       -1.12521295       6.38873410       3.65142567       0.00000000       0.00345441       0.00143783      -0.00721620
C       -2.37835252       8.52993659       3.65807057       0.00000000      -0.00347538       0.00106236      -0.00094789
C        5.02043635      -0.01153890       3.65707566       0.00000000       0.01180923      -0.00439908       0.00117662
C        3.77787256       2.14855547       3.65470241       0.00000000      -0.00474517       0.00572067      -0.00736093
B        2.55005056       4.52751046       3.63790482       0.00000000       0.00053197       0.00156697      -0.00237268
B        1.55069343       6.26119627       3.64141529       0.00000000      -0.00231121       0.00314565       0.00045348
C        0.10270177       8.51518673       3.65168440       0.00000000      -0.00699659      -0.00138065       0.00358099
C        7.48232195      -0.00936474       3.65493010       0.00000000       0.00174289       0.00142540      -0.00335822
C        6.25397650       2.11931445       3.65648725       0.00000000      -0.00760837      -0.00751524       0.00080264
C        5.03855615       4.24777795       3.64852567       0.00000000       0.00822119      -0.00190582      -0.00241756
B        3.55339126       6.26360220       3.62966159       0.00000000       0.00472290      -0.00105671       0.00023622
C        2.55051566       8.55825688       3.64533503       0.00000000      -0.00083015      -0.00248576       0.00717657
C        9.95511811      -0.00952361       3.65288994       0.00000000      -0.00682402      -0.00170996       0.00036403
C        8.71854345       2.12299224       3.65718510       0.00000000       0.00364186      -0.00215533       0.00564939
C        7.49008824       4.25962400       3.65647185       0.00000000      -0.00261111       0.00601114      -0.00514596
C        6.22659780       6.38928469       3.64730433       0.00000000      -0.00627662      -0.00047285       0.00344945
C        4.99864150       8.51492404       3.64803020       0.00000000       0.00949707       0.00419096      -0.01087578
C        0.08553700       1.41643118       3.65451414       0.00000000       0.00452630      -0.00115409       0.00092327
C       -1.16666489       3.53758368       3.65060330       0.00000000      -0.00524756       0.00246677       0.00098331
C       -2.37783492       5.68313178       3.65605860       0.00000000       0.00294790       0.00443265      -0.00520932
C       -3.61751730       7.81954315       3.65732564       0.00000000      -0.00169895       0.00017463       0.00130710
C       -4.85241519       9.95840101       3.65604871       0.00000000      -0.00286771      -0.00255255       0.00290127
C        2.55039448       1.42053280       3.65490107       0.00000000      -0.00081995       0.00024510       0.00589263
C        1.30869256       3.57930826       3.64970938       0.00000000      -0.00449818      -0.00026560      -0.00495256
C        0.10637608       5.66042037       3.64807713       0.00000000       0.00258384      -0.00006881       0.00696415
C       -1.14160171       7.81598986       3.65445656       0.00000000      -0.00711575      -0.00021187      -0.00036834
C       -2.38330414       9.95841276       3.65871824       0.00000000       0.00937518      -0.00067210      -0.00148827
C        5.01541352       1.41700107       3.65634631       0.00000000      -0.00756027      -0.00378280       0.00454606
C        3.79199506       3.57945380       3.65260276       0.00000000       0.00620059       0.00629132       0.00139539
C        1.34921537       7.81254784       3.65234196       0.00000000      -0.00550186       0.00034332      -0.01117337
C        0.08655262       9.95292441       3.65417479       0.00000000       0.00919164      -0.00396525       0.00754469
C        7.48521098       1.41107857       3.65750115       0.00000000      -0.00214990       0.00073165      -0.00134062
C        6.26751465       3.53852943       3.65229651       0.00000000       0.00359289      -0.00553152       0.00451760
C        4.99437972       5.66161033       3.64540125       0.00000000      -0.00183490      -0.00398401      -0.00054379
C        3.75222247       7.81206214       3.64400931       0.00000000       0.00710246       0.00433000       0.00613254
C        2.55054071       9.97694612       3.64882897       0.00000000      -0.00532635      -0.00213317       0.00168442
C        9.95178680       1.41078307       3.65613250       0.00000000       0.00797151      -0.00064648       0.00386160
C        8.71887362       3.54705860       3.65858642       0.00000000      -0.00395802       0.00062719      -0.00129480
C        7.47903300       5.68328563       3.65350838       0.00000000      -0.00341739       0.00641005       0.00455544
C        6.24299784       7.81623064       3.65057703       0.00000000       0.00427802      -0.00387308      -0.00105070
C        5.01425126       9.95243921       3.65204036       0.00000000      -0.00556141       0.00159238       0.00156225
Tl       2.40135242       5.71233180       6.22691859       0.00000000       0.00012813       0.00079634      -0.00371291
O        0.69151311       5.89257668       9.24273633       1.00000000      -0.00281253       0.00133579      -0.00509575
O        0.17412621       5.88211940       8.10677153       1.00000000       0.00276092      -0.00264485       0.00954196
