51
Lattice="12.336457 0.0 0.0 -6.168228499999997 10.683685154694365 0.0 0.0 0.0 15.0" Properties=species:S:1:pos:R:3:initial_magmoms:R:1:forces:R:3 energy=-431.50171220179976 free_energy=-431.50171220179976 stress="0.00034197213581096573 1.4207403333445557e-05 3.435565118782144e-05 1.4207403333445557e-05 -0.008256660459502706 -2.1333860551190752e-05 3.435565118782144e-05 -2.1333860551190752e-05 4.650076159380991e-05" pbc="T T T"
C        0.07707797      -0.01606791       3.60196585       0.00000000       0.00011526      -0.00839364      -0.01101206
C       -1.14758663       2.14509977       3.46712238       0.00000000      -0.00212601      -0.00899055      -0.00179933
C       -2.41744232       4.27750219       3.68691226       0.00000000      -0.00828423       0.00670518      -0.00035044
C       -3.65803531       6.39159966       3.86409646       0.00000000       0.00945528       0.00121830       0.00638026
C       -4.87960324       8.51244433       3.80696195       0.00000000       0.00608012      -0.00506309       0.00089984
C        2.54634020      -0.08085732       3.52925278       0.00000000      -0.01133116       0.00691755       0.00194454
C        1.32781381       1.99920097       3.13180844       0.00000000      -0.02179980      -0.00290320      -0.00480591
C       -0.00581213       4.31846846       3.44416653       0.00000000       0.00218123       0.00721158       0.00988204
C       -1.15459304       6.39742635       3.94694567       0.00000000      -0.00136208       0.00739739       0.00571272
C       -2.38649400       8.51163581       3.90074241       0.00000000       0.00674190      -0.00662756      -0.00497032
C        5.01098468      -0.03299597       3.66604569       0.00000000       0.00233808      -0.00338538      -0.00841955
C        3.79377127       1.99456181       2.99429871       0.00000000       0.00247228      -0.00052368       0.01109412
S        1.70731618       6.23362030       4.26127714       0.00000000      -0.00669681      -0.00020173      -0.01102828
C        0.08789210       8.54743549       4.04225994       0.00000000       0.00050009      -0.00369570      -0.00740260
C        7.46240904       0.03674605       3.79560616       0.00000000       0.00611694       0.00978300       0.01578083
C        6.23121990       2.13095628       3.45784234       0.00000000      -0.00133198       0.01326487       0.00506934
C        5.00519165       4.28848614       3.28254716       0.00000000      -0.00008710      -0.01961314      -0.00204418
B        3.63189924       6.46630139       3.83204518       0.00000000       0.00021763      -0.00359781       0.00345690
C        2.54800723       8.65491886       4.00469158       0.00000000       0.00009258       0.00696749      -0.01068264
C        9.95552434       0.04545639       3.73428442       0.00000000       0.00627914       0.00142442       0.00549331
C        8.70260570       2.15538172       3.63398365       0.00000000      -0.00004339      -0.01074708      -0.01098649
C        7.44403152       4.27178300       3.66679884       0.00000000      -0.00337065      -0.00248436      -0.00050243
C        6.17637842       6.38686691       3.77457991       0.00000000       0.00643682      -0.00835106       0.01083356
C        4.99780833       8.56518865       3.82852749       0.00000000       0.00685278       0.02096046       0.00027041
C        0.08143664       1.40512932       3.39803471       0.00000000      -0.00997226      -0.01390992      -0.00490546
C       -1.18715179       3.56129051       3.49972354       0.00000000       0.00008953       0.00455066       0.01361117
C       -2.41153502       5.68914897       3.84516221       0.00000000       0.00285199       0.00633844       0.00022688
C       -3.64069477       7.80835365       3.87868749       0.00000000       0.00869583      -0.00050563      -0.00222822
C       -4.86706450       9.92975013       3.66195372       0.00000000      -0.00419330      -0.00234075       0.00658209
C        2.55906044       1.29861630       3.16936700       0.00000000      -0.01272182       0.00783791       0.00242219
S        1.45687854       3.67114150       2.79337944       0.00000000       0.00798873      -0.01641295      -0.01833058
C        0.03930389       5.65311014       3.83664879       0.00000000      -0.00097755       0.01499688      -0.00937667
C       -1.14899146       7.81906051       4.00901545       0.00000000       0.00613768      -0.00288862      -0.00008456
C       -2.38487779       9.92295411       3.71789484       0.00000000      -0.00619051      -0.00548354      -0.00633286
C        5.01267565       1.37432313       3.36511722       0.00000000       0.00618659       0.00344050       0.01006620
P        3.89979963       3.51893380       2.11876755       0.00000000      -0.00302453       0.00319412      -0.00265238
C        1.35232939       7.93932402       4.14509220       0.00000000      -0.00674002      -0.00650437      -0.00263408
C        0.07457089       9.97856528       3.86079035       0.00000000       0.00643854       0.00109419       0.00802600
C        7.46219843       1.44718312       3.63755316       0.00000000      -0.00364174       0.00747229      -0.00817548
C        6.22212486       3.55519112       3.46369793       0.00000000      -0.00419948       0.00674965      -0.00439084
C        4.92377865       5.66519252       3.62711952       0.00000000       0.00605550      -0.01648062       0.00191928
C        3.74641115       7.92635313       3.91697859       0.00000000       0.00688661       0.01606039       0.00617179
C        2.54082283      10.05905058       3.86943775       0.00000000       0.00623293       0.00689746       0.00352590
C        9.95586086       1.45714825       3.61124716       0.00000000       0.00188432      -0.01077475       0.00147620
C        8.68451244       3.56945513       3.66488423       0.00000000      -0.00870802      -0.00779514      -0.00654357
C        7.43155260       5.68774093       3.77778656       0.00000000       0.01399227      -0.00738495       0.00589538
C        6.21153858       7.80996739       3.81923368       0.00000000       0.00419841      -0.00064531       0.01485521
C        5.01033422       9.99520297       3.74016199       0.00000000       0.00482588       0.01115718      -0.00516001
Tl       2.26589303       3.81242357       5.97159034       0.00000000      -0.00026420       0.00385881       0.02804657
O        0.90076046       4.41047104       8.66895539       1.00000000      -0.01095895       0.00873184      -0.02369489
O        0.70869887       5.03672050       7.57592105       1.00000000      -0.01031938      -0.00852605      -0.01112886
