52
Lattice="12.336457 0.0 0.0 -6.168228499999997 10.683685154694365 0.0 0.0 0.0 15.0" Properties=species:S:1:pos:R:3:forces:R:3 energy=-442.52140987777705 free_energy=-442.52140987777705 stress="0.008044418350429888 0.0022538614796177086 -1.7905476762383904e-05 0.0022538614796177086 -0.002512891873454522 6.893781206843292e-05 -1.7905476762383904e-05 6.893781206843292e-05 5.808002530267137e-06" pbc="T T T"
C       -0.00361802       0.01282918       3.78372887      -0.00853229      -0.00426826       0.01073664
C       -1.21260315       2.17829150       3.82252535       0.00673932      -0.00292164      -0.00662922
C       -2.47297017       4.30587486       3.69479543       0.00259808       0.00865146       0.00001603
C       -3.72411322       6.41731763       3.64534040       0.00240858       0.00713580       0.00441949
C       -4.96183612       8.53786838       3.69259606      -0.00712191      -0.00206563       0.00664176
C        2.47465197      -0.00289926       3.75275600       0.00042412       0.00283488       0.00787915
C        1.27091004       2.12359013       3.99060872       0.00045493      -0.00275824      -0.00476014
C       -0.00801044       4.32743919       3.87869214      -0.00646264       0.00009685       0.00012802
C       -1.18812429       6.42684917       3.66052300      -0.00741655      -0.00584461       0.00567177
C       -2.47143169       8.54338076       3.66401527       0.01051830      -0.00062274      -0.00424869
C        4.93253028       0.00651221       3.68087566       0.00377074       0.00231449      -0.00346526
C        3.73028475       2.12203917       3.75449517      -0.00320578       0.00481824      -0.00262718
B        1.52677795       6.39576688       3.73283661       0.00559320       0.00675031      -0.00340399
C        0.01040853       8.56577169       3.66903668       0.00336352      -0.00456922      -0.00288617
C        7.39532316       0.05225106       3.67525184       0.00563823      -0.00658094      -0.00783278
C        6.16148516       2.16175798       3.64002655      -0.00779178      -0.00204534       0.00015278
C        4.89569552       4.24585635       3.62662428      -0.00297048      -0.00043616       0.01240267
B        3.37838257       6.38023651       3.72441334      -0.00069939       0.00889975       0.00087155
C        2.46262127       8.64223179       3.70377580       0.00504837       0.00261442      -0.00625403
C        9.87772693       0.05827277       3.72958400      -0.00255223      -0.00004718      -0.00525383
C        8.63898349       2.18096143       3.68593786       0.00269390       0.00958326       0.00107344
C        7.37161598       4.30054937       3.62968345      -0.00271666       0.00225151       0.00421958
C        6.06277451       6.38790107       3.65558066       0.00192896      -0.00655161      -0.00064057
C        4.90565264       8.55946500       3.71470032      -0.00715628       0.00100155       0.00385921
C        0.01560555       1.44672700       3.87683272       0.00401153      -0.00555298      -0.00912239
C       -1.23048365       3.59846481       3.79604366      -0.00034429      -0.00156139      -0.00743522
C       -2.46266460       5.72437640       3.65884537      -0.00465673       0.00559985      -0.00478050
C       -3.71835408       7.83599631       3.66185250       0.00303502       0.00572610       0.00093877
C       -4.94169475       9.96796701       3.74703019      -0.00713869       0.00059329      -0.00115169
C        2.49988809       1.42699289       3.84409830       0.00147811       0.00330923       0.00527569
B        1.19626980       3.55744899       4.26961355       0.00507589      -0.00019363      -0.01897997
C        0.08492344       5.72595936       3.73157411      -0.00767227      -0.00074658       0.00185951
C       -1.22687545       7.84584435       3.65524426       0.00500182      -0.00996891      -0.00507962
C       -2.46729456       9.96992250       3.69384962       0.00492476       0.00307729      -0.00660229
C        4.93998015       1.43405274       3.68162321      -0.00798846       0.00224397      -0.00642422
O        3.72296248       3.49377968       3.67856675       0.00124910       0.00085077       0.01228076
C        1.25979221       7.90425512       3.69452083       0.00593051       0.00747122       0.00618608
C        0.00205810       9.99893810       3.66750062       0.00397340      -0.00348087       0.00198078
C        7.39536402       1.47227385       3.65991634      -0.00151237      -0.00052612       0.00533580
C        6.13585953       3.57676114       3.61309883      -0.00562036      -0.00107681       0.00806203
C        4.78583919       5.65678652       3.65197820      -0.00067647      -0.00008171       0.00292573
C        3.65751524       7.89337028       3.72038190       0.00067711       0.00417282      -0.00147586
C        2.46757259      10.05723637       3.69705346       0.00526093      -0.00492657       0.00044226
C        9.88115614       1.47651978       3.74249810       0.00367300       0.00150513      -0.00215740
C        8.62383136       3.59944952       3.66571110       0.00308711       0.01287766      -0.00193295
C        7.34454274       5.71171940       3.63974963       0.00718252       0.00089988      -0.00329132
C        6.12418490       7.82023433       3.68771603      -0.00939788      -0.00555410       0.00512232
C        4.92822145      10.00142779       3.74101592      -0.00942907      -0.00050911       0.00877600
Tl       2.39166959       4.74214180       5.91553361      -0.00294453      -0.01253649      -0.00252504
O        3.31279030       4.07753412       7.87402188      -0.00024521      -0.00217955      -0.00222209
O        2.28005440       4.57518934       8.81241881       0.01453769      -0.00022658       0.00717529
H        2.80792364       5.26462151       9.25647186      -0.00602641      -0.01744675      -0.00325069
