52
Lattice="12.336457 0.0 0.0 -6.168228499999997 10.683685154694365 0.0 0.0 0.0 15.0" Properties=species:S:1:pos:R:3:forces:R:3 energy=-439.2184092605288 free_energy=-439.2184092605288 stress="-0.0012691448184316307 -0.002766385907175003 4.161559477531389e-05 -0.002766385907175003 -0.006168878916920248 1.3741994148628555e-05 4.161559477531389e-05 1.3741994148628555e-05 2.6333834278774082e-05" pbc="T T T"
C       -0.08523665      -0.22531635       3.60630481       0.00166265      -0.00529623      -0.00940908
C       -1.32911674       1.91747794       3.54893020      -0.00529878      -0.00579852      -0.00753399
C       -2.56953843       4.05568161       3.71483166       0.00893986      -0.00378180       0.01631639
C       -3.78732691       6.19202394       3.77488285       0.00417372       0.00570127      -0.00444254
C       -5.01346776       8.32048661       3.70261258       0.00148445       0.00419795      -0.00705117
C        2.38734252      -0.27013190       3.75702027       0.00143226       0.00875624      -0.00275503
C        1.16942284       1.84252257       3.44422854      -0.00087691       0.00660011       0.00551109
C       -0.11867288       4.08175272       3.59921248      -0.00492478      -0.00169566       0.00170823
C       -1.33008259       6.19075061       3.92657460      -0.00158492      -0.00592798      -0.01430302
C       -2.53781114       8.31468592       3.88236690       0.00431733      -0.00343294       0.00373450
C        4.85302464      -0.22341888       3.94197350      -0.01049702      -0.00340608      -0.00865801
C        3.57454409       1.85433910       3.99922167      -0.00900909       0.00220245       0.00222830
B        1.10235742       6.21761293       4.26589506       0.00780424      -0.00087606       0.00725086
C       -0.06549178       8.32984686       3.99840597       0.00620986      -0.00676190      -0.01254288
C        7.32017184      -0.20384287       3.87999554       0.00102403       0.00555392       0.01570334
C        6.06090577       1.94718723       3.92340631      -0.00797923      -0.00344605       0.01415867
C        4.83416775       4.16893717       3.88751345      -0.01413634       0.00235312      -0.00664893
O        3.67320814       6.27184009       3.69182651       0.00626986       0.00157799      -0.01718753
C        2.42582773       8.33407698       3.86222517       0.00659921      -0.00004844       0.00451452
C        9.78353990      -0.20720593       3.70217752      -0.00172742      -0.00081346      -0.00044754
C        8.53688988       1.92867056       3.74730514      -0.00376648       0.00446473      -0.00076065
C        7.29257699       4.07155916       3.76966546       0.00625281      -0.00433147       0.00065784
C        6.08899543       6.22309654       3.66135022       0.00779087       0.01447080       0.00925703
C        4.85986360       8.33999233       3.67306832      -0.00093609      -0.00267560      -0.00156582
C       -0.08740160       1.19840418       3.50594085       0.00375086       0.00170119       0.00522142
C       -1.32961233       3.34012884       3.60113664      -0.00211304      -0.00677769      -0.00946709
C       -2.56286990       5.47831036       3.80935301       0.00124519      -0.00474822       0.01532530
C       -3.77422584       7.61153388       3.78671884       0.00088469       0.00429840       0.01164235
C       -5.02023834       9.73524919       3.67773743       0.00249728       0.00148871       0.00471099
C        2.37686197       1.13610440       3.72664244      -0.00059524       0.00662365       0.00134683
P        1.42318926       3.51637187       2.93414478       0.00068197      -0.00111468       0.01531235
C       -0.11340228       5.46044021       3.91511477      -0.00210408      -0.00433852       0.00640718
C       -1.29984945       7.60767268       3.96813715       0.00210504      -0.00650151       0.00534242
C       -2.53991604       9.72987865       3.87566226      -0.00589313      -0.00071025      -0.00091193
C        4.83809956       1.20995327       3.97851912      -0.01391513      -0.00589473      -0.00076233
P        3.27794640       3.52821406       4.44943100       0.02193989       0.00955061       0.00166823
C        1.19131899       7.64833253       4.03015816       0.00880223      -0.00885576      -0.00931199
C       -0.07984885       9.76203390       3.94750282      -0.00106335      -0.00067432      -0.00341424
C        7.30075929       1.22690998       3.85409094      -0.00488043       0.00551029      -0.01672239
C        6.04069457       3.38540928       3.85899924      -0.00299544      -0.00311315       0.00578028
C        4.86838204       5.56262906       3.72262071       0.00639249       0.00880204      -0.00077994
C        3.65495568       7.63988945       3.73680198       0.00349581      -0.00712444      -0.00765202
C        2.39592609       9.76424205       3.81359323      -0.00048215       0.00144103      -0.01147503
C        9.77660970       1.21852469       3.66088929      -0.00986652      -0.00209486      -0.00707866
C        8.53141707       3.35188604       3.73762330       0.01039883       0.00049138       0.00572869
C        7.31218170       5.48793671       3.72420659       0.00464051       0.00617397      -0.00228113
C        6.09524874       7.63311224       3.65422244       0.00537197       0.01179733      -0.01091979
C        4.84782119       9.76331438       3.65555543      -0.00161304      -0.00562691       0.01054425
Tl       2.18308035       5.52160231       6.40695018      -0.00255378       0.00704654       0.00505675
O        4.11718669       6.88657084       6.33835260      -0.03244059      -0.01696801       0.03809705
O        3.54317702       8.01849307       7.04033017       0.03114720       0.00940865      -0.00628374
H        4.15169964       8.06986862       7.80597906      -0.02606212      -0.00737715      -0.03285841
