51
Lattice="12.336457 0.0 0.0 -6.168228499999997 10.683685154694365 0.0 0.0 0.0 15.0" Properties=species:S:1:pos:R:3:initial_magmoms:R:1:forces:R:3 energy=-443.1363784641797 free_energy=-443.1363784641797 stress="0.027107110716215063 0.0012662198472750685 3.3369479928435527e-06 0.0012662198472750685 -0.0021434927642735944 -3.5391968928624003e-06 3.3369479928435527e-06 -3.5391968928624003e-06 -2.4112468995255724e-06" pbc="T T T"
C        0.05771138      -0.05800106       3.67900385       0.00000000       0.00191708       0.00257183       0.00315691
C       -1.11773305       2.15096503       3.65137596       0.00000000      -0.00059854      -0.00289081      -0.00308570
C       -2.34058030       4.25210410       3.61143859       0.00000000       0.00204779       0.00236399       0.00127188
C       -3.65372131       6.33091196       3.61994842       0.00000000      -0.00016263       0.00278590      -0.00930524
C       -4.91522957       8.43697465       3.65774898       0.00000000      -0.00475168       0.00584020      -0.00173185
C        2.51847794      -0.14907122       3.65378615       0.00000000      -0.00031150       0.00351392       0.00959923
C        1.35459732       2.02363028       3.67719911       0.00000000      -0.00793896       0.00698477      -0.00571904
C        0.29764933       4.25392331       3.61690546       0.00000000       0.00414408       0.00116179      -0.00450209
C       -1.05121618       6.34674471       3.59808032       0.00000000       0.00760483       0.00120129       0.00062995
C       -2.39657256       8.44457658       3.62583721       0.00000000       0.00074607      -0.00109078       0.00608490
C        4.98187161      -0.05429078       3.62700960       0.00000000       0.00237401       0.00413601      -0.00552102
C        3.70533809       2.04279739       3.62166976       0.00000000      -0.00010167      -0.00022948       0.01116347
C        1.59277570       6.44003883       3.61351104       0.00000000      -0.01329546      -0.00147644      -0.00366544
C        0.07810037       8.52194914       3.62296228       0.00000000       0.00596909      -0.00386891       0.00296693
C        7.44081540       0.03995902       3.64131592       0.00000000      -0.00420298      -0.00809522       0.00601329
C        6.17073640       2.13969345       3.61125030       0.00000000       0.00971244       0.00228729      -0.00418750
C        4.74124471       4.22312364       3.59363145       0.00000000      -0.00505291       0.00886342      -0.00060398
B        3.32173982       6.39001267       3.65181377       0.00000000      -0.00583790      -0.00989277       0.00631297
C        2.51349663       8.64300918       3.66683990       0.00000000       0.00255738      -0.00350555       0.00888190
C        9.94005485       0.04367723       3.66989425       0.00000000      -0.00117359      -0.00258793      -0.00146992
C        8.69379832       2.16028497       3.63018196       0.00000000      -0.00241858      -0.00049877       0.00023200
C        7.38304404       4.24156251       3.60570588       0.00000000      -0.00541162      -0.00139039      -0.00496773
C        6.07489944       6.32661239       3.63278616       0.00000000       0.00713386       0.00157345      -0.00726065
C        4.94571338       8.51570560       3.68363163       0.00000000      -0.00127621      -0.00557188      -0.00365325
C        0.09457461       1.38571386       3.67390876       0.00000000      -0.00423268       0.00067022       0.00721596
C       -1.03557319       3.57366009       3.62249896       0.00000000       0.00827339      -0.00004452       0.00359361
C       -2.34400387       5.65837260       3.60717708       0.00000000       0.00490370       0.00303076      -0.00634934
C       -3.65421900       7.73979017       3.63422630       0.00000000      -0.00603512       0.00381584       0.00125816
C       -4.90043949       9.85693168       3.66895017       0.00000000       0.00064357       0.00472085      -0.00393362
C        2.52588938       1.25787529       3.65468719       0.00000000      -0.00720040       0.00435854       0.00703079
B        1.72035024       3.51218251       3.64540779       0.00000000      -0.01183100      -0.00776651       0.00002407
C        0.29766474       5.67690738       3.59614936       0.00000000      -0.00062065       0.00262107      -0.01022356
C       -1.13226457       7.76070666       3.61168651       0.00000000       0.00638718      -0.00008745       0.00910275
C       -2.40161969       9.86095802       3.63461828       0.00000000       0.00191633       0.00094294       0.00468258
C        4.96040142       1.37874058       3.61560670       0.00000000       0.00613554       0.00528443       0.00397757
C        3.44602003       3.46101188       3.60542426       0.00000000       0.01050228      -0.00047536       0.00755070
C        1.33354661       7.85827575       3.63506606       0.00000000       0.00420902      -0.00317176      -0.00608360
C        0.05714081       9.95508188       3.63165141       0.00000000      -0.00221458      -0.00561431      -0.00990029
C        7.43550302       1.45621274       3.62927366       0.00000000       0.00356066      -0.00728876      -0.01263239
C        6.08996909       3.55338062       3.59557034       0.00000000       0.00175804       0.00115311       0.00311620
C        4.74265718       5.64618103       3.62253005       0.00000000      -0.00133612       0.00775310      -0.00616462
C        3.68561466       7.87803609       3.68567963       0.00000000      -0.00170559      -0.00924538       0.00889124
C        2.52085484      10.04990151       3.66283510       0.00000000      -0.00259114      -0.00304839       0.00272330
C        9.95509213       1.46329154       3.65004206       0.00000000      -0.00309116      -0.00118150       0.01195343
C        8.69305119       3.56898647       3.61332860       0.00000000      -0.00459013       0.00146928       0.00057985
C        7.37977578       5.64783403       3.61833322       0.00000000       0.00200518      -0.00019925      -0.00547921
C        6.15751087       7.74964556       3.66301908       0.00000000       0.00126138      -0.00019621      -0.00947003
C        4.98216753       9.95915124       3.68178154       0.00000000       0.00251084      -0.00245679       0.00606310
Tl       2.51528532       4.97629479       5.98660669       0.00000000       0.00088417       0.00217911      -0.01600164
O        1.64794256       5.45034600       9.23841424       1.00000000      -0.00163015       0.00070107       0.00184271
O        0.66930581       6.00205408       8.70614731       1.00000000       0.00045509      -0.00010905       0.00599225
