51
Lattice="12.336457 0.0 0.0 -6.168228499999997 10.683685154694365 0.0 0.0 0.0 15.0" Properties=species:S:1:pos:R:3:initial_magmoms:R:1:forces:R:3 energy=-442.7391714753518 free_energy=-442.7391714753518 stress="0.021913315611044645 -1.3753265099816889e-06 -2.078285985386843e-05 -1.3753265099816889e-06 -0.0021073352759374804 -1.226131089158525e-05 -2.078285985386843e-05 -1.226131089158525e-05 -1.945154692176894e-05" pbc="T T T"
C        0.07744277       0.01214410       3.65742583       0.00000000       0.00926055       0.00271974      -0.00573154
C       -1.11339567       2.18586197       3.60984618       0.00000000      -0.00867693       0.00561874       0.00525487
C       -2.33448000       4.28877965       3.58464173       0.00000000       0.00020517      -0.00183910       0.00121816
C       -3.63089282       6.38640938       3.62005278       0.00000000      -0.00103964      -0.00556828      -0.01110939
C       -4.88459481       8.50667608       3.65374726       0.00000000      -0.00234920      -0.00585678       0.00799194
C        2.53684678      -0.06467302       3.66474093       0.00000000       0.00627750       0.00148054      -0.00087045
C        1.36227915       2.12657697       3.63423092       0.00000000      -0.00511126      -0.00177731       0.00352699
C        0.29463462       4.26408002       3.58104452       0.00000000      -0.00175358      -0.00193048      -0.00287876
C       -1.05395823       6.38413688       3.62019276       0.00000000      -0.00118291       0.00272736      -0.00137015
C       -2.37702482       8.50657995       3.65650873       0.00000000      -0.00194661       0.00019168      -0.00233343
C        4.99636752       0.01283124       3.66296617       0.00000000      -0.00508706      -0.00714843      -0.00294620
C        3.71190305       2.12694994       3.64253343       0.00000000      -0.00115209      -0.00219567      -0.00073298
B        1.63383391       6.42350736       3.65690194       0.00000000       0.00606366       0.00110961       0.00168472
C        0.09109775       8.57582304       3.67192629       0.00000000       0.00194099       0.00272593       0.00953545
C        7.45689140       0.08434135       3.66513834       0.00000000      -0.00346403       0.00019456       0.00342723
C        6.18735833       2.18685181       3.61834713       0.00000000       0.00358387      -0.00237806       0.00102614
C        4.77877479       4.26408416       3.58708562       0.00000000       0.00129476       0.01108113       0.00470138
B        3.44048904       6.42403544       3.65643743       0.00000000       0.00353813      -0.00331062       0.00404859
C        2.53703683       8.68201677       3.69491826       0.00000000       0.00074140       0.00046447      -0.00830153
C        9.95334513       0.08404307       3.66460956       0.00000000       0.00159472       0.00352801      -0.00027345
C        8.70479363       2.19780546       3.61179321       0.00000000       0.00812968       0.00161931       0.00307595
C        7.40806357       4.28930580       3.58586141       0.00000000       0.00419087      -0.00464223       0.00992118
C        6.12843293       6.38446850       3.62026279       0.00000000      -0.00451969      -0.00120366       0.00103606
C        4.98354164       8.57575809       3.67495994       0.00000000      -0.00964498       0.00107769      -0.00745136
C        0.09963075       1.44326406       3.63366617       0.00000000      -0.00850280       0.00316261       0.00899035
C       -1.04720724       3.59691693       3.57937225       0.00000000      -0.00497520       0.00086913       0.00534317
C       -2.34251187       5.69829254       3.60589658       0.00000000       0.00035920       0.00038135      -0.00891574
C       -3.63077455       7.80070212       3.64479731       0.00000000      -0.00086380      -0.00719491      -0.00120885
C       -4.87645988       9.92917273       3.66214954       0.00000000       0.01097366      -0.00422030       0.00082362
C        2.53714695       1.34067373       3.65550105       0.00000000      -0.00432217       0.00337823       0.00254144
C        1.58286356       3.52073175       3.60391532       0.00000000       0.00227620      -0.00174073      -0.00125719
C        0.24529087       5.69024373       3.61054645       0.00000000      -0.00062675      -0.00518090      -0.00034917
C       -1.12214943       7.81239917       3.65170247       0.00000000       0.00017178       0.00460659      -0.00423561
C       -2.38613113       9.92927885       3.66583335       0.00000000      -0.00089591      -0.00183231      -0.00096107
C        4.97462789       1.44412131       3.64484466       0.00000000      -0.00036873      -0.00449818      -0.00541076
C        3.49078589       3.52082338       3.60954815       0.00000000       0.00004204       0.00136319      -0.00130484
C        1.34288884       7.93183914       3.68798031       0.00000000       0.00429650       0.00480836       0.00098555
C        0.06906357      10.01574851       3.67017193       0.00000000      -0.00474143      -0.00005411      -0.00119289
C        7.45048402       1.49811540       3.63107701       0.00000000       0.00777567       0.00009344       0.00181542
C        6.12100160       3.59762729       3.58566925       0.00000000       0.00217299      -0.00271737       0.00282264
C        4.82885696       5.69034920       3.61255301       0.00000000      -0.00291990       0.00337273       0.00724096
C        3.73144753       7.93219695       3.68963320       0.00000000      -0.00312967      -0.00646748      -0.00178275
C        2.53686332      10.09157583       3.68342983       0.00000000       0.00054173       0.00333506      -0.01328140
C        9.95936792       1.49771284       3.62788182       0.00000000       0.00189094       0.00403776      -0.00032539
C        8.70481275       3.60837496       3.58742091       0.00000000       0.00689791      -0.00132829       0.00393741
C        7.41689080       5.69878560       3.60596160       0.00000000      -0.00340696      -0.00306447      -0.00902824
C        6.19703356       7.81258636       3.65122826       0.00000000      -0.01200036       0.00018256      -0.00158581
C        5.00487909      10.01530214       3.66984941       0.00000000       0.00313143       0.00699609      -0.00411746
Tl       2.51088523       5.18793634       5.94444011       0.00000000      -0.00468868       0.00061993       0.00001485
O        1.34268062       4.26417737       8.80163660       1.00000000       0.01303319       0.00236408       0.00178265
O        0.13715309       3.98136036       8.69803887       1.00000000      -0.00301418       0.00203982       0.00620971
