52
Lattice="12.336457 0.0 0.0 -6.168228499999997 10.683685154694365 0.0 0.0 0.0 15.0" Properties=species:S:1:pos:R:3:forces:R:3 energy=-435.8728235134214 free_energy=-435.8728235134214 stress="0.001540004245911202 -0.0014636221305843107 2.554780404906113e-05 -0.0014636221305843107 -0.010650303053672294 -5.230285501644777e-05 2.554780404906113e-05 -5.230285501644777e-05 -8.958376151275351e-06" pbc="T T T"
C       -0.00879879      -0.04126706       3.95801704       0.00212520      -0.00357832      -0.00673143
C       -1.24885485       2.11694694       4.06179183       0.00485919      -0.00624002      -0.00481929
C       -2.49111672       4.24555379       3.81085532      -0.00007324       0.00676087       0.00035701
C       -3.71964825       6.36428988       3.63859668       0.00223136      -0.00212668       0.00672829
C       -4.95244062       8.48515068       3.75417949      -0.00339582       0.00126478       0.00248627
C        2.46152247      -0.10338215       3.82147616       0.00230246       0.00440220      -0.00367467
C        1.25551424       2.02889731       4.14005592      -0.00529822       0.00174751      -0.00635682
C       -0.04057040       4.26802001       4.06097175       0.00370164      -0.00563927      -0.00369103
C       -1.21527685       6.35695078       3.58248345       0.00999598       0.00402812       0.00482987
C       -2.45779663       8.47260152       3.62640805      -0.00925359      -0.00347781      -0.00771562
C        4.92212702      -0.05821139       3.61513288       0.00582577       0.01047924      -0.01227646
C        3.65009284       1.99601724       3.49770344      -0.00629139       0.00009248       0.00323687
S        1.62572131       6.20739190       3.13439890      -0.00481875       0.01098731      -0.00007502
C        0.01231413       8.50582884       3.50858380      -0.00018763       0.00567735      -0.00357536
C        7.37144794       0.01108026       3.66123396      -0.00010520      -0.00527563       0.01106146
C        6.12641295       2.11892524       3.50052137       0.00869834      -0.00458018       0.00000467
C        4.93892337       4.27250214       3.23000110      -0.00072869      -0.01286104      -0.01233664
B        3.55627304       6.44266124       3.50922250      -0.00732477       0.00028552       0.00061852
C        2.46375959       8.62407328       3.60728535      -0.00147971       0.00263743      -0.00095526
C        9.86131987       0.01810962       3.85863328      -0.00769922      -0.00745822       0.00938514
C        8.60656523       2.13093118       3.77510302      -0.00140915       0.00040266       0.00306101
C        7.37020871       4.24847405       3.58020827      -0.00561451       0.00151959       0.00039291
C        6.11935310       6.37748643       3.57622747       0.00791660      -0.00216750       0.00382033
C        4.92092477       8.54339440       3.75540097       0.00283526       0.00218170       0.00823148
C       -0.00685063       1.38564976       4.09258972       0.00273335      -0.00528332      -0.00434806
C       -1.26504476       3.53353311       4.01485642       0.00295012      -0.00249069      -0.00531403
C       -2.47640177       5.65760428       3.67068334       0.00739553       0.00830330       0.00921683
C       -3.71001959       7.77842466       3.66807845      -0.01120100      -0.00418413      -0.00250528
C       -4.95207927       9.89939290       3.86694339       0.00186041       0.00168216       0.00407589
C        2.45790182       1.31064650       3.86364656      -0.00407741       0.00480572       0.00548476
P        1.44404473       3.64489133       4.77903849       0.00122230      -0.00687130      -0.00356001
C       -0.01620932       5.60406767       3.65253966       0.00712647      -0.00067440       0.00666419
C       -1.21878328       7.77437772       3.53612284      -0.00072046       0.00256288      -0.00649426
C       -2.46872098       9.89303595       3.67844456       0.00513510       0.00184270       0.00814793
C        4.90806913       1.37444487       3.52975880       0.00280993       0.01007383      -0.00456351
S        3.45647363       3.52557844       2.73061928      -0.01132670      -0.01373917      -0.00188813
C        1.27592588       7.89896985       3.43361386      -0.00072643       0.00227892      -0.00363119
C       -0.00669030       9.94316244       3.58972847       0.00334799       0.00474770       0.00752337
C        7.36207794       1.43157319       3.65241077       0.00441414      -0.00763654       0.00383483
C        6.13159414       3.53385413       3.42546962       0.00068473      -0.00723543       0.00353016
C        4.87122464       5.66889113       3.41542021       0.00603248      -0.00819923      -0.01195591
C        3.67070079       7.90715907       3.64428215       0.00079458       0.00937960      -0.00104051
C        2.44988477      10.02894850       3.72912621      -0.00531415      -0.00342788      -0.00691715
C        9.85195620       1.42966695       3.91688779      -0.00112001      -0.00731788       0.00639600
C        8.60545321       3.54378622       3.73128228      -0.00569812       0.00554059      -0.00264397
C        7.36807627       5.66559296       3.59881422       0.00683757       0.00084330      -0.00029887
C        6.14121362       7.79432264       3.71064619       0.00252140       0.00095010      -0.00382932
C        4.92369811       9.97003540       3.87470431      -0.00100811      -0.00100457       0.00315592
Tl       3.15368089       5.84257736       6.49887924      -0.00369382      -0.00136548       0.00871438
O        2.42351318       6.76102325       8.44341501       0.01005054      -0.00363327       0.01162103
O        2.90656848       5.61254299       9.24956986      -0.01563341       0.00379835      -0.01156350
H        3.50347779       6.09382982       9.84965954      -0.00220894       0.01719206       0.00018220
