52
Lattice="12.336457 0.0 0.0 -6.168228499999997 10.683685154694365 0.0 0.0 0.0 15.0" Properties=species:S:1:pos:R:3:forces:R:3 energy=-445.3315919122075 free_energy=-445.3315919122075 stress="0.015623069154804109 0.0008696312957579403 1.1264429709396849e-05 0.0008696312957579403 -0.0045590037502072625 1.5490740450178963e-05 1.1264429709396849e-05 1.5490740450178963e-05 -6.7939338414255186e-06" pbc="T T T"
C       -0.01418394       0.13821497       3.76583456      -0.00210636      -0.00304241       0.00352993
C       -1.20799536       2.30480563       3.80727109      -0.00513739       0.00123139      -0.00222322
C       -2.43130487       4.40736995       3.77089181       0.00043631       0.00058828       0.00734639
C       -3.72480125       6.51276009       3.72695234       0.00319239       0.00113518      -0.01021376
C       -4.98094335       8.63595623       3.70779620       0.00474612       0.00479197       0.00206608
C        2.43943353       0.06647815       3.82901136       0.00732994      -0.00487866      -0.00383091
C        1.26755013       2.25644457       3.79480658      -0.00456336      -0.00275492       0.00368395
C        0.18132700       4.38278976       3.72223493      -0.00841982       0.00134280       0.01576345
C       -1.18366611       6.51488597       3.71779595       0.00056948       0.00249605      -0.00153106
C       -2.48224459       8.63830344       3.79882821      -0.00098509       0.00041427      -0.00272933
C        4.89652439       0.13892919       3.90175471       0.00432515      -0.00490766      -0.01134591
C        3.62374738       2.24894625       3.84815162       0.00057471      -0.00321474       0.00424549
B        1.39141692       6.59263863       3.53205392      -0.01215145       0.00591367       0.01260774
C       -0.02428246       8.71299424       3.81726156      -0.00540537      -0.00266098      -0.00325893
C        7.36367494       0.20148234       3.91390459      -0.00577206       0.00057104      -0.01026324
C        6.10549126       2.29667684       3.90769803       0.00081599       0.00160886      -0.01077835
C        4.73150579       4.35842205       3.74700921      -0.00365622       0.00332462       0.00829717
P        3.26942482       6.44183321       3.01885697       0.01098846      -0.00231594       0.01094023
C        2.42964180       8.81523830       3.68868208       0.00719425       0.00295839      -0.00131192
C        9.86233889       0.20100860       3.81102094       0.00153414       0.00462945       0.00861749
C        8.61759642       2.31269856       3.87467087       0.00014047      -0.00325063      -0.00006057
C        7.33194099       4.40560495       3.79693352       0.00320468      -0.00074377      -0.00275835
C        6.07272552       6.50859458       3.62321592      -0.00351302       0.00341490      -0.00605266
C        4.89580145       8.70759684       3.59151572       0.00867542      -0.00225753      -0.00145139
C        0.00645454       1.56820909       3.79493966      -0.00811133      -0.00229661      -0.00741521
C       -1.14783951       3.71434592       3.77095788      -0.00510830       0.00077124       0.00074444
C       -2.45078414       5.82003716       3.73621693       0.00511361       0.00101398       0.00375179
C       -3.73011568       7.92963884       3.73949678       0.00034961       0.00342494       0.00608877
C       -4.97014574      10.05809814       3.76486312       0.00444111       0.00249405       0.00413225
C        2.44384555       1.47217276       3.83790333       0.00025873      -0.00422825      -0.00739825
C        1.47859863       3.65178311       3.75863801      -0.00044448       0.00231534      -0.00092107
C        0.09098851       5.80711021       3.66005218      -0.00734585      -0.00312694      -0.01332017
C       -1.23353718       7.94478355       3.77979536      -0.00409008       0.00075718      -0.00236284
C       -2.48757020      10.05970875       3.85196021       0.00638578      -0.00415675      -0.00011947
C        4.88450926       1.56500131       3.89885967       0.00352704      -0.00406658      -0.00497087
C        3.42155259       3.64352189       3.77587211      -0.00463817       0.00294136       0.00642288
C        1.22387747       8.07791007       3.70399664       0.00031705       0.00360237      -0.00513376
C       -0.03316861      10.14319572       3.90022375      -0.00234015      -0.00640232      -0.00298683
C        7.36456734       1.61150085       3.92036753      -0.00095425      -0.00072713      -0.00709425
C        6.05480175       3.70431314       3.83853975      -0.00227392       0.00411279       0.00343566
C        4.82289382       5.76911224       3.56628459      -0.00231393       0.00330305      -0.00330496
C        3.63083426       8.09228311       3.46854599       0.01054657      -0.00403084       0.00480759
C        2.44367039      10.20948995       3.83924447      -0.00123042       0.00674427      -0.00693948
C        9.86834759       1.61328200       3.84347716       0.00000334       0.00168745       0.00868813
C        8.61883015       3.72320665       3.82026285       0.00309058      -0.00361265       0.00722096
C        7.34089146       5.81713110       3.71534547      -0.00017213       0.00039150       0.00127486
C        6.10708978       7.93992026       3.61674989       0.00609943       0.00073311      -0.00114444
C        4.91453887      10.13783437       3.72653286       0.00032526      -0.00183940      -0.00337300
Tl       2.42792271       4.57597145       6.44129286       0.00110706       0.00483572       0.00364255
O        3.31051397       2.51309408       6.92294512      -0.00620928      -0.00358246       0.00764134
O        2.73950683       2.48525233       8.28089700       0.00775547       0.00384990       0.00231953
H        3.56475947       2.46087284       8.80069235      -0.00610573      -0.00930194      -0.00297446
