51
Lattice="12.336457 0.0 0.0 -6.168228499999997 10.683685154694365 0.0 0.0 0.0 15.0" Properties=species:S:1:pos:R:3:initial_magmoms:R:1:forces:R:3 energy=-438.6325228762571 free_energy=-438.6325228762571 stress="0.01265808964169224 -0.0025483958043423403 8.736321899609093e-06 -0.0025483958043423403 -9.668310796363548e-05 -2.161887383730557e-05 8.736321899609093e-06 -2.161887383730557e-05 -6.3798907404624965e-06" pbc="T T T"
C        0.03765896      -0.04140802       3.72076512       0.00000000       0.00024668      -0.00411153      -0.00088660
C       -1.18949835       2.12396967       3.69055995       0.00000000       0.00062678      -0.00976395       0.00548145
C       -2.40523789       4.26237282       3.66612799       0.00000000      -0.00168716       0.00738128      -0.00483665
C       -3.64714604       6.37442528       3.69994075       0.00000000      -0.00117410      -0.00528864      -0.00054838
C       -4.89555365       8.49804441       3.73815318       0.00000000       0.00789432       0.00262132      -0.00120058
C        2.50170428      -0.04323108       3.66762819       0.00000000       0.00136215       0.00100376       0.00457245
C        1.24105376       2.07207994       3.66252627       0.00000000      -0.00882934       0.00369829      -0.00401827
C        0.07711322       4.21165943       3.71290548       0.00000000       0.00048161       0.00504286       0.00367810
C       -1.07044382       6.33946313       3.68514663       0.00000000      -0.00035767       0.01256017      -0.00111690
C       -2.39684380       8.49032032       3.70202377       0.00000000      -0.00330759      -0.00813164       0.00387460
C        4.97590313      -0.03220592       3.60196837       0.00000000       0.00335306      -0.00130678      -0.00060180
C        3.70704981       2.07247168       3.29810470       0.00000000      -0.00341859      -0.00907460      -0.00236487
B        1.66453363       6.36111253       3.68030756       0.00000000       0.00612347      -0.00113809      -0.01203428
C        0.07808549       8.51490332       3.70023715       0.00000000      -0.00310018      -0.00554800      -0.00171742
C        7.43078805       0.02050000       3.65437603       0.00000000      -0.00216720      -0.00215506       0.00002121
C        6.18100842       2.14187125       3.47438228       0.00000000       0.01154299       0.01497692       0.00403301
C        4.94470411       4.29917864       3.33689422       0.00000000      -0.00321312      -0.00265153      -0.00868517
C        3.49625127       6.40753775       3.62562165       0.00000000       0.00207327      -0.01116522       0.00308841
C        2.51402767       8.60167069       3.71827749       0.00000000      -0.00107879       0.00550439       0.00373810
C        9.91219380       0.01146733       3.70610113       0.00000000      -0.00259873       0.00388268       0.00551331
C        8.66597174       2.14689288       3.63558851       0.00000000       0.00676435      -0.00654052      -0.00180605
C        7.42219024       4.27249776       3.60240677       0.00000000      -0.00298405      -0.00534467      -0.00050509
C        6.13166645       6.38322916       3.68328668       0.00000000      -0.00262463      -0.00656398      -0.01534108
C        4.95772296       8.51969536       3.72507757       0.00000000       0.00208408       0.00681417       0.00091466
C        0.03505262       1.39026475       3.69770558       0.00000000      -0.00344378      -0.00861683      -0.00619072
C       -1.16227481       3.54227254       3.67734079       0.00000000      -0.00105838      -0.00451038       0.00420209
C       -2.36885572       5.67247892       3.68317919       0.00000000       0.00323117       0.01078564      -0.00218051
C       -3.64653067       7.79129580       3.72164859       0.00000000      -0.00002302      -0.00727732      -0.00001548
C       -4.89636199       9.92442187       3.72539092       0.00000000       0.00431772       0.00335480       0.00426660
C        2.47914705       1.38587099       3.55346329       0.00000000      -0.01068470       0.00177169       0.01061025
O        1.23230142       3.44170829       3.86209012       0.00000000       0.00658739       0.00472789       0.01605132
C        0.23004295       5.62022174       3.67466724       0.00000000      -0.00561468       0.00670374      -0.00530554
C       -1.14155162       7.77247390       3.69733228       0.00000000      -0.00391262       0.00378740      -0.00247807
C       -2.41924085       9.92132235       3.66140146       0.00000000       0.00132382      -0.00666727       0.00390704
C        4.95508868       1.40100198       3.44985064       0.00000000       0.00901610       0.00990537       0.01271155
P        3.65150884       3.58360088       2.42757420       0.00000000       0.00427756       0.00127817       0.00839673
C        1.33273877       7.85012716       3.71811304       0.00000000       0.00059335       0.00040000      -0.00281467
C        0.04614472       9.95891479       3.65914021       0.00000000      -0.00142382      -0.00873105      -0.00422982
C        7.42186302       1.44172983       3.59287652       0.00000000       0.00671847      -0.00019661      -0.00181917
C        6.17750482       3.56836766       3.47109364       0.00000000      -0.00249934       0.00907184       0.00124044
C        4.82260950       5.70735051       3.57047104       0.00000000      -0.01117610      -0.00699175      -0.00204620
C        3.70535680       7.82925001       3.69991695       0.00000000       0.00074493       0.00336014      -0.00126365
C        2.50503264      10.01474493       3.70243587       0.00000000      -0.00208407       0.00738142       0.00867933
C        9.91265454       1.43447461       3.68159384       0.00000000       0.00317500      -0.00536180      -0.00179005
C        8.67129428       3.56700821       3.63443376       0.00000000      -0.00216471      -0.00444332       0.00625809
C        7.41000765       5.68865160       3.66902848       0.00000000      -0.00044593      -0.00884252      -0.01293529
C        6.18807583       7.79819605       3.73161635       0.00000000       0.00573795      -0.00025702      -0.00374246
C        4.96628550       9.94727589       3.72797727       0.00000000      -0.00306517       0.00701613      -0.00563586
Tl       2.25642913       5.26746930       5.97931111       0.00000000      -0.00180727      -0.00045960      -0.00919765
O        1.87596060       5.56636286       9.53680300       1.00000000       0.00353407       0.00316973       0.01680731
O        0.81391740       5.52451317       8.89243106       1.00000000      -0.00586553       0.00493989      -0.01073778
