51
Lattice="12.336457 0.0 0.0 -6.168228499999997 10.683685154694365 0.0 0.0 0.0 15.0" Properties=species:S:1:pos:R:3:initial_magmoms:R:1:forces:R:3 energy=-443.1054373157755 free_energy=-443.1054373157755 stress="0.02719821865796364 2.2649857524897783e-05 1.5037004345104102e-06 2.2649857524897783e-05 -0.0018591836094866128 -4.3455615342617924e-06 1.5037004345104102e-06 -4.3455615342617924e-06 -1.563613988704637e-06" pbc="T T T"
C        0.05214460      -0.05721947       3.65885614       0.00000000      -0.00041045       0.00231427      -0.00351448
C       -1.12803288       2.14206223       3.62662333       0.00000000       0.00534399       0.00539104       0.00275345
C       -2.33593454       4.24157183       3.59696378       0.00000000       0.00791080      -0.00617795       0.00569243
C       -3.64497694       6.32650784       3.60767603       0.00000000      -0.00109785      -0.00302288      -0.00236944
C       -4.91249303       8.43733451       3.64652362       0.00000000      -0.00468534       0.00452220      -0.00037307
C        2.51347169      -0.15336359       3.66288682       0.00000000      -0.00184819       0.00292856       0.00483004
C        1.33238292       2.04098621       3.63955263       0.00000000      -0.00204468       0.00225039       0.00546551
C        0.30905217       4.22704865       3.60578089       0.00000000       0.00147878       0.00397785      -0.01394900
C       -1.03984508       6.33048720       3.61609207       0.00000000       0.00598047      -0.00501231      -0.00646583
C       -2.39359943       8.43481919       3.64826741       0.00000000      -0.00490166      -0.00021276      -0.00203936
C        4.97690266      -0.06499060       3.66308262       0.00000000       0.00305161       0.00309814      -0.00150129
C        3.68475445       2.01668158       3.66171315       0.00000000       0.00022385      -0.00020034       0.00057918
C        1.59079363       6.43052862       3.62713532       0.00000000      -0.00532005      -0.00386932       0.00160214
C        0.07757292       8.51123129       3.65940870       0.00000000      -0.00121197      -0.00049051      -0.00224690
C        7.43400304       0.03323264       3.66466879       0.00000000      -0.00548524       0.00696501       0.00267150
C        6.16217434       2.13767220       3.62417734       0.00000000      -0.00309244       0.00045357       0.00232591
C        4.75007560       4.23631521       3.58560643       0.00000000       0.00271724      -0.00091277       0.00289289
B        3.31877233       6.39019874       3.64554399       0.00000000       0.00027433      -0.00119684       0.00239700
C        2.50980737       8.63593279       3.69405699       0.00000000      -0.00320980      -0.00190176      -0.00740659
C        9.93294941       0.03716808       3.67113633       0.00000000      -0.00259482      -0.00129927       0.00071773
C        8.68532245       2.15437770       3.62115090       0.00000000      -0.00671519      -0.00068253       0.00556290
C        7.38742040       4.24156103       3.58519685       0.00000000      -0.00004612      -0.00345003       0.00384235
C        6.08671346       6.33363498       3.60139119       0.00000000       0.00921945       0.00263237      -0.00135206
C        4.94512667       8.51363146       3.67798480       0.00000000       0.00491070      -0.00065209      -0.00617047
C        0.07800547       1.37897596       3.63929758       0.00000000      -0.00015876       0.00153457       0.01450664
C       -1.03968885       3.55920356       3.60607203       0.00000000       0.01544880       0.00504184      -0.00539221
C       -2.33601292       5.64871181       3.60346496       0.00000000       0.00382460      -0.00736676      -0.00061749
C       -3.65123542       7.73532335       3.63421056       0.00000000      -0.00812215      -0.00097851      -0.00015403
C       -4.90279546       9.85606305       3.65863453       0.00000000      -0.00302820       0.00358845       0.00389019
C        2.50983892       1.25351437       3.66086320       0.00000000      -0.00122947       0.00251278       0.00258959
C        1.59360418       3.46048352       3.61698424       0.00000000      -0.01655005      -0.00281342      -0.00567235
C        0.30740091       5.66224298       3.61020647       0.00000000       0.00048666       0.00231261      -0.01274186
C       -1.12799350       7.74767388       3.64298811       0.00000000      -0.00106019      -0.00264124      -0.01271373
C       -2.40366110       9.85256414       3.66138688       0.00000000       0.00018909       0.00286027       0.00693655
C        4.94530634       1.37619262       3.65297590       0.00000000       0.00016407       0.00147121       0.00026328
B        3.31728420       3.49973641       3.62585364       0.00000000       0.00576722      -0.00555088       0.00452332
C        1.33171357       7.84961889       3.66382428       0.00000000      -0.00266647      -0.00506733      -0.00489990
C        0.05199202       9.94708845       3.66613439       0.00000000       0.00160704       0.00302903      -0.00691899
C        7.42437418       1.45181256       3.63490801       0.00000000      -0.00849844       0.00434598       0.01143918
C        6.08646189       3.55583557       3.58858461       0.00000000       0.00701916      -0.00433498       0.00229912
C        4.75140151       5.65288084       3.59303575       0.00000000       0.00453654      -0.00448139       0.00696027
C        3.68469240       7.87283230       3.69587817       0.00000000       0.00215737       0.00162332      -0.00499793
C        2.51378349      10.04282427       3.68452903       0.00000000      -0.00717184       0.00171749      -0.00099923
C        9.94278813       1.45473265       3.63950824       0.00000000      -0.00039141       0.00223104       0.00090989
C        8.69148686       3.56346805       3.59622864       0.00000000      -0.00020585      -0.00272354       0.00251240
C        7.38759556       5.64829551       3.59156242       0.00000000      -0.00047448       0.00021934       0.00814068
C        6.16179053       7.75183895       3.64272315       0.00000000       0.00381074       0.00170869       0.00365317
C        4.97706652       9.95482402       3.67453565       0.00000000       0.00184478      -0.00134737      -0.00191366
Tl       2.66876580       5.01984727       6.00992734       0.00000000       0.00490369      -0.00510722      -0.01417959
O        1.79615592       5.64957643       9.41641660       1.00000000      -0.00970940       0.00599478      -0.00360753
O        1.10150324       6.03536248       8.45752077       1.00000000       0.00905951      -0.00323084       0.01223969
