52
Lattice="12.336457 0.0 0.0 -6.168228499999997 10.683685154694365 0.0 0.0 0.0 15.0" Properties=species:S:1:pos:R:3:forces:R:3 energy=-445.58753585360057 free_energy=-445.58753585360057 stress="0.016166697712520925 -0.0023417178681446535 4.72788270197768e-05 -0.0023417178681446535 -0.00605409709781983 -1.2785956738024346e-05 4.72788270197768e-05 -1.2785956738024346e-05 -4.383369920495948e-06" pbc="T T T"
C       -0.01174338      -0.03345017       3.79147141      -0.00574690       0.00190431      -0.01039198
C       -1.21055373       2.16135984       3.70719615       0.00588162       0.00904411      -0.00560011
C       -2.40161727       4.28230776       3.66274997      -0.00388113       0.00100975      -0.00255491
C       -3.67514308       6.38038593       3.72311246       0.00258060       0.00192616      -0.00302842
C       -4.94626201       8.49418804       3.79953999       0.00105518      -0.00446345      -0.00372299
C        2.46274030      -0.10188814       3.74081458      -0.00358246      -0.00063233       0.00800544
C        1.22865336       2.04354879       3.64738893       0.00424428       0.00160113       0.01089764
C        0.16094299       4.26084426       3.61687529       0.00083268      -0.00026226       0.00158756
C       -1.09571237       6.37720330       3.69866404       0.00585896      -0.00176554       0.00040140
C       -2.43633139       8.48912596       3.75178552      -0.00257750      -0.00156671      -0.00743808
C        4.93206471      -0.01790748       3.68187502       0.00495242       0.00072019       0.00541122
C        3.62541741       2.04449144       3.55486698       0.00119911       0.00447559      -0.00020149
C        1.52476099       6.44903835       3.70467822       0.00810302      -0.00999789       0.01164814
C        0.03207156       8.54504661       3.72550222       0.00098867      -0.00344704       0.00759962
C        7.38398381       0.05943788       3.71207031      -0.00207850       0.00020878       0.00050664
C        6.12672720       2.16967762       3.60135755      -0.00882981       0.00075358       0.00559391
C        4.85847571       4.33503740       3.54966522       0.00509826      -0.00260443      -0.00827903
B        3.31968199       6.43185118       3.72665922      -0.00370132       0.00012647       0.00800838
C        2.46112213       8.65755454       3.77191362       0.00036931      -0.00035742      -0.00071685
C        9.87151497       0.05760423       3.77482107      -0.00030933      -0.00354017      -0.00690753
C        8.63048557       2.18238233       3.67751709      -0.00509272      -0.01093053      -0.00395187
C        7.38136124       4.28926595       3.63481422      -0.00297089       0.00957011       0.00366546
C        6.08990226       6.40367587       3.73117340       0.00045211       0.00664372       0.00384110
C        4.90483494       8.55074349       3.80974097       0.00930287       0.00282878       0.00340791
C       -0.01218163       1.38968738       3.72995405       0.00268984       0.00408161       0.00121815
C       -1.14036459       3.58345615       3.65604614      -0.00018361       0.00926015       0.00135608
C       -2.38357802       5.69381505       3.69101776       0.00290056       0.00184975       0.00039396
C       -3.68680782       7.79081518       3.76902002       0.00049584      -0.00281594      -0.01694189
C       -4.95037328       9.90468129       3.79393448      -0.00771286      -0.00496600      -0.00124083
C        2.43716575       1.29536133       3.65405875       0.00403184       0.00054183       0.00489056
C        1.35872220       3.44756627       3.54969504      -0.00745800      -0.00431491      -0.00140065
C        0.23441574       5.70068318       3.66985973       0.00518239      -0.00507459      -0.00143817
C       -1.17574245       7.79411440       3.72616138      -0.00086238      -0.00140468       0.00702910
C       -2.45030006       9.90559528       3.73176034       0.00170541       0.00026141      -0.00345390
C        4.90464494       1.41582285       3.60550445      -0.00268739       0.00121170      -0.00530998
P        3.17960312       3.70960810       3.32988177       0.00300196       0.00257420      -0.00725660
C        1.28500306       7.86869499       3.73548628       0.00109559      -0.00748893      -0.00602965
C        0.00422290       9.98106522       3.70941194       0.00440762      -0.00123844      -0.00618280
C        7.37583846       1.47820427       3.66411109      -0.01258809      -0.00298867      -0.00584396
C        6.11233012       3.59456129       3.57791878       0.00136801       0.00119384       0.00824876
C        4.78085686       5.74415697       3.67902506       0.00605798      -0.00344129       0.00556370
C        3.64483400       7.90784814       3.78624542       0.00720394       0.00593144      -0.00119233
C        2.45854706      10.06334071       3.76262212      -0.00261902       0.00119765       0.01149982
C        9.87426848       1.47495233       3.72659076       0.00677517      -0.00246130      -0.00808672
C        8.65140579       3.59610639       3.65173772      -0.00657818      -0.00568420       0.00422552
C        7.37623611       5.70073695       3.69656205      -0.00239137       0.01275854       0.00513626
C        6.13636102       7.81352572       3.79431853       0.00468276       0.00370674      -0.00433429
C        4.91874003       9.98064050       3.80738518      -0.00159923      -0.00095253      -0.00347022
Tl       2.87738131       4.37209675       6.29374352      -0.00010545      -0.01412267      -0.00000703
O        2.49128469       5.49038361       8.19448017      -0.00974293      -0.00523215       0.01343164
O        2.80023021       4.33222442       9.06948739      -0.00719736       0.01819826      -0.00005033
H        3.50477936       4.74287753       9.60156470      -0.00202156      -0.00182575      -0.00853536
