51
Lattice="12.336457 0.0 0.0 -6.168228499999997 10.683685154694365 0.0 0.0 0.0 15.0" Properties=species:S:1:pos:R:3:initial_magmoms:R:1:forces:R:3 energy=-438.4834729199639 free_energy=-438.4834729199639 stress="0.0075571432160061675 0.0023525750432587408 -2.745223596750816e-06 0.0023525750432587408 -0.0030767192165593337 2.1041145307974702e-05 -2.745223596750816e-06 2.1041145307974702e-05 -7.522952477728498e-06" pbc="T T T"
C       -0.06110642      -0.04192874       3.69756341       0.00000000      -0.00207900       0.00605844       0.00974649
C       -1.26803347       2.12497635       3.71741807       0.00000000      -0.00351818       0.00108135       0.00535916
C       -2.53001069       4.25320622       3.59591875       0.00000000      -0.00233566      -0.00546899       0.01026476
C       -3.78120988       6.36448271       3.56726517       0.00000000      -0.00190064       0.00096515      -0.00796293
C       -5.01907100       8.48389530       3.61876707       0.00000000      -0.00079106      -0.00145214       0.00139182
C        2.41921450      -0.05807285       3.66646345       0.00000000      -0.00474560       0.00608431       0.01203220
C        1.21587103       2.07230179       3.88139641       0.00000000      -0.00124136      -0.00052617      -0.00327144
C       -0.06424583       4.27254091       3.76565801       0.00000000       0.00295753      -0.00629789      -0.00939016
C       -1.24579445       6.37500250       3.57352856       0.00000000      -0.00651791      -0.00060016       0.00266773
C       -2.52805919       8.49016594       3.58807072       0.00000000       0.00350661      -0.00196964      -0.00240498
C        4.87673017      -0.04606202       3.59955624       0.00000000      -0.00139566      -0.00910708      -0.01060198
C        3.67335047       2.06582222       3.66094821       0.00000000      -0.00102975       0.00074679       0.00204549
B        1.46865709       6.34635200       3.64457424       0.00000000       0.00662643       0.00100178       0.00162181
C       -0.04665751       8.51352947       3.59903235       0.00000000       0.01042168       0.00987773      -0.01082364
C        7.33905087      -0.00057756       3.59700331       0.00000000       0.01072986      -0.00441595      -0.00521844
C        6.10521580       2.10821834       3.54694384       0.00000000      -0.00124346      -0.00517364       0.00503677
C        4.84035008       4.19389646       3.53811066       0.00000000       0.00578100      -0.00247809       0.01809868
B        3.32046714       6.32577637       3.65550071       0.00000000      -0.00357706       0.00968704      -0.01451924
C        2.40644309       8.58937289       3.63566702       0.00000000      -0.00614106       0.00062391      -0.00235898
C        9.82100314       0.00532949       3.64592747       0.00000000      -0.00157441      -0.00168410       0.00082272
C        8.58315716       2.12822107       3.59231860       0.00000000      -0.00488009      -0.00247512      -0.00157976
C        7.31424765       4.24645810       3.54013521       0.00000000       0.01075178       0.01161949       0.00312644
C        6.00651537       6.33396345       3.57911365       0.00000000      -0.00136434      -0.00070077      -0.00150729
C        4.84823204       8.50586280       3.64486380       0.00000000      -0.00389011       0.00413393       0.00818051
C       -0.04165580       1.39243851       3.77700621       0.00000000      -0.00109531       0.00565091      -0.01154265
C       -1.28711646       3.54482466       3.68749235       0.00000000      -0.00139125      -0.00215370      -0.00296712
C       -2.52018260       5.67226612       3.57060239       0.00000000      -0.00833868      -0.00641015      -0.00477793
C       -3.77521300       7.78296028       3.58724205       0.00000000       0.00192548      -0.00155525       0.00071420
C       -4.99848601       9.91331965       3.66442602       0.00000000      -0.00386774       0.00346129       0.00703640
C        2.44611095       1.37145056       3.74800255       0.00000000       0.00016757       0.00591731      -0.00072033
B        1.13646491       3.50090513       4.12231151       0.00000000      -0.00117744      -0.00665496       0.00531287
C        0.02684028       5.67643884       3.63247827       0.00000000      -0.00169522      -0.00248828       0.00738694
C       -1.28401172       7.79310206       3.57880348       0.00000000       0.00987298       0.00477748      -0.00114236
C       -2.52265727       9.91625490       3.61399828       0.00000000      -0.00744753      -0.00226959      -0.00565981
C        4.88373337       1.38092887       3.58806125       0.00000000      -0.00508256      -0.00800200      -0.00166091
O        3.66635676       3.44036463       3.61666112       0.00000000      -0.00253078       0.00122621       0.00527491
C        1.20300882       7.85322636       3.62563259       0.00000000      -0.00104473       0.00127167      -0.00100431
C       -0.05445044       9.94609571       3.59439726       0.00000000       0.01043959       0.00654731      -0.00669524
C        7.33918603       1.41948258       3.57223730       0.00000000      -0.00082218      -0.00734404      -0.00014786
C        6.07807118       3.52305847       3.52010617       0.00000000       0.01235956       0.00127588      -0.00101957
C        4.72831994       5.60352031       3.57162022       0.00000000      -0.00220385      -0.00241571       0.00393631
C        3.60004248       7.83989904       3.65502931       0.00000000      -0.00542278       0.01118693       0.00250729
C        2.41112585      10.00445322       3.62179135       0.00000000       0.00364238      -0.00714736       0.00463042
C        9.82484404       1.42331295       3.64694712       0.00000000      -0.00384429      -0.00066082       0.00245944
C        8.56725040       3.54677493       3.57050189       0.00000000       0.00057668      -0.00063343      -0.00090838
C        7.28759762       5.65785772       3.55934923       0.00000000       0.00177706       0.01050760      -0.00658702
C        6.06714095       7.76619758       3.61733827       0.00000000      -0.00393547      -0.00227399      -0.00772591
C        4.87083357       9.94732155       3.66258576       0.00000000      -0.00095059       0.00467747       0.00359924
Tl       2.33990117       4.83160734       5.74173409       0.00000000       0.01039638      -0.01337664      -0.00654159
O        3.45807704       5.47203162       9.11866803       1.00000000       0.00672577       0.00294378       0.00119055
O        4.50594355       6.00543079       8.72616902       1.00000000      -0.00958260      -0.00558806       0.00429671
