51
Lattice="12.336457 0.0 0.0 -6.168228499999997 10.683685154694365 0.0 0.0 0.0 15.0" Properties=species:S:1:pos:R:3:initial_magmoms:R:1:forces:R:3 energy=-431.67154737838507 free_energy=-431.67154737838507 stress="0.0008941107303991402 -0.001253390477237916 1.3035841681845883e-05 -0.001253390477237916 -0.011184377667353442 6.352224602360917e-06 1.3035841681845883e-05 6.352224602360917e-06 3.098865226135564e-05" pbc="T T T"
C        0.07879345      -0.08425829       3.89700016       0.00000000      -0.00079084       0.00017964       0.00316589
C       -1.16330151       2.06924335       4.03529058       0.00000000      -0.00540558       0.00158169      -0.00569323
C       -2.40805456       4.20161278       3.82302032       0.00000000       0.00482507      -0.00297854      -0.00131716
C       -3.63346073       6.32026735       3.64217755       0.00000000       0.00361867       0.00155961      -0.00295692
C       -4.86560479       8.44214548       3.71697864       0.00000000       0.00400252       0.00631863       0.00032514
C        2.54889664      -0.14442997       3.76896532       0.00000000      -0.00145149      -0.00532020      -0.00066824
C        1.34305456       1.98264065       4.11088051       0.00000000      -0.00461219      -0.00480269      -0.00250535
C        0.03813582       4.22297829       4.10275361       0.00000000       0.00251300      -0.00174462      -0.00041772
C       -1.13041274       6.31341212       3.60130357       0.00000000       0.00191423       0.00102856      -0.00261600
C       -2.37201616       8.42898987       3.59767398       0.00000000       0.00021764       0.00363748      -0.00380018
C        5.00875798      -0.10126513       3.55992904       0.00000000      -0.00458273      -0.00242571      -0.00354966
C        3.73739079       1.95412427       3.44667569       0.00000000      -0.00059496      -0.00353960       0.00223790
S        1.70022617       6.14969321       3.16344081       0.00000000       0.00257424       0.00300583      -0.00265726
C        0.09749438       8.46164405       3.46415890       0.00000000      -0.00302614      -0.00090259       0.00122100
C        7.45866060      -0.03295620       3.58884218       0.00000000       0.00181668      -0.00099313      -0.00137603
C        6.21428790       2.07454197       3.45956544       0.00000000       0.00342720      -0.00110274       0.00019720
C        5.02720441       4.22682815       3.21448490       0.00000000      -0.00118283       0.00452845      -0.00532846
B        3.64797495       6.39561355       3.50378400       0.00000000      -0.00392017       0.00163482      -0.00105500
C        2.55229291       8.58231616       3.51611208       0.00000000      -0.00510359      -0.00400100       0.00275887
C        9.94942160      -0.02511756       3.78030508       0.00000000       0.00437786       0.00147538      -0.00217326
C        8.69301937       2.08574594       3.73997388       0.00000000       0.00177627       0.00301062       0.00102870
C        7.45618504       4.20390081       3.57577488       0.00000000       0.00157716      -0.00296872      -0.00529292
C        6.20810200       6.33151718       3.56816500       0.00000000      -0.00182732       0.00094231      -0.00081304
C        5.00931486       8.50185923       3.68921855       0.00000000      -0.00045044      -0.00214204      -0.00019454
C        0.08019907       1.33982334       4.05006014       0.00000000      -0.00745422      -0.00091713      -0.00142724
C       -1.18325513       3.48717353       4.02481125       0.00000000       0.00272833      -0.00232189      -0.00190276
C       -2.39113120       5.61455830       3.68917173       0.00000000       0.00397187      -0.00076934      -0.00122462
C       -3.62379212       7.73452962       3.64844558       0.00000000       0.00342849       0.00283286       0.00376377
C       -4.86432373       9.85734884       3.81415407       0.00000000      -0.00036586       0.00256509      -0.00020942
C        2.54535142       1.26972813       3.81426905       0.00000000      -0.00184507      -0.00756505       0.00267494
P        1.52108409       3.58063250       4.80369156       0.00000000      -0.00165487       0.00343598      -0.00297787
C        0.06592187       5.56061118       3.69755751       0.00000000       0.00056078      -0.00096061       0.00364196
C       -1.13303127       7.72993917       3.51943387       0.00000000      -0.00173991       0.00215217       0.00171422
C       -2.38183127       9.85048049       3.63141487       0.00000000      -0.00347733      -0.00036458      -0.00247723
C        4.99508943       1.33095586       3.47777132       0.00000000       0.00093778      -0.00123398       0.00458113
S        3.55429141       3.48568613       2.68462654       0.00000000       0.00108023       0.00632061       0.00377473
C        1.36066689       7.85362801       3.39153061       0.00000000      -0.00260790      -0.00245192      -0.00296688
C        0.07967503       9.89948096       3.52850641       0.00000000      -0.00312852       0.00008004       0.00550377
C        7.44988204       1.38679704       3.60182303       0.00000000       0.00401605       0.00013953       0.00394852
C        6.21928094       3.48911145       3.40652765       0.00000000      -0.00247002      -0.00223571       0.00243853
C        4.96087308       5.61937924       3.41565869       0.00000000      -0.00177632       0.00263390       0.00093809
C        3.75869216       7.86476038       3.57309644       0.00000000      -0.00103253       0.00218846       0.00445712
C        2.53881527       9.98738100       3.63210298       0.00000000       0.00378812      -0.00120939       0.00364893
C        9.93887379       1.38387691       3.86947055       0.00000000      -0.00173068       0.00264799       0.00071694
C        8.69026995       3.49910860       3.72415948       0.00000000       0.00468776       0.00040236      -0.00054676
C        7.45537660       5.62089896       3.59949598       0.00000000       0.00066578      -0.00087087       0.00389151
C        6.22888068       7.75073135       3.67474128       0.00000000       0.00268972       0.00428380      -0.00137632
C        5.01186223       9.92799607       3.80010618       0.00000000       0.00180197      -0.00071977       0.00716730
Tl       2.61611300       6.12671869       6.12125680       0.00000000       0.00742127      -0.00482410       0.01340903
O        0.93885273       6.84564388       8.91516946       1.00000000      -0.00568531       0.00369006      -0.00309254
O        0.72164764       7.45616633       7.84644925       1.00000000      -0.00250187      -0.00290994      -0.01658857
