51
Lattice="12.336457 0.0 0.0 -6.168228499999997 10.683685154694365 0.0 0.0 0.0 15.0" Properties=species:S:1:pos:R:3:initial_magmoms:R:1:forces:R:3 energy=-439.64669959184886 free_energy=-439.64669959184886 stress="-0.001954048930331426 0.0008544284613680652 -6.331344887251483e-06 0.0008544284613680652 0.004378541470835417 -2.440231979900546e-05 -6.331344887251483e-06 -2.440231979900546e-05 -4.2244031106200605e-06" pbc="T T T"
C        0.01994173       0.07173145       3.61304930       0.00000000      -0.00680045      -0.00381600       0.00456729
C       -1.21493967       2.20086064       3.47814310       0.00000000      -0.00511789      -0.00152406       0.00398800
C       -2.43834391       4.34033048       3.44569904       0.00000000       0.00409175       0.00762035       0.00438372
C       -3.67429822       6.47724501       3.54997324       0.00000000      -0.00339652      -0.00272720       0.00076384
C       -4.91789432       8.62053798       3.65298867       0.00000000       0.00289581      -0.00262343      -0.00826506
C        2.47216950       0.11003524       3.64224836       0.00000000      -0.00180320       0.00353959      -0.00434782
C        1.22154606       2.22813978       3.59094254       0.00000000       0.00282576      -0.00210815      -0.00322861
C       -0.00059293       4.34338577       3.41287235       0.00000000       0.00254662      -0.00361901      -0.00966972
C       -1.20621423       6.46655813       3.43929001       0.00000000       0.00113965       0.00290245       0.00750945
C       -2.45125208       8.62135042       3.55294888       0.00000000       0.00047137       0.00148052      -0.00276148
C        4.95091526       0.07246092       3.61099365       0.00000000       0.00071866       0.00542102       0.00511884
C        3.72125385       2.25382613       3.84428585       0.00000000       0.00359704       0.00023742      -0.00215217
O        1.19013887       6.48944538       3.52503269       0.00000000       0.00022022       0.00215044      -0.00400375
C        0.01021900       8.59165915       3.54329061       0.00000000      -0.00033961       0.00195407       0.00061365
C        7.42106929       0.03903394       3.56359632       0.00000000       0.00083808      -0.00873823      -0.00517624
C        6.20629098       2.18046701       3.64120871       0.00000000      -0.00017714       0.00083393      -0.00196988
C        4.99906812       4.29389457       3.93172871       0.00000000      -0.00020372       0.00221847      -0.00300063
B        3.80606128       6.48396014       4.23839653       0.00000000       0.00627686       0.00640468      -0.00251258
C        2.45030892       8.56415998       3.70092515       0.00000000       0.00029497      -0.00030274      -0.00029956
C        9.88127820       0.04091632       3.58286456       0.00000000      -0.00562152       0.00113164      -0.00019511
C        8.66167703       2.18484578       3.51014559       0.00000000      -0.00882374       0.00064086      -0.00482428
C        7.44754032       4.32629651       3.60260675       0.00000000       0.00224433      -0.00368278      -0.00566907
C        6.21363792       6.47034999       3.78642942       0.00000000       0.00424652      -0.00300569       0.00009695
C        4.94551012       8.60010265       3.77605048       0.00000000      -0.00038381      -0.00371566      -0.00200937
C        0.01784795       1.50406147       3.54936479       0.00000000      -0.00171266      -0.00227281      -0.00519145
C       -1.20370643       3.63297758       3.42017019       0.00000000      -0.00010663      -0.00024594       0.00302938
C       -2.43970850       5.75725757       3.46245670       0.00000000      -0.00010226       0.00728240       0.00404996
C       -3.68706213       7.90791289       3.58267129       0.00000000       0.00180271      -0.00365873      -0.00238320
C       -4.91780520      10.05526914       3.63552442       0.00000000      -0.00253776      -0.00050245      -0.00184478
C        2.45489927       1.54462924       3.70160419       0.00000000       0.00277731       0.00287996       0.00257396
O        1.18251490       3.60876536       3.50581821       0.00000000       0.00379184      -0.00242384       0.00582537
C       -0.00091618       5.75621096       3.41965521       0.00000000      -0.00008895      -0.00278386       0.00930923
C       -1.22511361       7.89640677       3.50147598       0.00000000       0.00072665       0.00285069      -0.00503310
C       -2.46068917      10.05760251       3.60756369       0.00000000       0.00009246       0.00433064       0.00430221
C        4.95809597       1.49443983       3.69451191       0.00000000       0.00179128       0.00372454       0.00849977
C        3.82765994       3.58815875       4.14392376       0.00000000       0.00532716      -0.00272001      -0.00511479
C        1.21421373       7.86961511       3.60228558       0.00000000       0.00037496       0.00130245       0.00116021
C        0.01775976      10.02413706       3.57014573       0.00000000      -0.00094274      -0.00019835       0.00474418
C        7.43493098       1.46641040       3.55693206       0.00000000      -0.00493291      -0.00776198       0.00188342
C        6.23261006       3.59581277       3.70117356       0.00000000      -0.00022802       0.00070322      -0.00691860
C        5.02271759       5.72967545       3.97785849       0.00000000       0.00189034       0.00247342      -0.00105197
C        3.69526604       7.89499869       3.88700268       0.00000000      -0.00107750       0.00246158       0.00456031
C        2.47271475       9.99857625       3.59768286       0.00000000       0.00105127      -0.00380483       0.00860118
C        9.89691423       1.47565951       3.50767855       0.00000000      -0.00936586       0.00167867       0.00333047
C        8.66966791       3.61436773       3.50326282       0.00000000       0.00435264       0.00304103      -0.00173648
C        7.44624345       5.75904709       3.63580107       0.00000000       0.00055129      -0.00625423       0.00264792
C        6.18590760       7.89760913       3.75238152       0.00000000       0.00314256      -0.00333207      -0.00305635
C        4.95333212      10.02836836       3.64667359       0.00000000      -0.00793032      -0.00324245       0.00398529
Tl       2.51654685       5.04338469       5.65084938       0.00000000       0.00367399      -0.00230224      -0.01292627
O        2.13935047       3.65018523       9.50850444       1.00000000       0.00480212       0.01054987      -0.00437097
O        1.73742073       3.11318200       8.46713251       1.00000000      -0.00686300      -0.00244712       0.01416868
