51
Lattice="12.336457 0.0 0.0 -6.168228499999997 10.683685154694365 0.0 0.0 0.0 15.0" Properties=species:S:1:pos:R:3:initial_magmoms:R:1:forces:R:3 energy=-433.52874110483543 free_energy=-433.52874110483543 stress="0.0007384740859223493 0.0007715200217823939 -2.903397148219724e-05 0.0007715200217823939 -0.00592519405591253 1.3736896210671148e-05 -2.903397148219724e-05 1.3736896210671148e-05 4.81898864623526e-06" pbc="T T T"
C       -0.04811856      -0.00717888       3.76011942       0.00000000       0.00030145      -0.00419520      -0.00199256
C       -1.28592062       2.13031521       3.50777647       0.00000000      -0.00245565      -0.00338757       0.00188847
C       -2.55717154       4.26836076       3.53745931       0.00000000      -0.00383239      -0.00320444      -0.00382962
C       -3.78851347       6.39064523       3.69003851       0.00000000      -0.00025247      -0.00187510      -0.00175407
C       -5.00715328       8.51240012       3.80379217       0.00000000       0.00089105       0.00509221       0.00135790
C        2.41754853      -0.02554427       3.78358659       0.00000000       0.00169347       0.00377970      -0.00452431
C        1.20101256       2.05085348       3.34015290       0.00000000      -0.00574041      -0.00555034      -0.00161235
C       -0.17199426       4.26954458       3.06194345       0.00000000      -0.00343663      -0.00238130      -0.00358442
C       -1.29314430       6.39349238       3.50457592       0.00000000       0.00510927       0.00602279      -0.00500891
C       -2.51710792       8.51016139       3.74726314       0.00000000      -0.00621062      -0.00148974      -0.00525284
C        4.87545556      -0.02830335       3.80473538       0.00000000      -0.00475140       0.00458949      -0.00264023
C        3.67349828       2.08720618       3.74776115       0.00000000       0.00132443       0.00123776      -0.00781178
S        1.58983385       6.28177862       3.12113327       0.00000000      -0.00459881      -0.00839476       0.00434807
C       -0.04079235       8.52665613       3.68177737       0.00000000      -0.00084062       0.00525776       0.00393064
C        7.33489508       0.01896424       3.84032516       0.00000000      -0.00127575       0.00221936       0.00649969
C        6.10194432       2.12829667       3.78851670       0.00000000       0.00052395       0.00464127       0.00467974
C        4.86069726       4.21431071       3.75647859       0.00000000       0.00785943      -0.00324183       0.01286850
B        3.50993329       6.44616952       3.67496712       0.00000000      -0.00058800      -0.00400372      -0.00543310
C        2.41804548       8.62728309       3.82221949       0.00000000       0.00485862       0.00268426       0.00063988
C        9.82721514       0.03458856       3.84047748       0.00000000       0.00422750       0.00340125       0.00147402
C        8.57270381       2.14643465       3.72749210       0.00000000      -0.00396246      -0.00891552      -0.00085196
C        7.31236511       4.26647939       3.70807995       0.00000000       0.00527144       0.00195673      -0.00206851
C        6.04029634       6.36692858       3.74425792       0.00000000      -0.00418131       0.00389108       0.00140588
C        4.87152664       8.55345386       3.85469269       0.00000000       0.00147630       0.00465635       0.00482386
C       -0.04226565       1.41517832       3.54358985       0.00000000      -0.00420155      -0.00737403       0.00454654
C       -1.33472527       3.53767771       3.35622909       0.00000000      -0.00153526      -0.00169226       0.00436854
C       -2.54950289       5.68690486       3.57646487       0.00000000       0.00467742       0.00109862       0.00116245
C       -3.76967706       7.80767510       3.75253036       0.00000000      -0.00386511      -0.00299107       0.00004246
C       -4.99163010       9.94530116       3.79653514       0.00000000       0.00417644       0.00347568       0.00407264
C        2.43458486       1.40426821       3.66008167       0.00000000      -0.00195366       0.00313999       0.00172246
S        1.27206695       3.52057543       2.44753812       0.00000000      -0.00609061      -0.00538597      -0.00618995
C       -0.12100871       5.64461582       3.25251259       0.00000000       0.00376375      -0.00064954       0.00763302
C       -1.28138776       7.81086396       3.64469599       0.00000000      -0.00039439       0.00534829      -0.00200195
C       -2.52021436       9.94058787       3.80159236       0.00000000      -0.00265580      -0.00037042      -0.00146896
C        4.87342107       1.40534366       3.79957935       0.00000000       0.00005556       0.00514215      -0.00727495
O        3.69382077       3.46535646       3.89202937       0.00000000       0.00662324      -0.00078465       0.00263064
C        1.22573897       7.91188397       3.62507254       0.00000000      -0.00218471      -0.00198156       0.01037604
C       -0.05290580       9.96127397       3.79516968       0.00000000      -0.00416955       0.00564093       0.00548910
C        7.33246879       1.43936972       3.80031737       0.00000000      -0.00449389      -0.00205778       0.00622432
C        6.08270006       3.53979889       3.74724921       0.00000000       0.00842252       0.00260852      -0.00687136
C        4.79192628       5.62300383       3.70846294       0.00000000      -0.00073369      -0.00302211       0.00184508
C        3.62210838       7.90536836       3.81976045       0.00000000       0.00331874       0.00017091       0.00793511
C        2.41178438      10.03688040       3.88486044       0.00000000       0.00315499       0.00545069      -0.00882564
C        9.82418551       1.44586061       3.70816934       0.00000000      -0.00056357      -0.00050547       0.00390862
C        8.55200875       3.56070298       3.66372096       0.00000000      -0.00144687      -0.00867372      -0.00245758
C        7.29894521       5.67981922       3.71398839       0.00000000      -0.00297601       0.00292664      -0.00335742
C        6.08372865       7.79889233       3.80509330       0.00000000       0.00008587       0.00683793      -0.00429753
C        4.88451052       9.99026520       3.84491324       0.00000000       0.00057164       0.00222779      -0.00469264
Tl       2.02000439       4.80177848       5.71840589       0.00000000       0.00502479      -0.00300225      -0.01758146
O        3.56155449       5.72188391       8.78247075       1.00000000       0.00618404      -0.01043543      -0.00151910
O        4.05951762       4.95720153       7.93742322       1.00000000      -0.00020475       0.00206762       0.00702953
