51
Lattice="12.336457 0.0 0.0 -6.168228499999997 10.683685154694365 0.0 0.0 0.0 15.0" Properties=species:S:1:pos:R:3:initial_magmoms:R:1:forces:R:3 energy=-441.55740019101006 free_energy=-441.55740019101006 stress="0.017644898037385344 0.003080299547561834 6.478555875300869e-06 0.003080299547561834 -0.005774034646584619 -1.8613319611567683e-05 6.478555875300869e-06 -1.8613319611567683e-05 6.812573892946856e-06" pbc="T T T"
C        0.04441900      -0.08767164       3.74960762       0.00000000       0.00549734      -0.00040972       0.00635149
C       -1.13673763       2.11020982       3.79497869       0.00000000      -0.00242326       0.00209062      -0.00440363
C       -2.38432994       4.22421115       3.64210931       0.00000000      -0.00207344       0.00160597      -0.01167489
C       -3.67887915       6.30939541       3.54188211       0.00000000       0.00174174      -0.00309713      -0.00248208
C       -4.93117698       8.41622910       3.59893114       0.00000000       0.00194461      -0.00529641      -0.00806715
C        2.50800873      -0.17140337       3.63276369       0.00000000       0.00415831      -0.00122197       0.00162164
C        1.35526147       1.96336136       3.97379444       0.00000000      -0.00076636       0.00783264       0.00146841
C        0.15110972       4.27777597       3.75182319       0.00000000      -0.00324988      -0.00367127      -0.01367676
C       -1.10738124       6.33519144       3.48698288       0.00000000       0.00135173       0.00317372      -0.00661476
C       -2.42191434       8.42697414       3.48781095       0.00000000       0.00219324      -0.00164233       0.00297417
C        4.98290200      -0.09936258       3.50924575       0.00000000       0.00002383       0.00062109       0.00275651
C        3.73947563       1.98246740       3.67520271       0.00000000      -0.00235853      -0.00706632       0.00461028
C        1.53619545       6.40291528       3.52307871       0.00000000       0.00535819      -0.00447673      -0.00224574
C        0.05970555       8.48706106       3.45708032       0.00000000       0.00734556       0.00096069       0.00595505
C        7.44137519      -0.01128687       3.54959439       0.00000000      -0.00412405      -0.00280706      -0.00606202
C        6.19068693       2.08679999       3.58078108       0.00000000      -0.00100867      -0.00027027       0.00679365
C        4.82081916       4.17903908       3.66656536       0.00000000       0.00354217       0.00046407       0.00549600
B        3.33111727       6.34562642       3.62224779       0.00000000      -0.00810719       0.00488046       0.00487342
C        2.50238331       8.59355475       3.57197480       0.00000000       0.00141425      -0.00390967      -0.00087144
C        9.93035179      -0.00294972       3.67896614       0.00000000      -0.00536250      -0.00342313       0.00205209
C        8.69151505       2.11404304       3.65272488       0.00000000      -0.00337687       0.00172485      -0.00593655
C        7.39225828       4.20660561       3.61364923       0.00000000       0.00056061       0.00545921      -0.01001616
C        6.07462915       6.29711550       3.59403887       0.00000000      -0.00121588       0.00443269       0.00959735
C        4.93412529       8.47830630       3.66325176       0.00000000      -0.00052697      -0.00001288      -0.00215684
C        0.07814258       1.34779585       3.85869223       0.00000000       0.00130377       0.00513856       0.00572600
C       -1.10456732       3.54055580       3.73771330       0.00000000      -0.00454414       0.00114698      -0.00384770
C       -2.38548693       5.63304019       3.54512381       0.00000000       0.00191228       0.00210984       0.00988920
C       -3.67705137       7.72062922       3.53096574       0.00000000       0.00207928      -0.00514963       0.00385227
C       -4.91306346       9.83453453       3.66285997       0.00000000       0.00712682      -0.00571451       0.01088784
C        2.53250204       1.22591530       3.75720039       0.00000000      -0.00481299      -0.00093918       0.00134900
P        1.78202624       3.64088057       4.24200112       0.00000000      -0.00783440       0.00144043       0.00715375
C        0.21472395       5.67851198       3.54492549       0.00000000      -0.00272921      -0.00257389      -0.00281214
C       -1.16424432       7.74554938       3.45508425       0.00000000       0.00575995       0.00447847       0.00166927
C       -2.41587771       9.83709333       3.52461517       0.00000000       0.00288353      -0.00122710      -0.00752639
C        4.98427177       1.32169062       3.56188105       0.00000000      -0.00083903      -0.00123401      -0.00371606
C        3.60913455       3.37909411       3.76167209       0.00000000       0.00693856      -0.01041975      -0.01431312
C        1.31511859       7.81792791       3.49656985       0.00000000       0.00410581      -0.00448566       0.00713635
C        0.05419483       9.91049424       3.48948596       0.00000000      -0.00099192       0.00031049       0.00150046
C        7.44434019       1.40369384       3.58950346       0.00000000      -0.00279167      -0.00191863       0.00262511
C        6.13000776       3.50338752       3.62132230       0.00000000       0.00275415       0.00217915      -0.00126705
C        4.76391870       5.60732037       3.61841976       0.00000000      -0.00221111       0.00607740       0.00199345
C        3.67473143       7.83380699       3.64537142       0.00000000       0.00163205       0.00017116      -0.00815340
C        2.51578830       9.99990937       3.59162602       0.00000000      -0.00590388      -0.00588239       0.00570035
C        9.94714018       1.41714158       3.71185480       0.00000000      -0.00468292      -0.00093927       0.01030629
C        8.67976782       3.52706220       3.64123626       0.00000000      -0.00226919       0.00370492      -0.00079293
C        7.37303563       5.61721411       3.58058637       0.00000000      -0.00012562       0.00450334       0.00701538
C        6.14744484       7.72150073       3.62163828       0.00000000      -0.00112959       0.00156928      -0.00394932
C        4.97108139       9.92029447       3.70352956       0.00000000       0.00111864       0.00028921      -0.00836096
Tl       2.70950698       5.65541035       6.12167005       0.00000000       0.00610593       0.01009950      -0.00171737
O        1.71300910       6.67324583       9.60196844       1.00000000      -0.00213931       0.00128920      -0.00618731
O        1.21041070       7.03352376       8.52306879       1.00000000      -0.00125378       0.00003502       0.00549700
