52
Lattice="12.336457 0.0 0.0 -6.168228499999997 10.683685154694365 0.0 0.0 0.0 15.0" Properties=species:S:1:pos:R:3:forces:R:3 energy=-446.99063728935346 free_energy=-446.99063728935346 stress="0.023191296223671398 -1.9926634701340735e-05 7.911960433796122e-06 -1.9926634701340735e-05 -0.001397669501596608 -3.674692949359405e-07 7.911960433796122e-06 -3.674692949359405e-07 3.982820193569658e-06" pbc="T T T"
C       -0.00352384       0.12479171       3.76367228      -0.00221585       0.00513991       0.00003723
C       -1.19315750       2.30147414       3.74136103       0.00771870       0.00642284      -0.00150964
C       -2.41277327       4.40256955       3.72914673      -0.00311581       0.00174701      -0.00698101
C       -3.71274739       6.49839363       3.74794120       0.00289923      -0.00568278      -0.00052446
C       -4.96702976       8.61818878       3.77114778      -0.00066923      -0.00192350      -0.01077566
C        2.45530611       0.04642057       3.76386493      -0.00027627       0.00547197      -0.00483412
C        1.28190225       2.23893901       3.73702228       0.00644240       0.00205404      -0.01246645
C        0.22449743       4.37887933       3.72392664       0.00381820      -0.00372390       0.00157712
C       -1.13247569       6.49745122       3.75221672       0.00210407      -0.00163059       0.00047783
C       -2.45830579       8.61831359       3.77308058      -0.00452374       0.00602191      -0.00310319
C        4.91384123       0.12594122       3.76425911       0.00838674      -0.00214289      -0.00446803
C        3.62846650       2.23908254       3.72491395      -0.00220737       0.00517767       0.01125029
B        1.55461359       6.53776491       3.77225403       0.00161735       0.00301616       0.01006769
C        0.00955346       8.68926010       3.77699514       0.00370026      -0.00863014      -0.00367717
C        7.37443594       0.19976110       3.76686279      -0.00218831      -0.00173315       0.00068942
C        6.10399175       2.30224300       3.73222107      -0.01015092      -0.00360892       0.00011215
C        4.68655324       4.37880625       3.71040172       0.00253555      -0.00088580       0.00742954
B        3.35620943       6.53753313       3.77078981      -0.00700017       0.00075704       0.00107455
C        2.45522443       8.79724799       3.77918864       0.00144087      -0.00101903       0.00285505
C        9.87286302       0.19934160       3.76567699      -0.00503658      -0.00739147       0.00326304
C        8.62362072       2.31309872       3.74105754       0.00045862      -0.00202388      -0.00422837
C        7.32426120       4.40254764       3.72242634      -0.00114485       0.00316084      -0.00358430
C        6.04351734       6.49685228       3.74606266       0.00001680       0.00344537       0.00113384
C        4.90094649       8.68798000       3.77218734      -0.00082354       0.00032532       0.00446035
C        0.01836979       1.55664153       3.74809020       0.00941803       0.00737817       0.00629964
C       -1.12387921       3.71177068       3.72609479      -0.00013481       0.00578387      -0.00463982
C       -2.42180565       5.81149555       3.74088232       0.00269255      -0.00142972       0.00527421
C       -3.71267139       7.91255313       3.76605160      -0.00066166      -0.00581840      -0.00026762
C       -4.95791616      10.04054621       3.77005472      -0.00238003       0.00192538       0.00062506
C        2.45547074       1.45241386       3.74025947       0.00258066       0.00281211      -0.00173054
C        1.51043542       3.63340858       3.72399873       0.00135881      -0.00340970       0.01034669
C        0.17042557       5.80341436       3.74844547       0.00433745      -0.00300241      -0.00820608
C       -1.20193050       7.92503884       3.76885167      -0.00384258      -0.00003284       0.00497590
C       -2.46783927      10.04073507       3.77336478       0.00314362       0.00889038      -0.01609106
C        4.89169551       1.55792780       3.73784330      -0.00901127      -0.00139299       0.00908856
C        3.39947556       3.63352388       3.71305908      -0.00044221       0.00296970      -0.00448618
C        1.26175940       8.04504390       3.77987070       0.00473909      -0.00217514       0.00072889
C       -0.01319867      10.13000472       3.77253254       0.00717128      -0.00915592      -0.00087273
C        7.36840992       1.61361447       3.74801888      -0.00694500      -0.00070366      -0.00458455
C        6.03482339       3.71254604       3.71291548       0.00155310      -0.00259750       0.01410700
C        4.74058375       5.80322074       3.73927553      -0.00083708       0.00004592       0.00418158
C        3.64849082       8.04450557       3.77829427       0.00064353       0.00014223      -0.00385278
C        2.45543476      10.20652964       3.77454409      -0.00564092      -0.00397902      -0.00753980
C        9.87870756       1.61325629       3.75042701       0.00609214      -0.00417069      -0.00310494
C        8.62387516       3.72292967       3.72692727      -0.00236253       0.00097847       0.00538391
C        7.33292267       5.81113598       3.73636626      -0.00067278       0.00332063       0.00551702
C        6.11300157       7.92428182       3.76538804      -0.00128408       0.00250252      -0.00256835
C        4.92353647      10.12869505       3.76870366      -0.00330118      -0.00135394       0.00377324
Tl       2.50878678       4.87398688       6.41333246      -0.00566694      -0.00111497       0.00332866
O        2.85141017       2.63176133       6.87423848      -0.00787211       0.00220411      -0.00422979
O        2.48971142       2.73544667       8.29870230       0.00824403      -0.00531713       0.00802959
H        3.33110079       2.44746299       8.69992528      -0.00270526       0.00435651      -0.00776141
