51
Lattice="12.336457 0.0 0.0 -6.168228499999997 10.683685154694365 0.0 0.0 0.0 15.0" Properties=species:S:1:pos:R:3:initial_magmoms:R:1:forces:R:3 energy=-433.391585667614 free_energy=-433.391585667614 stress="0.0010835250119825537 -0.00387481260496955 7.271789149627543e-06 -0.00387481260496955 -0.005932384201598068 2.3139652860237717e-05 7.271789149627543e-06 2.3139652860237717e-05 -5.792409906594727e-06" pbc="T T T"
C        0.06664167      -0.01697676       3.87565480       0.00000000      -0.00398549       0.00081152      -0.00330750
C       -1.19251043       2.11576804       3.88791194       0.00000000       0.00437823       0.00052549       0.00087143
C       -2.41639910       4.25996484       3.78755079       0.00000000      -0.00389725       0.00065720      -0.00045821
C       -3.62719128       6.39009855       3.71569881       0.00000000      -0.01153921      -0.00667687      -0.00449111
C       -4.86460034       8.52001695       3.79375535       0.00000000       0.00483121       0.00520485       0.00623331
C        2.52522377      -0.02165188       3.76127033       0.00000000      -0.00095135      -0.00219554      -0.00395409
C        1.25211926       2.09152896       3.78132522       0.00000000      -0.00283129       0.00892498       0.00728684
C        0.01970787       4.19105639       3.82909834       0.00000000      -0.00280369      -0.00643391      -0.01140107
C       -1.11225827       6.35073362       3.68574280       0.00000000       0.00798776       0.01033925      -0.00838186
C       -2.37526914       8.50446826       3.71556093       0.00000000      -0.00447915      -0.00109254      -0.00589225
C        4.98887744      -0.02158327       3.63104748       0.00000000       0.00658108      -0.00688248      -0.00111293
C        3.72340771       2.05937399       3.32329111       0.00000000      -0.00043426      -0.01379316      -0.00012404
S        1.71391394       6.21860757       3.16105599       0.00000000      -0.00001073       0.00031971      -0.00203792
C        0.08913419       8.51702542       3.61238366       0.00000000       0.00277119       0.00492438       0.00092750
C        7.43866324       0.02174574       3.71648075       0.00000000       0.00093954      -0.00334148      -0.01094200
C        6.19959005       2.14108573       3.46655962       0.00000000       0.00330962       0.00806567       0.00265141
C        5.05226830       4.30536842       3.15083792       0.00000000       0.00012105      -0.00303815      -0.00579134
B        3.65554249       6.45605553       3.51408690       0.00000000       0.01220596       0.00081733       0.01063773
C        2.53914755       8.62156944       3.71609899       0.00000000       0.00002351      -0.00013850      -0.00812808
C        9.92743395       0.01933356       3.86794527       0.00000000       0.00286676       0.00669363       0.00312412
C        8.67010075       2.14245275       3.74965142       0.00000000      -0.00535949       0.00241473      -0.00733488
C        7.45697828       4.27235543       3.58312712       0.00000000      -0.00728894       0.00619380       0.00019992
C        6.21756676       6.40356393       3.60650923       0.00000000      -0.00825698      -0.00123155      -0.00685636
C        5.00179665       8.55533872       3.80851627       0.00000000       0.00683163      -0.01040463      -0.00774946
C        0.05296928       1.41032610       3.86950228       0.00000000       0.00158351       0.00302652       0.00945595
C       -1.19508174       3.52476078       3.86704346       0.00000000      -0.00278127      -0.00370044       0.00827520
C       -2.38307142       5.67195952       3.73704564       0.00000000       0.00161350       0.00454311       0.00178494
C       -3.62269481       7.80879854       3.74531355       0.00000000      -0.00450526      -0.00574746       0.01245635
C       -4.86949078       9.94849541       3.83599922       0.00000000      -0.00132431       0.00637712       0.00010722
C        2.49676944       1.41031877       3.65496354       0.00000000      -0.00925060      -0.00351005      -0.00753440
O        1.21369126       3.46843343       3.91959168       0.00000000       0.00707956       0.01125790      -0.00093073
C        0.08208086       5.57028054       3.66614081       0.00000000       0.00170162      -0.00500424       0.00452629
C       -1.13441989       7.78491645       3.65449911       0.00000000       0.00252751       0.01163963      -0.00952591
C       -2.40136280       9.94092110       3.70522443       0.00000000       0.00246843      -0.00304504       0.00640274
C        4.96900101       1.41215768       3.47361567       0.00000000       0.00648495      -0.00359965       0.00386464
S        3.65045398       3.56303431       2.47574340       0.00000000       0.00571161       0.00176854      -0.00799448
C        1.35359464       7.89477145       3.53725337       0.00000000      -0.00030541      -0.00131441      -0.00461279
C        0.06047840       9.96195326       3.65626738       0.00000000       0.00389671      -0.00393246       0.01805378
C        7.42721746       1.44389751       3.65632062       0.00000000      -0.00343182      -0.00141776      -0.00285815
C        6.22759849       3.55688723       3.38468436       0.00000000       0.00046399       0.00749001       0.00167460
C        4.97696923       5.69552458       3.39523738       0.00000000      -0.00078218      -0.00496232       0.00859416
C        3.75237825       7.91216721       3.72269710       0.00000000       0.00107525      -0.00319496       0.00268374
C        2.51502473      10.03022833       3.80639262       0.00000000       0.00227275       0.00275377      -0.00664298
C        9.91475024       1.43344129       3.85438149       0.00000000       0.00121578       0.00838035       0.00563415
C        8.67959244       3.55749620       3.71642084       0.00000000      -0.01003105       0.00354567       0.00489571
C        7.46385988       5.69153065       3.63774124       0.00000000      -0.01531688      -0.00013734       0.00097998
C        6.23268302       7.82082547       3.75631677       0.00000000       0.00903430      -0.00280540      -0.00394936
C        4.99692998       9.98194747       3.87981084       0.00000000       0.00011827      -0.00777852       0.00414162
Tl       2.83526096       4.86192663       5.73785300       0.00000000       0.00080031       0.00034953       0.00960843
O        1.39153791       5.40687275       8.94214207       1.00000000      -0.00321509      -0.00295050      -0.00606406
O        0.80530490       5.03092497       7.91103911       1.00000000       0.00188611      -0.00869534       0.00300419
