51
Lattice="12.336457 0.0 0.0 -6.168228499999997 10.683685154694365 0.0 0.0 0.0 15.0" Properties=species:S:1:pos:R:3:initial_magmoms:R:1:forces:R:3 energy=-432.74323175442345 free_energy=-432.74323175442345 stress="-0.002852249250042155 -0.003127532859528973 -1.907962676009329e-05 -0.003127532859528973 -0.004590318327823071 3.4181725093065434e-05 -1.907962676009329e-05 3.4181725093065434e-05 7.1653407392367486e-06" pbc="T T T"
C       -0.05176714      -0.13665777       3.52507662       0.00000000      -0.00174957       0.00253666       0.00272435
C       -1.30118589       1.99878595       3.35370121       0.00000000      -0.00241562       0.00179946      -0.00798611
C       -2.54275955       4.14464587       3.51663005       0.00000000      -0.00114168      -0.00090191       0.00320089
C       -3.74547404       6.28712547       3.67754841       0.00000000       0.00127734      -0.00127802      -0.00858400
C       -4.97281349       8.41843452       3.66177777       0.00000000      -0.00240795      -0.00028629      -0.00131375
C        2.42389359      -0.15719051       3.60010622       0.00000000       0.00318217      -0.00395025      -0.00752926
C        1.18745299       1.93166933       3.22460828       0.00000000       0.00049897       0.00731304      -0.01011068
C       -0.13472237       4.15321792       3.14903316       0.00000000      -0.00326482      -0.00512427       0.01098335
C       -1.29060750       6.27711367       3.62780315       0.00000000       0.00283490      -0.00253729      -0.00534139
C       -2.49843066       8.40983469       3.70710781       0.00000000       0.00179164      -0.00275327      -0.00238808
C        4.88556165      -0.12725394       3.78247445       0.00000000       0.00098493      -0.00645870      -0.00419296
C        3.60749251       1.95643384       3.85668177       0.00000000       0.00036633       0.00109572      -0.00005971
B        1.04880253       6.30157791       4.00274341       0.00000000       0.00156529      -0.00186947       0.00002535
C       -0.03393340       8.41844645       3.81692655       0.00000000      -0.00391256      -0.00532930      -0.01067430
C        7.35469589      -0.11796459       3.79356626       0.00000000      -0.00408124       0.00481746       0.00571957
C        6.09277602       2.03795702       3.88640231       0.00000000      -0.00352967       0.00592818      -0.00466045
C        4.93297246       4.25993213       4.10082576       0.00000000      -0.00838980      -0.00208283      -0.00330117
O        3.75202230       6.37217276       4.14798356       0.00000000       0.01418419      -0.00261203      -0.00068143
C        2.46531814       8.41703935       3.87027175       0.00000000       0.00208971       0.00139589       0.00490863
C        9.81965203      -0.12383980       3.65239962       0.00000000       0.00378074       0.00374909      -0.00723546
C        8.57064958       2.01696206       3.65835423       0.00000000       0.00357746       0.00160709      -0.00748062
C        7.34211559       4.16400736       3.77530206       0.00000000      -0.00315678       0.00098758       0.00126855
C        6.14402394       6.32057639       3.81803509       0.00000000      -0.00342056       0.00108712       0.00905577
C        4.90132189       8.42848765       3.75288029       0.00000000      -0.00299965      -0.00359274      -0.00335357
C       -0.05911361       1.28600035       3.34647985       0.00000000      -0.00105420       0.00625668       0.00700237
C       -1.32165776       3.41560046       3.30858116       0.00000000      -0.00365958       0.00012641       0.00997605
C       -2.52596545       5.56924822       3.59675801       0.00000000       0.00427419      -0.00171152       0.00020600
C       -3.73369246       7.70750092       3.68027824       0.00000000       0.00095746      -0.00117854       0.00298579
C       -4.98223794       9.83511168       3.57995218       0.00000000       0.00018800       0.00055100       0.00903251
C        2.40883294       1.25885024       3.54085241       0.00000000      -0.00137012       0.00113003       0.00309571
S        1.24960955       3.45680521       2.41600461       0.00000000       0.00069717       0.01525134      -0.01008447
C       -0.07932912       5.52467796       3.50411309       0.00000000      -0.00161948      -0.00131950      -0.00886602
C       -1.25944387       7.69413399       3.74092830       0.00000000      -0.00189117      -0.00496673       0.00350597
C       -2.50374369       9.83090250       3.70817061       0.00000000       0.00229973      -0.00496223       0.00132347
C        4.86641869       1.31083199       3.86030940       0.00000000      -0.00110788      -0.00285635       0.00202865
S        3.42149541       3.54974262       4.45992819       0.00000000       0.00895636       0.00379635       0.00286102
C        1.21992908       7.73102053       3.89373827       0.00000000      -0.00108278       0.00472688       0.00138916
C       -0.04623641       9.85189498       3.80557745       0.00000000      -0.00280146      -0.00579442       0.01392794
C        7.33100287       1.31595564       3.78471437       0.00000000      -0.00046278       0.00733675       0.00179415
C        6.09899489       3.47122214       3.92302480       0.00000000      -0.00703730       0.00477820      -0.00963709
C        4.94766151       5.65801910       4.00959445       0.00000000       0.00248441      -0.00418865       0.00342431
C        3.70279451       7.73379463       3.88610001       0.00000000       0.00222650      -0.00758010      -0.00116238
C        2.43363909       9.84706569       3.77391918       0.00000000       0.00176177       0.00793858       0.00726741
C        9.81047812       1.30326779       3.54865253       0.00000000       0.00497866       0.00408962       0.00487397
C        8.56833073       3.43815793       3.64382368       0.00000000      -0.00011668      -0.00065136       0.00590403
C        7.35973660       5.57974066       3.75025544       0.00000000      -0.00484910       0.00170920       0.00068007
C        6.13926669       7.73037000       3.73500956       0.00000000      -0.00503948      -0.00007927      -0.00195806
C        4.88238856       9.84897349       3.63617226       0.00000000      -0.00076784      -0.00219025      -0.00222121
Tl       1.82874141       5.48590035       6.16785633       0.00000000       0.00123389      -0.00735123       0.02055015
O        3.20542131       7.70594092       8.09625004       1.00000000       0.00174875      -0.00499498      -0.00612864
O        3.68296876       7.88152091       6.96071825       1.00000000       0.00538921      -0.00140683      -0.01476435
