52
Lattice="12.336457 0.0 0.0 -6.168228499999997 10.683685154694365 0.0 0.0 0.0 15.0" Properties=species:S:1:pos:R:3:forces:R:3 energy=-445.7425790000164 free_energy=-445.7425790000164 stress="0.018164328492330684 0.003094429686790955 -5.194037332216193e-06 0.003094429686790955 -0.005604630460006997 -1.0710340686254324e-05 -5.194037332216193e-06 -1.0710340686254324e-05 1.614059515208162e-05" pbc="T T T"
C        0.00116715      -0.03778922       3.78270383       0.00309694       0.00594282      -0.00507715
C       -1.17994790       2.16027250       3.82479217      -0.00630311      -0.00116542      -0.00755332
C       -2.42788666       4.27530966       3.68772259       0.00339931       0.00478279      -0.00286347
C       -3.72208465       6.35972440       3.61006801      -0.00006732       0.00107142      -0.01017457
C       -4.97433053       8.46572720       3.65041706      -0.00249768      -0.00553926      -0.00364689
C        2.46560750      -0.12218129       3.67905570      -0.00472240       0.00243785       0.00029786
C        1.31150558       2.01394220       3.99552869      -0.00376700      -0.00163717      -0.00476886
C        0.10821886       4.32599683       3.78095571       0.00417224       0.00777827      -0.00181820
C       -1.14656858       6.38672257       3.56012616      -0.00166191      -0.00145781       0.00445571
C       -2.46342318       8.47654704       3.56319315       0.00504748      -0.00180611      -0.00410850
C        4.94134936      -0.04949853       3.57705156      -0.00409845       0.00035301       0.00731622
C        3.69660843       2.03203093       3.71798226       0.00527719       0.00219942       0.01242750
C        1.50200952       6.45287000       3.60715645       0.00903459       0.00019180      -0.00709465
C        0.01880986       8.53615135       3.55606830      -0.00360383      -0.00444829      -0.01256056
C        7.39819658       0.03954406       3.62103376      -0.00057509       0.00385795      -0.01042392
C        6.14693635       2.13888644       3.64253321      -0.00287005       0.00443992       0.00394411
C        4.77375723       4.23262992       3.72973788      -0.00343644       0.00292978       0.00469730
B        3.28451342       6.39705187       3.65602117       0.00275952      -0.01099043       0.00370846
C        2.46067424       8.64489730       3.63030134      -0.00107034      -0.00000192       0.00238331
C        9.88743386       0.04818158       3.71902720       0.00692584      -0.00629789      -0.00273511
C        8.64741427       2.16629157       3.69947027       0.00452876      -0.00475394       0.00401911
C        7.34675227       4.25907550       3.67549650       0.00019083      -0.00264807      -0.01310994
C        6.02688482       6.34878522       3.65750303      -0.00010068      -0.00122281      -0.00231574
C        4.89076481       8.52723241       3.68825512      -0.00080090       0.00782008       0.00419013
C        0.03485545       1.39812119       3.88531453      -0.00526161       0.00026345       0.00438580
C       -1.14770166       3.59074414       3.76961804       0.00135086       0.00279814      -0.00107356
C       -2.42690829       5.68462145       3.60842460      -0.00089581       0.00483520       0.00786457
C       -3.71955932       7.77036965       3.59731971       0.00515430      -0.00250429       0.00523689
C       -4.95579498       9.88373828       3.70638970      -0.00228330      -0.00473735       0.00237482
C        2.48917630       1.27538022       3.79119414       0.00116452       0.00409949      -0.00030520
P        1.74650999       3.69040439       4.25449952      -0.00292230      -0.00715193      -0.01063410
C        0.18058538       5.73144455       3.61015188      -0.00356808       0.00575728      -0.00073942
C       -1.20477542       7.79590118       3.54244708       0.00125610      -0.00330199       0.00448973
C       -2.45719213       9.88632517       3.58766043      -0.00401189      -0.00016172       0.00520248
C        4.94190363       1.37232890       3.61803796       0.00185604       0.00138439       0.00554663
C        3.56525187       3.42894396       3.80864954      -0.00187297       0.00175323      -0.00227205
C        1.27526507       7.86678596       3.58670486      -0.00081849      -0.00285272      -0.00220876
C        0.01220670       9.95986803       3.57375501      -0.00454045      -0.00216227      -0.00634331
C        7.40042306       1.45516882       3.64903657      -0.00105876       0.00412085       0.00754178
C        6.08471448       3.55612533       3.68620393      -0.00437373       0.00308455      -0.00715458
C        4.71126499       5.66040585       3.68123367       0.00364973      -0.00201362      -0.00346320
C        3.63291822       7.88171701       3.66304334       0.00001784       0.00158699       0.01432787
C        2.47288446      10.04997187       3.65178763       0.00230482       0.00089371       0.00042415
C        9.90370527       1.46873224       3.74995359      -0.00019688      -0.00886485       0.01036388
C        8.63526328       3.57928178       3.69050190       0.00572262      -0.00229888       0.00779580
C        7.32708951       5.66907575       3.64750357      -0.00293167      -0.00192056       0.00523974
C        6.10246618       7.77120531       3.66595613      -0.00583902       0.00052254      -0.00299473
C        4.92779583       9.97002918       3.73267339       0.00685118       0.00676480      -0.00048671
Tl       2.25062496       5.10172385       6.72998512       0.00004133      -0.00957415       0.00081088
O        2.84318258       6.49344537       8.36756898       0.00085287      -0.00339204       0.00806462
O        2.59587897       5.52003364       9.46199826       0.00103721       0.00318546      -0.01009195
H        3.49415855       5.49557408       9.83845117       0.00045801       0.00805031      -0.00109089
