52
Lattice="12.336457 0.0 0.0 -6.168228499999997 10.683685154694365 0.0 0.0 0.0 15.0" Properties=species:S:1:pos:R:3:forces:R:3 energy=-443.8744538177335 free_energy=-443.8744538177335 stress="-0.0021109793814788704 0.0037123610981657606 2.622783399899462e-05 0.0037123610981657606 0.003036690273421428 3.149555925971561e-05 2.622783399899462e-05 3.149555925971561e-05 -9.462876518628876e-06" pbc="T T T"
C        0.01929834       0.03058951       3.81642956       0.00229636       0.01229767       0.00378572
C       -1.20702522       2.16011639       3.76538715       0.00416637       0.00510611       0.00292974
C       -2.43790424       4.29181948       3.66124889      -0.00746185       0.00245357       0.01302785
C       -3.69041357       6.42846042       3.66687409      -0.00093913      -0.01044063      -0.01353527
C       -4.93351629       8.56922606       3.76039974       0.00590267       0.00089165       0.00226110
C        2.48445498       0.06120591       3.78250599       0.00140125       0.00036218       0.00453028
C        1.26411036       2.24170980       3.95446692       0.00760776      -0.00742621       0.01375073
C        0.04157203       4.32296995       3.87491655      -0.00445855      -0.00996921      -0.00501453
C       -1.23082305       6.44379296       3.71605457      -0.00390479       0.00566556       0.00510298
C       -2.46807635       8.57465884       3.71555364      -0.00769311       0.01274560       0.00541979
C        4.94698947       0.01472991       3.70704050       0.00778844       0.00479625      -0.00064672
C        3.76656796       2.14703389       3.70186179      -0.01318389      -0.00592768       0.00963606
O        1.15909638       6.48049389       3.72610740       0.00957258      -0.00078141      -0.00294505
C       -0.00479561       8.55889199       3.74565675       0.00200215      -0.00269733      -0.00745686
C        7.42475464      -0.00924077       3.70983846       0.00594900      -0.00072614       0.00039088
C        6.21457353       2.12346756       3.60522255      -0.00403417       0.00727791      -0.01607150
C        5.01141305       4.21945110       3.61702312      -0.00137001      -0.00290657       0.00707399
B        3.79421106       6.37887342       4.21657142       0.00557769       0.00964721      -0.00286849
C        2.45133121       8.52090605       3.85871229      -0.00124129      -0.00167901       0.00637605
C        9.88420519       0.00037800       3.77413332      -0.00505618      -0.00470069       0.00250879
C        8.66970957       2.13937467       3.64999333       0.00844127       0.00407158      -0.00018307
C        7.44196977       4.28004432       3.59342097       0.00462153      -0.00153227      -0.00590543
C        6.17786555       6.39849345       3.72595073      -0.00009168      -0.00535317       0.00320435
C        4.93344962       8.54507148       3.86732988      -0.00560083      -0.00239698       0.00452812
C        0.03016849       1.46477142       3.84159503       0.00913333       0.01332082       0.00567417
C       -1.21034869       3.58774883       3.74077241      -0.01167579      -0.00031327      -0.00621495
C       -2.45780046       5.71593631       3.67309591      -0.00228744      -0.00213689      -0.00274954
C       -3.70320648       7.85790919       3.71130054       0.00007194      -0.00523982      -0.00471137
C       -4.91849763      10.00479991       3.79743461       0.00085589       0.00733321      -0.00528384
C        2.51190251       1.50043292       3.82781886      -0.00636477      -0.00931366       0.00934237
C        1.17702265       3.60789385       4.20078870       0.00031214      -0.00618703      -0.00749596
C       -0.02442186       5.75543943       3.78605885      -0.00026861      -0.00061983      -0.00443163
C       -1.24365357       7.86562756       3.71693068      -0.00896066       0.01016638      -0.00584968
C       -2.46386566      10.01083748       3.73375188       0.00362945       0.01185870      -0.00015963
C        4.97128884       1.43423919       3.66426588      -0.00811756       0.00414195      -0.00569495
O        3.82418315       3.51773812       3.58075230       0.00126212      -0.00779143       0.00254915
C        1.20031149       7.85210091       3.79345058       0.00591246      -0.00069802      -0.00217482
C        0.01608293       9.98139524       3.72104916       0.00907161      -0.00244385      -0.01107134
C        7.43515761       1.42009488       3.64452169       0.00220393       0.00689312      -0.00170044
C        6.22158998       3.53989074       3.56279209       0.00428835       0.00569737      -0.00669224
C        4.97409743       5.62702854       3.77365110      -0.00426287      -0.00316159       0.00420527
C        3.69027347       7.82970051       3.97151523      -0.00853645      -0.00431777       0.00408737
C        2.47573960       9.95622606       3.77472707      -0.00155479      -0.00834782      -0.00035886
C        9.89321315       1.42778403       3.72040631       0.00713473      -0.00330030       0.00097932
C        8.66932898       3.56727073       3.62041265       0.00185886       0.00286561      -0.00774608
C        7.42080039       5.70349529       3.63899163       0.00202939      -0.00839709       0.00586881
C        6.16507939       7.83133249       3.79538942       0.00133406      -0.00157077       0.00384786
C        4.95152407       9.98366761       3.81723514      -0.00149618       0.00062247       0.00306760
Tl       2.54666520       4.98759898       5.46457548       0.00785676       0.00822960       0.00370715
O        1.96448171       4.06582091       7.36556766       0.00415904      -0.00451722      -0.00590117
O        2.26316277       5.20082372       8.27630047      -0.01719023       0.00068823      -0.00643496
H        3.02411896       4.81359203       8.74730663      -0.00069031      -0.01223910       0.01144289
