52
Lattice="12.336457 0.0 0.0 -6.168228499999997 10.683685154694365 0.0 0.0 0.0 15.0" Properties=species:S:1:pos:R:3:initial_magmoms:R:1:forces:R:3 energy=-456.5645763455752 free_energy=-456.5645763455752 stress="-0.004607517471197423 -0.001612871240941552 -1.5680386594126915e-05 -0.001612871240941552 -0.0026392016167910847 2.672220135392182e-06 -1.5680386594126915e-05 2.672220135392182e-06 -2.1723590652890505e-05" pbc="T T T"
C        0.00207064      -0.08908921       3.52588592       0.00000000       0.00352015      -0.00236890      -0.00425388
C       -1.24398221       2.03824279       3.60134309       0.00000000       0.00110738       0.00708250      -0.00550715
C       -2.47901358       4.17740578       3.60572969       0.00000000       0.00101955      -0.00407448      -0.00405145
C       -3.69862954       6.32084587       3.53151521       0.00000000      -0.00136651      -0.00331059      -0.00487393
C       -4.92204710       8.46366484       3.48959452       0.00000000      -0.00839211      -0.00477601      -0.00513110
C        2.47021803      -0.09249563       3.53529931       0.00000000       0.00629894      -0.00275983      -0.00792294
C        1.22843744       2.02666394       3.64076370       0.00000000      -0.00690672      -0.00905471      -0.00225819
C       -0.01769672       4.17297822       3.76743674       0.00000000      -0.00569116       0.00170029       0.01240102
C       -1.25392763       6.32511190       3.63278622       0.00000000      -0.00265427      -0.00038898       0.00582556
C       -2.46826726       8.46068843       3.52922799       0.00000000       0.00643586       0.00522042       0.00213959
C        4.93470759      -0.08986135       3.57835008       0.00000000      -0.00162785      -0.00163946      -0.00130509
C        3.69263990       2.04665907       3.66168213       0.00000000       0.00221701      -0.01390383       0.00054216
C        2.43742612       4.09570713       4.02487254       0.00000000       0.00258538       0.00772374       0.01217966
C        1.14109315       6.33983343       4.02006535       0.00000000       0.01670131      -0.00244702       0.00162864
C       -0.00478216       8.44930151       3.64738285       0.00000000      -0.00230861       0.00850494       0.00381363
C        7.40100712      -0.10113571       3.61321249       0.00000000      -0.00710507       0.00313288       0.00200329
C        6.15937931       2.05044337       3.62587260       0.00000000      -0.00490876      -0.00642618      -0.00076248
C        4.92175005       4.21077349       3.72515316       0.00000000       0.00700406      -0.00547507      -0.00350707
N        3.81868709       6.38812621       3.81516508       0.00000000       0.00699251       0.00480506      -0.00621551
C        2.48469832       8.43101608       3.70550530       0.00000000      -0.00593037       0.00182053      -0.00238904
C        9.86581448      -0.10008343       3.57697400       0.00000000       0.00757672      -0.00335036      -0.00198716
C        8.62631137       2.03973127       3.59081574       0.00000000      -0.00092685       0.00878672       0.00747833
C        7.39298058       4.18378267       3.59746608       0.00000000      -0.00325993       0.01232870      -0.01193751
C        6.19119089       6.33508058       3.56084192       0.00000000      -0.01160805       0.00382643      -0.01137615
C        4.95976483       8.46702389       3.54684923       0.00000000      -0.00726520      -0.00009732       0.00496394
C       -0.00458559       1.32948931       3.57880361       0.00000000      -0.00582514      -0.00134392       0.00824807
C       -1.24233839       3.46535353       3.65104989       0.00000000      -0.00015722       0.00118425      -0.00794775
C       -2.47387716       5.60539005       3.57964723       0.00000000      -0.00183503      -0.00725535       0.00889175
C       -3.69376805       7.74585891       3.50352565       0.00000000       0.00019590       0.00160312       0.00767490
C       -4.92963891       9.88662091       3.50398957       0.00000000       0.00569503      -0.00102084       0.00390512
C        2.46561410       1.33106832       3.60720825       0.00000000       0.00024938      -0.00366788      -0.00801984
C        1.22966992       3.46316950       3.79129988       0.00000000       0.00358442      -0.00290519      -0.00056690
C       -0.00968307       5.60824232       3.78562099       0.00000000       0.00899006       0.00870628      -0.00084921
C       -1.23803799       7.74449043       3.59661683       0.00000000       0.00375210       0.00026814      -0.00865360
C       -2.46495661       9.88291255       3.53733084       0.00000000       0.00394094       0.00110797       0.01009734
C        4.92796514       1.33814783       3.61584067       0.00000000       0.00113766      -0.00984390      -0.00383965
C        3.66400477       3.49667689       3.79331934       0.00000000       0.00661835      -0.01190035      -0.00188709
C        1.23686537       7.70020138       3.77825490       0.00000000      -0.00572708      -0.00276629      -0.00477224
C       -0.00041101       9.87339687       3.60565259       0.00000000      -0.00577749       0.00635820      -0.00303666
C        7.39278925       1.32796647       3.60119268       0.00000000      -0.00451816       0.00822177       0.01734750
C        6.14513992       3.48742413       3.64590953       0.00000000       0.00482890      -0.00265624      -0.00734654
C        4.94182730       5.65311253       3.68485513       0.00000000       0.00485819       0.00045536       0.00354106
C        3.74413125       7.72689894       3.67209291       0.00000000      -0.00302537       0.00361596       0.00040317
C        2.47025187       9.85176451       3.62405728       0.00000000      -0.00233347      -0.00130734       0.00397838
C        9.86088051       1.32538011       3.57896000       0.00000000       0.00185441       0.00485805       0.01487271
C        8.62481722       3.46635930       3.59093526       0.00000000      -0.00282298       0.00576076      -0.00073196
C        7.40629544       5.60739448       3.55553879       0.00000000      -0.00813558       0.00614312      -0.00181730
C        6.18666277       7.75400431       3.51603432       0.00000000      -0.01077161      -0.00447259      -0.00802974
C        4.93698483       9.88347836       3.53955289       0.00000000       0.00704911      -0.00533280      -0.00302301
Tl       2.34936780       5.55317128       5.95077492       0.00000000       0.00554478       0.00395116      -0.00720979
O        2.42815743       7.31379018       9.38756232       1.00000000      -0.00009335      -0.00411473       0.01240969
O        2.55154054       8.43707301       8.88089331       1.00000000       0.00121584       0.00149378      -0.00313557
