52
Lattice="12.336457 0.0 0.0 -6.168228499999997 10.683685154694365 0.0 0.0 0.0 15.0" Properties=species:S:1:pos:R:3:initial_magmoms:R:1:forces:R:3 energy=-456.81216474532084 free_energy=-456.81216474532084 stress="-0.001741536728683505 -1.652454348103377e-05 -2.7813781934274484e-05 -1.652454348103377e-05 -0.0017677497018829483 1.0473587225190336e-05 -2.7813781934274484e-05 1.0473587225190336e-05 -6.833496818440353e-05" pbc="T T T"
C        0.11127327      -0.03293199       3.62653601       0.00000000      -0.00212317      -0.00225610      -0.00384986
C       -1.12159375       2.10396266       3.63531858       0.00000000       0.00361179       0.00023061      -0.00227621
C       -2.35563025       4.24139401       3.62744623       0.00000000      -0.00206525       0.00432099      -0.00114679
C       -3.59032486       6.37739695       3.61573251       0.00000000       0.00123413       0.00457987      -0.00463504
C       -4.81913522       8.51677895       3.61888817       0.00000000      -0.00215587      -0.00044817      -0.00362625
C        2.57828091      -0.03741874       3.61843690       0.00000000      -0.00028451      -0.00322265      -0.00013218
C        1.35038057       2.10075036       3.64794099       0.00000000      -0.00015818      -0.00121898      -0.00431207
C        0.11422209       4.24283595       3.67543545       0.00000000      -0.00282273       0.00176579      -0.00037405
C       -1.12298714       6.38430410       3.61801797       0.00000000       0.00105039      -0.00242918       0.00078972
C       -2.36096016       8.51708100       3.60374854       0.00000000       0.00188911      -0.00285305      -0.00077466
C        5.04530223      -0.03234261       3.62037463       0.00000000      -0.00148590      -0.00329303      -0.00218128
C        3.80573434       2.10112312       3.65448973       0.00000000      -0.00239972      -0.00150746      -0.00346010
C        2.57713521       4.24891379       3.79358274       0.00000000       0.00306561      -0.00483028      -0.00157626
C        1.34998641       6.37339309       3.77037871       0.00000000       0.00312304       0.00229309       0.00424906
C        0.10485668       8.51069209       3.62690602       0.00000000      -0.00175111      -0.00006235      -0.00380268
C        7.51226519      -0.03438931       3.63574322       0.00000000       0.00058552       0.00103841      -0.00289064
C        6.27766141       2.10453854       3.64414333       0.00000000      -0.00279086      -0.00201303      -0.00195429
C        5.04158422       4.24289668       3.70158368       0.00000000      -0.00011752       0.00131496       0.00499860
C        3.80487505       6.37370554       3.79402733       0.00000000      -0.00136083       0.00209128       0.00208460
C        2.57784905       8.50964437       3.68405436       0.00000000       0.00008323       0.00039600       0.00021498
C        9.98078122      -0.03469654       3.63956831       0.00000000      -0.00553256       0.00274775      -0.00262408
C        8.74618969       2.10351804       3.63390891       0.00000000       0.00253348       0.00406606       0.00159172
C        7.51154566       4.24183441       3.64241466       0.00000000      -0.00075044      -0.00115132      -0.00466837
C        6.27879830       6.38443734       3.65394572       0.00000000       0.00353182      -0.00222830      -0.00063208
C        5.05134333       8.51030084       3.65076557       0.00000000       0.00186202       0.00506305      -0.00065153
C        0.11506117       1.39278558       3.63254836       0.00000000       0.00261722      -0.00235899       0.00619257
C       -1.11592474       3.53220222       3.64003244       0.00000000      -0.00289676       0.00094521       0.00087351
C       -2.35360850       5.66802874       3.61470079       0.00000000      -0.00092713       0.00330659       0.00198967
C       -3.59007400       7.80330157       3.60911598       0.00000000      -0.00108518       0.00365900       0.00110459
C       -4.82218575       9.93807849       3.61884141       0.00000000      -0.00101756      -0.00130763      -0.00139080
C        2.57820365       1.38912315       3.63823285       0.00000000      -0.00064100      -0.00165662      -0.00016343
C        1.36426930       3.54630957       3.69301598       0.00000000       0.00047213       0.00098052      -0.00054223
C        0.13568397       5.67366141       3.66928047       0.00000000       0.00245494       0.00175683       0.00370524
C       -1.12554482       7.80362438       3.60942455       0.00000000       0.00040202      -0.00496009       0.00179422
C       -2.35763562       9.93845850       3.61123246       0.00000000      -0.00021709      -0.00428134      -0.00031850
C        5.04114089       1.39335463       3.63785213       0.00000000      -0.00366452      -0.00252947      -0.00178542
C        3.79127198       3.54657249       3.70646793       0.00000000       0.00046667       0.00003810      -0.00145600
C        1.34947044       7.77560484       3.67789157       0.00000000      -0.00197808       0.00051748       0.00053908
C        0.10954523       9.93454909       3.62402932       0.00000000       0.00046006       0.00040443       0.00188453
C        7.51088510       1.39051229       3.63556679       0.00000000       0.00143930       0.00410802       0.00077354
C        6.27185999       3.53272758       3.65859399       0.00000000      -0.00141752      -0.00090491       0.00657891
C        5.01998692       5.67379727       3.70642170       0.00000000      -0.00432848       0.00325647      -0.00084163
C        3.80624057       7.77531363       3.69708416       0.00000000       0.00330250       0.00110470       0.00183914
C        2.57824552       9.93031735       3.64830297       0.00000000      -0.00237289      -0.00228868      -0.00017950
C        9.98159160       1.39023181       3.63326145       0.00000000       0.00098267       0.00312841       0.00069311
C        8.74613376       3.53008666       3.63209269       0.00000000      -0.00034381       0.00144392      -0.00108188
C        7.50925586       5.66847213       3.63555865       0.00000000       0.00467878      -0.00282826      -0.00388119
C        6.28173392       7.80345805       3.63951558       0.00000000       0.00189979      -0.00286230      -0.00402089
C        5.04702409       9.93392770       3.63568030       0.00000000      -0.00534164       0.00467444       0.00199914
Tl       2.54931203       5.67648631       5.92848254       0.00000000      -0.00046264      -0.00290405      -0.01738732
O        0.14630320       6.28726532       9.05501902       1.00000000       0.00714666      -0.00189619       0.01554043
O       -0.81174428       6.52199534       8.30772935       1.00000000       0.00360010      -0.00093955       0.01918086
