51
Lattice="12.336457 0.0 0.0 -6.168228499999997 10.683685154694365 0.0 0.0 0.0 15.0" Properties=species:S:1:pos:R:3:initial_magmoms:R:1:forces:R:3 energy=-445.94007311174636 free_energy=-445.94007311174636 stress="-0.005818428041775861 -0.0004312663858126459 -1.5527640912560832e-05 -0.0004312663858126459 0.003090635522894137 -1.2852132506286845e-05 -1.5527640912560832e-05 -1.2852132506286845e-05 2.0066495894386532e-05" pbc="T T T"
C       -0.02501863       0.03164780       3.67529435       0.00000000       0.00456138       0.00159505      -0.00463816
C       -1.27928686       2.14155167       3.65720287       0.00000000       0.00237961      -0.00231008       0.00513693
C       -2.50687234       4.28906370       3.56682517       0.00000000      -0.01030948       0.00025099       0.01004959
C       -3.72591883       6.44270559       3.52433448       0.00000000      -0.00316015       0.00605650      -0.00867686
C       -4.95156557       8.59409489       3.58838619       0.00000000      -0.00179534      -0.00107131       0.01018922
C        2.44052851       0.08402578       3.71928127       0.00000000      -0.00054138       0.00007205       0.00899805
C        1.17537242       2.20564144       3.86988515       0.00000000      -0.00396752       0.00206935      -0.00728698
C       -0.06412254       4.24613623       3.87585970       0.00000000       0.00159279      -0.00018417       0.00227008
C       -1.29048370       6.43826867       3.69380093       0.00000000      -0.00455476      -0.00539242       0.00340742
C       -2.50297329       8.59480485       3.64339508       0.00000000       0.00321293      -0.00097085       0.00630926
C        4.90363538       0.03620497       3.72473432       0.00000000       0.00349559      -0.00286532       0.00216840
C        3.69590944       2.23022620       3.81685727       0.00000000      -0.00767607       0.00103365      -0.00590638
C        1.06193312       6.43740036       4.23024778       0.00000000       0.00434281       0.01122981      -0.00379326
C       -0.04149608       8.56230258       3.81034102       0.00000000       0.00417845      -0.00204507       0.00430067
C        7.37849065      -0.00842515       3.73033774       0.00000000       0.00616809      -0.01152241       0.00489329
C        6.15131754       2.14847440       3.64922956       0.00000000       0.01080481      -0.01199710       0.00515020
C        4.92261264       4.26946364       3.70969766       0.00000000      -0.00499137       0.00831913      -0.01231427
N        3.80748219       6.44679860       3.92952575       0.00000000      -0.00649819       0.00947593      -0.00428547
C        2.45177024       8.51238051       3.89062244       0.00000000      -0.00187690       0.00230760       0.00054393
C        9.83620485      -0.01141502       3.69064226       0.00000000      -0.00734115       0.00342503       0.00544546
C        8.60517114       2.13813876       3.59685950       0.00000000       0.00121776       0.00819674      -0.00430187
C        7.38312704       4.29235590       3.52435823       0.00000000      -0.00886999      -0.00288421       0.00876673
C        6.16332562       6.44100356       3.55656772       0.00000000       0.01279867      -0.00967366       0.00097752
C        4.92408785       8.55938500       3.67716140       0.00000000       0.00271913      -0.00142502       0.01155749
C       -0.03958559       1.45256675       3.72002864       0.00000000       0.00430375      -0.00074176       0.00289718
C       -1.29044883       3.56207706       3.66555248       0.00000000      -0.00318902      -0.00202381      -0.00297225
C       -2.50461980       5.72178403       3.56708290       0.00000000      -0.01163903       0.00056706       0.01523602
C       -3.72505213       7.87443221       3.57193309       0.00000000      -0.00145330       0.00599212      -0.00887105
C       -4.95389369      10.02548537       3.66220121       0.00000000       0.00196522      -0.00000280      -0.00540777
C        2.43894715       1.51295749       3.81876426       0.00000000      -0.00827576       0.00131570      -0.00324034
N        1.07492780       3.54989149       4.07481397       0.00000000      -0.00242295      -0.00239952       0.00374523
C       -0.06916374       5.71388548       3.91342219       0.00000000       0.00490910       0.00270530       0.00720648
C       -1.27692842       7.86746084       3.70546765       0.00000000       0.00340792      -0.00573830       0.00170233
C       -2.50089707      10.02563681       3.69572069       0.00000000       0.00147817      -0.00034126       0.00567621
C        4.91318683       1.46220071       3.72661273       0.00000000       0.00113346      -0.00233646      -0.01197770
N        3.77748483       3.58518234       3.89454074       0.00000000      -0.00261333       0.00181661      -0.01673630
C        1.19150796       7.81125872       3.97807995       0.00000000       0.00302182       0.01173593       0.01304977
C       -0.03002788       9.98335586       3.75193329       0.00000000       0.00444503      -0.00539301      -0.00518922
C        7.37876724       1.41973802       3.64721845       0.00000000       0.01471740      -0.01155246       0.00068300
C        6.15969224       3.57349342       3.59742537       0.00000000      -0.00514204      -0.00685996      -0.00246213
C        4.94013602       5.74047833       3.69777958       0.00000000      -0.00195298       0.01197165      -0.00337542
C        3.71434633       7.80381629       3.82813222       0.00000000      -0.00652853       0.00720672      -0.00112898
C        2.44299694       9.93786147       3.76786823       0.00000000      -0.00108278      -0.00696958      -0.01325147
C        9.83142730       1.41775171       3.63323032       0.00000000      -0.00235614       0.00561899       0.00123660
C        8.60707906       3.56906630       3.53850433       0.00000000      -0.01061604       0.00614457      -0.00207938
C        7.38646535       5.72094851       3.50807753       0.00000000       0.00887976      -0.00753696      -0.00735364
C        6.15713184       7.86902679       3.58729576       0.00000000       0.00412781      -0.01042464      -0.00216252
C        4.90739292       9.98111655       3.67383689       0.00000000      -0.00193690       0.00405644       0.00570412
Tl       2.41113923       5.16208194       5.21802488       0.00000000       0.00243283      -0.00249260       0.00053547
O        2.76125521       4.89363920       7.45426584       1.00000000       0.00017822       0.00363957      -0.00630981
O        3.55813302       4.03307485       6.76154401       1.00000000       0.00831855       0.00035224      -0.00411546
