52
Lattice="12.336457 0.0 0.0 -6.168228499999997 10.683685154694365 0.0 0.0 0.0 15.0" Properties=species:S:1:pos:R:3:forces:R:3 energy=-448.3167344200036 free_energy=-448.3167344200036 stress="-0.0043621130037997 -0.0005097309816042847 -1.5218477040868613e-05 -0.0005097309816042847 0.0022783987998741344 -1.0997274956748553e-07 -1.5218477040868613e-05 -1.0997274956748553e-07 1.6509566893607527e-05" pbc="T T T"
C        0.04410301      -0.05804753       3.78810170       0.00451521       0.00261510      -0.00139654
C       -1.20361155       2.06083693       3.77090666       0.00021291      -0.00444544       0.00105548
C       -2.43135866       4.20487856       3.68248442       0.00655247      -0.00013281       0.00169419
C       -3.65343978       6.35137851       3.64992951      -0.00225265       0.00631528       0.00039212
C       -4.88577182       8.49838778       3.70944275       0.00415811       0.00618657      -0.00243552
C        2.51689976      -0.03114114       3.84038730      -0.00077021       0.00092543       0.00143455
C        1.26138848       2.09818802       3.99262531       0.00014939       0.00091511       0.00713514
C        0.01805212       4.20580442       3.95734844       0.00124907       0.01000751      -0.01155642
C       -1.20410411       6.35872497       3.78462084      -0.00326605      -0.00338736      -0.01012943
C       -2.42314557       8.50010062       3.74589939       0.00419636      -0.00806266      -0.00011663
C        4.98848565      -0.05966600       3.78908211      -0.00650726      -0.00437505       0.00930896
C        3.76754660       2.11455472       3.95020943       0.00393161      -0.00262053      -0.00230933
N        1.17933112       6.36200938       4.16696500       0.00113456       0.00023745       0.00653330
C        0.05039356       8.46378727       3.82522448      -0.00476925      -0.00191579      -0.00584905
C        7.45974706      -0.09553473       3.75188170       0.00287213      -0.00373434       0.00801465
C        6.22815717       2.06595285       3.71372381      -0.00292780       0.00382317      -0.00525671
C        4.98980037       4.23091977       3.78118398      -0.01304796       0.00225913      -0.00471510
O        3.84461804       6.37932381       3.80804975       0.00085526       0.00458948      -0.00048259
C        2.53107686       8.40735691       3.84565628      -0.00650518      -0.00639258      -0.00095142
C        9.90807140      -0.09569314       3.74747091       0.00310257      -0.00074229      -0.00593754
C        8.68113790       2.05594070       3.67285404      -0.00344253      -0.00208099      -0.00469647
C        7.45223900       4.20707342       3.61747896       0.00326448      -0.00364022       0.00193995
C        6.22604816       6.35955631       3.64577001       0.00475383      -0.00139296       0.00260571
C        4.98695689       8.47307066       3.73523223       0.00330188       0.00579174      -0.00165330
C        0.02825793       1.36041241       3.84543541       0.00166724      -0.00206568       0.00511717
C       -1.21225364       3.48880056       3.77793536       0.00685951      -0.00131396      -0.00553101
C       -2.42527326       5.63442308       3.68985463      -0.00655611       0.00198679       0.01117100
C       -3.65151754       7.78194958       3.69598899       0.00233158       0.00453745      -0.00750741
C       -4.88263267       9.92811833       3.78225675       0.00119137       0.00319463       0.00749215
C        2.51643583       1.39228089       3.95923415       0.00397715       0.00183874       0.00275528
C        1.16848995       3.48167827       4.18669570      -0.01134448      -0.00022016       0.00200469
C        0.02758913       5.67238077       3.95818327       0.00099191       0.00790058      -0.01028157
C       -1.19416811       7.77738208       3.78084075       0.00096070      -0.00782699      -0.00380056
C       -2.42001953       9.92672977       3.79292634      -0.00487730      -0.00822148       0.00852288
C        4.99916704       1.36243684       3.80691291       0.00153334      -0.00215083       0.00405869
C        3.84656795       3.50594984       4.09528066      -0.00919012      -0.00345435       0.00081812
C        1.26193571       7.70876964       3.94057276      -0.00907128      -0.00384731      -0.00557194
C        0.05493932       9.89059130       3.77983940      -0.00274914      -0.00005504       0.00136679
C        7.45848404       1.33636644       3.69760394      -0.00331266      -0.00144680       0.00380675
C        6.22939735       3.49511781       3.66948082      -0.00738577       0.00524984      -0.00394261
C        5.02814198       5.66422926       3.72322073      -0.00063746       0.00114291      -0.00536448
C        3.78566646       7.76629722       3.79335990      -0.00053100       0.00426141      -0.00139592
C        2.51851069       9.84665604       3.77545415       0.00441502      -0.00606258       0.00230948
C        9.90492762       1.33788254       3.71902938      -0.00357045      -0.00167706      -0.00152539
C        8.68110997       3.48633844       3.63826059       0.00656507      -0.00232437      -0.00050946
C        7.45769019       5.63299940       3.61996370       0.00425664      -0.00248147       0.00876052
C        6.22866244       7.78290095       3.68303640       0.00515895       0.00288069       0.00720890
C        4.97761364       9.90027622       3.75314606       0.00605382       0.00639194       0.00405497
Tl       2.52010113       4.74180929       5.23208345       0.00308939       0.00532565       0.00198662
O        2.69309026       4.96516525       7.33329253       0.00807746       0.00329384      -0.00644462
O        1.39637212       5.67098196       7.51347679      -0.00201904      -0.00930049       0.00516276
H        1.72819056       6.46571369       7.97648827       0.00335476       0.00370114      -0.00734980
