53
Lattice="12.336457 0.0 0.0 -6.168228499999997 10.683685154694365 0.0 0.0 0.0 15.0" Properties=species:S:1:pos:R:3:forces:R:3 energy=-457.29121340094986 free_energy=-457.29121340094986 stress="-0.00011666176235957944 0.00553226842771588 -2.5599534695247056e-05 0.00553226842771588 -0.006193243677745839 2.6946521301960576e-06 -2.5599534695247056e-05 2.6946521301960576e-06 -1.5930354555028645e-05" pbc="T T T"
C       -0.11525050      -0.05879005       3.81021262       0.00376145      -0.00060803      -0.01460485
C       -1.30776750       2.10674234       3.81168131      -0.00141392      -0.00483125      -0.00896767
C       -2.53568140       4.23406151       3.78550458      -0.00804873      -0.00970494       0.00287920
C       -3.81470775       6.34995073       3.76986167       0.00152360      -0.00082737      -0.00975748
C       -5.08509652       8.46668418       3.77332814      -0.00421359       0.00275093       0.00820276
C        2.34055851      -0.07831685       3.85721292       0.00947626      -0.00041753      -0.01580670
C        1.14960563       2.08675564       3.79042401      -0.00495135       0.00007360      -0.00569188
C       -0.04971400       4.25074374       3.71989930      -0.00277249       0.00484560      -0.00251115
C       -1.32536586       6.37206893       3.75715008      -0.00342032       0.00033646       0.00656465
C       -2.60425770       8.48691448       3.83962032      -0.00388592      -0.00426366      -0.01001583
C        4.81758930      -0.06120654       3.91240412      -0.00353335       0.00499524      -0.00415588
C        3.60423713       2.03670761       3.84879278      -0.00051518      -0.00464527      -0.00372931
C        2.45844268       4.17099426       3.68429071       0.00433572      -0.00622060       0.00016540
C        1.13292296       6.46446723       3.66786743       0.00774354       0.00115814       0.00338177
C       -0.14232604       8.52247872       3.84190293      -0.00078498       0.01308756       0.00176743
C        7.29283046      -0.03052298       3.90588832      -0.00176441       0.01123669      -0.00251884
C        6.08255105       2.06724192       3.88894579       0.00610857      -0.00165275       0.00979499
C        4.87012518       4.16476138       3.74243145       0.00138120      -0.00634080       0.00354134
S        2.98049532       6.00306213       3.48963341      -0.00846595      -0.00780301       0.00219000
C        2.33391531       8.55432378       3.77332399       0.00248878       0.00191640      -0.01366744
C        9.77641370      -0.02778286       3.84576569      -0.00865055       0.00360124      -0.00987347
C        8.55796070       2.09805841       3.86805796       0.00353943       0.00406974      -0.00429947
C        7.32713947       4.21589297       3.80088498      -0.00543467      -0.00175079       0.00208976
C        6.00940977       6.32221615       3.69081772       0.00332593      -0.00811078      -0.00764573
C        4.77256070       8.46215490       3.72098720       0.00517030       0.00644696       0.00090866
C       -0.08857530       1.37797517       3.80767754      -0.00217535      -0.00416279      -0.00255805
C       -1.28785239       3.53617442       3.77315801      -0.00329104      -0.00400436       0.00396186
C       -2.55778580       5.65441666       3.77012542      -0.00288801      -0.00877487      -0.00753817
C       -3.83609434       7.77002655       3.79330493      -0.00607648      -0.00021954      -0.00558401
C       -5.06450895       9.89640166       3.81490267       0.00786341       0.00294663      -0.00175750
C        2.35757971       1.34688237       3.84049137      -0.00305176       0.00000711       0.00845017
C        1.19211390       3.53898787       3.72186945      -0.00149676       0.00167721       0.00110848
C       -0.04660407       5.68208554       3.70017337       0.00054601       0.00559670       0.00908929
C       -1.36249074       7.78807268       3.81566371      -0.00080470       0.00336664       0.01382613
C       -2.59377892       9.90532610       3.88040826       0.00401910      -0.00511366      -0.00490357
C        4.84082299       1.35010193       3.90015069       0.00167308       0.00220867      -0.00421736
C        3.63220478       3.44893597       3.75791316       0.00323873      -0.00767865       0.00669524
C        1.09479146       7.84097691       3.76123598      -0.00020899       0.00361735       0.00281220
C       -0.11742411       9.93623515       3.90390311      -0.00292866       0.01567419      -0.00568010
C        7.31542027       1.38073538       3.90207182       0.00914650       0.00741666       0.00972019
C        6.10727959       3.48119524       3.82361311       0.00023625      -0.00581787       0.00365394
C        4.83337144       5.54000130       3.65109237       0.00230652      -0.00773237       0.01236167
C        3.50651029       7.83360907       3.68470725       0.00690723       0.00808651       0.00547458
C        2.36168150       9.96720536       3.85840056      -0.00820183       0.00310933       0.01308537
C        9.79203779       1.39749348       3.85189306      -0.00148793       0.00171928      -0.00217712
C        8.56886307       3.51691070       3.82444762      -0.01040131      -0.00102794       0.00284039
C        7.28872399       5.63283806       3.74604324       0.00358704      -0.00307335       0.01319127
C        6.01488064       7.75279104       3.71300493       0.00027108      -0.00360290       0.00302141
C        4.81572101       9.91420929       3.79342514      -0.00239099       0.00879107      -0.01028924
Tl       2.76760646       5.93841791       6.48848762       0.00784164      -0.00921966      -0.00059079
O        4.81110268       6.96270368       6.56565779      -0.00021772      -0.01071060      -0.00273132
O        4.79544307       7.01880800       8.03607248       0.00430889       0.00879859      -0.00179845
H        5.58517909       6.47827526       8.22838181       0.00267669       0.00078083       0.01229325
