52
Lattice="12.336457 0.0 0.0 -6.168228499999997 10.683685154694365 0.0 0.0 0.0 15.0" Properties=species:S:1:pos:R:3:forces:R:3 energy=-448.02800699360034 free_energy=-448.02800699360034 stress="-0.005297643639572013 0.0006848203573247167 -1.1694504017142188e-06 0.0006848203573247167 0.003990744794242258 3.1150419805127515e-06 -1.1694504017142188e-06 3.1150419805127515e-06 -6.669351604399062e-08" pbc="T T T"
C        0.00805895       0.03398131       3.79936741       0.00547396      -0.00478965      -0.00816716
C       -1.24420746       2.14042618       3.85371173      -0.00381286      -0.00604114      -0.01033589
C       -2.48575297       4.28660043       3.75492430       0.00253700      -0.01221085      -0.01095503
C       -3.70597980       6.43768071       3.63715056       0.00790301       0.00641375       0.00983190
C       -4.92741211       8.58881701       3.66775224      -0.00240529       0.00399457      -0.00094138
C        2.47853482       0.07486833       3.78113668       0.00057524      -0.00037108      -0.00456002
C        1.23858098       2.21652836       4.02190499      -0.00952953      -0.00249360      -0.00739306
C       -0.05311438       4.27432936       4.10159600      -0.00300601      -0.00494925       0.01406295
C       -1.28101074       6.44513813       3.88187920       0.00289553       0.00712209      -0.01472928
C       -2.47868956       8.58802970       3.74709917       0.00148696       0.00428557      -0.00399518
C        4.93799582       0.02104568       3.75868972      -0.00687456       0.00382680       0.00416355
C        3.74711343       2.16376460       3.73105729       0.00585971      -0.00099943      -0.01014362
C        1.10240616       6.44991757       4.33380912      -0.00967716      -0.01464636       0.00638465
C       -0.01178271       8.55612182       3.90627915       0.00316240       0.00651085       0.00936139
C        7.41460958      -0.01767554       3.78945142      -0.01043867       0.00216978       0.00767237
C        6.18924739       2.13549516       3.64246283       0.00992720       0.00563754      -0.00116523
C        4.99055539       4.27170758       3.55185664      -0.00151033       0.00464172       0.01060724
N        3.81011397       6.41734208       3.86522931      -0.00425532      -0.00384916       0.00245335
C        2.48385167       8.50509196       3.93871324      -0.00273332      -0.00071210       0.00494425
C        9.87184852      -0.01431353       3.79798794       0.00308398       0.00406439      -0.00491733
C        8.64202401       2.13336230       3.70467041      -0.00476865      -0.00926470       0.00843614
C        7.41253200       4.28783580       3.57463835       0.00282205       0.00235218       0.00200591
C        6.18293070       6.42771248       3.55219620       0.00253480       0.00411440      -0.00722450
C        4.95145233       8.55102159       3.72982668       0.00136808       0.00305379       0.01147711
C        0.00490391       1.45782796       3.89703016      -0.00800632      -0.00838185      -0.00706227
C       -1.27125144       3.56316483       3.88710582       0.00429213      -0.00849792      -0.00445533
C       -2.49178545       5.71999579       3.74538807       0.00711064      -0.00316784      -0.00659271
C       -3.70209839       7.86937635       3.67026178      -0.00011976       0.00806418       0.00255023
C       -4.92202716      10.02200755       3.75235082       0.00450616      -0.00177167       0.00685171
C        2.49863909       1.51158816       3.85630970       0.00057573       0.00043516       0.00368656
C        1.13405312       3.57870694       4.31116336       0.00429103      -0.00150384       0.00131192
C       -0.06717253       5.73408670       4.10667302      -0.01143758      -0.00702143      -0.00208890
C       -1.25475884       7.86742760       3.84172814       0.00630372       0.01112402      -0.00493553
C       -2.46985892      10.02014420       3.75710764      -0.00345200      -0.00008599      -0.00290472
C        4.95017610       1.44856544       3.70521866       0.01108760       0.00329142      -0.01318550
O        3.80499322       3.54564641       3.59329947      -0.00361392       0.00414621      -0.00138880
C        1.22419130       7.81232664       4.06268039      -0.00214574      -0.01193859       0.00305214
C        0.00400644       9.97342622       3.80957134      -0.01057141       0.00622787       0.00452046
C        7.41012084       1.41514696       3.70003082      -0.00105130      -0.00339771       0.00130659
C        6.18338031       3.56507170       3.56422245       0.00104494       0.00641256       0.00464088
C        4.95493498       5.70692219       3.59611979       0.00316851       0.00156134       0.00911149
C        3.73816372       7.78384839       3.83887285      -0.00048508      -0.00140127       0.00310824
C        2.47845373       9.93132635       3.83928976      -0.00401535       0.00505019      -0.01871355
C        9.86558921       1.41418824       3.77829067      -0.00331437      -0.00009963       0.00131479
C        8.63489041       3.56617568       3.66083263      -0.00276881      -0.01128536       0.00303546
C        7.40558807       5.71214292       3.55951526       0.00679480       0.00574952       0.00208243
C        6.18116166       7.85756525       3.63311139      -0.00099650       0.00411761      -0.00017503
C        4.94220669       9.97726690       3.77518539       0.00597507       0.00217554       0.01379306
Tl       2.49203380       5.05308484       5.12048888      -0.00082521      -0.00057515      -0.01101262
O        3.50753430       4.85733767       6.95233309       0.01071574      -0.00769057       0.00806411
O        2.25403146       5.01917526       7.74698562      -0.00569824       0.00721691      -0.00490488
H        2.23528569       4.13958629       8.17600140       0.00201731       0.00338619       0.00211663
