51
Lattice="12.336457 0.0 0.0 -6.168228499999997 10.683685154694365 0.0 0.0 0.0 15.0" Properties=species:S:1:pos:R:3:initial_magmoms:R:1:forces:R:3 energy=-433.32088063836335 free_energy=-433.32088063836335 stress="-0.0025133233399172554 -0.002366627661760937 -6.739131958193453e-06 -0.002366627661760937 -0.0074607228054675585 1.6395302707914983e-05 -6.739131958193453e-06 1.6395302707914983e-05 -2.5548263881266346e-05" pbc="T T T"
C        0.05923113      -0.04853346       3.82596862       0.00000000       0.00371624      -0.00335820      -0.00698288
C       -1.19510004       2.08184306       3.59305215       0.00000000       0.00477465      -0.00455692       0.00126488
C       -2.45243520       4.22878793       3.71253082       0.00000000      -0.00043431       0.00367088      -0.00043921
C       -3.65887936       6.36126861       3.88613584       0.00000000       0.00016854       0.00170561       0.00048533
C       -4.86655918       8.49648035       3.95627594       0.00000000       0.00188079       0.00210515      -0.00058621
C        2.52810579      -0.08904257       3.70274340       0.00000000       0.00227703       0.00811205       0.00424529
C        1.26990599       1.94702325       3.19820318       0.00000000       0.00149873       0.00715646       0.00239252
C       -0.09060203       4.23298714       3.18147432       0.00000000       0.00133695      -0.00817074      -0.00109553
C       -1.18010703       6.35700187       3.68928667       0.00000000       0.00276871       0.00051535      -0.00454558
C       -2.38840535       8.47957365       3.86825202       0.00000000       0.00086278       0.00222641       0.01154005
C        4.99243625      -0.05826608       3.74071710       0.00000000       0.00163658      -0.00320613       0.00328304
C        3.75161455       1.99485150       3.17583721       0.00000000      -0.00447532       0.00156620      -0.00609415
S        1.62183494       6.22676154       3.26870949       0.00000000       0.00300497       0.01433366      -0.00432288
C        0.07860124       8.49314370       3.80768843       0.00000000       0.00337743      -0.00379593       0.00294406
C        7.44431750      -0.01635114       3.89375616       0.00000000      -0.00015239      -0.00189904      -0.00287864
C        6.19815194       2.10672834       3.63143797       0.00000000      -0.00257223      -0.00374489       0.00026992
C        4.99074016       4.28152428       3.38755731       0.00000000       0.00523458       0.00077717      -0.00422095
C        3.75533755       6.47757929       3.65390702       0.00000000      -0.00483576      -0.00454417      -0.00066801
C        2.53486179       8.56622517       3.92021090       0.00000000      -0.00380199      -0.00419410      -0.00725010
C        9.92910712      -0.01327555       3.93811281       0.00000000      -0.00530350      -0.00135565       0.00189202
C        8.66852700       2.10679574       3.81313992       0.00000000       0.00037943       0.00863147      -0.00738064
C        7.42210081       4.24111181       3.78765467       0.00000000      -0.00263615       0.00099513      -0.00038607
C        6.20315372       6.38334864       3.85270185       0.00000000       0.00710181      -0.00117430      -0.00348678
C        5.00619099       8.52656842       3.98840141       0.00000000      -0.00426130      -0.00438214      -0.00459953
C        0.04181407       1.35568634       3.55323811       0.00000000       0.00825622      -0.00089216       0.00776042
C       -1.24054391       3.49516574       3.49076622       0.00000000       0.00178225      -0.00523142       0.00921945
C       -2.43245895       5.64719131       3.77609783       0.00000000       0.00070168       0.00434873       0.00388049
C       -3.63660009       7.78050108       3.92110051       0.00000000       0.00021838       0.00054985       0.00682574
C       -4.87413704       9.91322276       3.85975139       0.00000000       0.00557056       0.00229044      -0.00035736
C        2.51979013       1.29040304       3.34332689       0.00000000      -0.00201615       0.00621424      -0.00130064
S        1.28233222       3.48019166       2.42028783       0.00000000      -0.00804786      -0.00030382      -0.00541886
C       -0.02713315       5.61076686       3.39270589       0.00000000       0.00013891      -0.00614030      -0.00372750
C       -1.15402584       7.77565904       3.79792901       0.00000000       0.00341229       0.00215499      -0.00232178
C       -2.39873244       9.90043009       3.79268119       0.00000000       0.00018704       0.00226930      -0.00162706
C        4.98148366       1.36291724       3.52687280       0.00000000      -0.00474323      -0.00202170      -0.00760374
P        3.83005054       3.51525217       2.29643053       0.00000000      -0.01024605       0.00085247       0.00726843
C        1.34335257       7.86436564       3.75379359       0.00000000      -0.00036052      -0.00214621      -0.00810006
C        0.05974378       9.93182517       3.84641427       0.00000000       0.00335470      -0.00429922      -0.00231184
C        7.43065339       1.40551358       3.80868314       0.00000000       0.00284866       0.00039490      -0.00953054
C        6.18802106       3.53782995       3.61613542       0.00000000       0.00060333      -0.00419718      -0.00571468
C        4.93261350       5.70989593       3.61980620       0.00000000       0.00259924      -0.00127242       0.00641621
C        3.76312096       7.82496081       3.89014760       0.00000000      -0.00642512      -0.00407659       0.00146083
C        2.51944765       9.97810090       3.97367023       0.00000000      -0.00450918      -0.00561372      -0.00412109
C        9.91912529       1.39871449       3.80735990       0.00000000      -0.00003224       0.00234553       0.00509897
C        8.65218505       3.52489049       3.79049694       0.00000000      -0.00169070       0.00940886       0.00943463
C        7.43020367       5.66184780       3.85920390       0.00000000       0.00340171      -0.00071774      -0.00369912
C        6.22827158       7.79567704       3.96747424       0.00000000       0.00162608      -0.00035144      -0.00385100
C        4.99499260       9.94699523       3.95710364       0.00000000      -0.00187417      -0.00063753       0.01114842
Tl       2.39358228       4.26501347       5.38768813       0.00000000      -0.00518058       0.00642861       0.01488928
O        1.41865192       5.25996741       8.59007452       1.00000000       0.00480220      -0.00931328       0.01286799
O        0.97875155       5.73785183       7.52885553       1.00000000      -0.00592374       0.00254345      -0.00996554
