52
Lattice="12.336457 0.0 0.0 -6.168228499999997 10.683685154694365 0.0 0.0 0.0 15.0" Properties=species:S:1:pos:R:3:forces:R:3 energy=-438.00352241586415 free_energy=-438.00352241586415 stress="5.076604061974952e-05 -0.003918206009600964 -7.768747943239307e-07 -0.003918206009600964 -0.009275106707713112 1.5571089298827658e-05 -7.768747943239307e-07 1.5571089298827658e-05 6.284463679021744e-06" pbc="T T T"
C        0.00617532      -0.20813589       4.00237673       0.01165592       0.00305964       0.00005564
C       -1.25298251       1.93211709       4.16842125       0.00090688       0.00860128       0.00094220
C       -2.49025573       4.07367315       3.97309061      -0.00633587       0.00301642       0.00361935
C       -3.69639678       6.20376940       3.79043320       0.00426563      -0.00855737      -0.00878774
C       -4.91217467       8.33665734       3.81897639      -0.00339787      -0.01048470       0.01069216
C        2.48347577      -0.26645722       3.98133091       0.00226039       0.00443103      -0.00317147
C        1.24817358       1.84366148       4.35558896       0.00477525       0.00223513       0.00871780
C       -0.05524823       4.07946923       4.30377601       0.00156709       0.00400392      -0.00704873
C       -1.20284712       6.18877918       3.79874225      -0.00982543      -0.00271388       0.00158059
C       -2.42848320       8.31220692       3.77562798      -0.00214802      -0.00812801       0.00330108
C        4.94247803      -0.22139644       3.76716427       0.00126293      -0.00276543       0.00854165
C        3.65717380       1.83930458       3.79229245       0.00769959      -0.00457962       0.00375232
S        1.61589171       5.99287795       3.52500324       0.00360953       0.01180464      -0.00185976
C        0.03645072       8.33137118       3.66103375       0.00349807      -0.00003798       0.00755411
C        7.39043395      -0.16488684       3.71953133      -0.00732570       0.00371171      -0.00686992
C        6.12801397       1.96309274       3.68941742       0.00184809      -0.00207237       0.00506229
C        4.93375898       4.13991081       3.51508217       0.00278265      -0.00147901       0.00259055
C        3.69413731       6.33168440       3.52877621      -0.01617926      -0.00077549      -0.00316724
C        2.48947429       8.43018164       3.60442956       0.00267674       0.00737115       0.00400433
C        9.87482532      -0.15819896       3.83364933      -0.00075114      -0.00668941       0.00397880
C        8.61084554       1.95964977       3.86982525       0.00193958      -0.00406264       0.00826400
C        7.37466096       4.09213505       3.75556757       0.00106201       0.00354592      -0.00862928
C        6.16241457       6.23825507       3.67686366       0.00484565       0.00656553       0.00434867
C        4.96415424       8.38907457       3.70443709      -0.00373362       0.00645301       0.00666738
C       -0.00728297       1.20555371       4.20975397       0.00547138       0.00851109      -0.00678464
C       -1.27213971       3.34990136       4.18171508      -0.00433554       0.01132987       0.00469871
C       -2.46492301       5.48898317       3.85583970      -0.00220015      -0.00390198      -0.00635534
C       -3.67840749       7.61955385       3.79167750      -0.00238002      -0.01311613      -0.00488053
C       -4.92906564       9.74247854       3.94765833       0.00750660      -0.00636841      -0.00197715
C        2.46647359       1.13977141       4.10252980      -0.00035821       0.00508705      -0.01673961
P        1.37404194       3.42083108       5.10385866       0.00859923      -0.00397556       0.00369736
C       -0.01805756       5.43124715       3.93022365      -0.01536239       0.00065802      -0.00041369
C       -1.19085898       7.60674043       3.71928220       0.00150157      -0.00438485      -0.00533196
C       -2.44400662       9.73240299       3.83161449       0.00077590      -0.00385270       0.00990115
C        4.91661257       1.21783193       3.73628743       0.00445748      -0.00314102      -0.00292508
S        3.40257112       3.43558184       3.21824888      -0.00794304      -0.01088084       0.00434178
C        1.30179956       7.70813059       3.58411264       0.00425859       0.00861514      -0.00562774
C        0.01331608       9.77111758       3.70345357      -0.00137006      -0.00035293      -0.00048270
C        7.36890107       1.26214000       3.75720513      -0.00027837       0.00069634      -0.00205155
C        6.12056277       3.39034906       3.65203903       0.00266969      -0.00092709       0.01052333
C        4.88133221       5.56654963       3.56550246       0.00341164       0.00278290      -0.00593671
C        3.72046691       7.69495248       3.59707684      -0.00319645       0.00319911      -0.00432176
C        2.47063780       9.83647742       3.70698256      -0.00764617       0.00325832      -0.00845964
C        9.85590435       1.24881338       3.96656187       0.00503556      -0.00558724      -0.00433582
C        8.60631595       3.37690220       3.87514876      -0.00297593      -0.00124761      -0.00093421
C        7.38705374       5.51013435       3.74567573       0.00474415       0.00344906      -0.00762820
C        6.18411258       7.65239717       3.72945268      -0.00819475       0.00503326       0.01009003
C        4.94499145       9.80157872       3.83943233       0.00760065       0.00513875       0.00443377
Tl       2.25128131       6.21058507       6.58910775      -0.01344569      -0.00377583       0.00057542
O        3.53960713       8.11063524       6.43103131       0.00157570      -0.00469382      -0.00917319
O        2.40480675       8.98589431       6.72487498       0.00892156       0.00129247      -0.00580066
H        2.80536993       9.50589211       7.44865238      -0.00380200      -0.00529883       0.00775985
