53
Lattice="12.336457 0.0 0.0 -6.168228499999997 10.683685154694365 0.0 0.0 0.0 15.0" Properties=species:S:1:pos:R:3:forces:R:3 energy=-460.66358821493986 free_energy=-460.66358821493986 stress="-0.0033777936971548976 -0.0014730005270852209 -0.00019441833186943834 -0.0014730005270852209 -0.0016310057147210946 -0.00013047437758350843 -0.00019441833186943834 -0.00013047437758350843 3.8360692535632457e-05" pbc="T T T"
C       -0.07557621      -0.05399214       3.71772301      -0.01504534      -0.00129510      -0.02230023
C       -1.31840065       2.07788848       3.71986293      -0.02077974      -0.00298778       0.01974527
C       -2.55516940       4.21570297       3.73022440      -0.01891819      -0.00644297       0.03175189
C       -3.78144249       6.35650444       3.73917044       0.01955235       0.01373586      -0.00333289
C       -5.00305947       8.49967265       3.73301532      -0.00690081      -0.00442452      -0.02524481
C        2.39231950      -0.05773568       3.68219460      -0.00742895      -0.00187037       0.04041749
C        1.15229441       2.06478323       3.73584124       0.00305877       0.00760811       0.01161065
C       -0.08963964       4.21506460       3.91184024       0.00837102      -0.01470589      -0.00064490
C       -1.33366135       6.36325503       3.84857524       0.00920340      -0.00877792      -0.03527080
C       -2.54908939       8.49603686       3.74980393      -0.00074588       0.01482395      -0.01744152
C        4.85637479      -0.05540161       3.72276419       0.00777232      -0.00559117       0.00039265
C        3.61482132       2.08260964       3.74621720      -0.00037163      -0.01845857       0.00555740
C        2.36588621       4.11373907       4.19517446       0.02890192      -0.01935505       0.01613949
C        1.05240054       6.38209970       4.31183244       0.00683619       0.00270144      -0.01572530
C       -0.08442339       8.48595920       3.87041261       0.00569728      -0.00666479       0.04637348
C        7.32269812      -0.06568853       3.77530693       0.00544618       0.02271421      -0.01063659
C        6.08129430       2.08560531       3.70984849      -0.00904794       0.00855043       0.01762578
C        4.83887674       4.24611621       3.80892429       0.00188655       0.00543903       0.02159427
N        3.71578363       6.41439243       3.76699224      -0.03823916      -0.00595339      -0.01132490
C        2.40159519       8.46635655       3.91305832       0.01094372      -0.02256577      -0.03160598
C        9.78856122      -0.06307190       3.75921096      -0.02563465      -0.00678272       0.01452692
C        8.55004144       2.07677910       3.69646659      -0.01222564       0.00938982       0.02878261
C        7.31208742       4.22031726       3.70194482       0.00819946       0.01470023       0.03582484
C        6.10580756       6.37332723       3.75767129      -0.00557192      -0.01415551      -0.01354633
C        4.87550396       8.50157537       3.77932302       0.01450345      -0.00815523       0.00067973
C       -0.08192383       1.36594621       3.70886202      -0.00555040       0.01158664       0.01273035
C       -1.31594260       3.50630310       3.76641553      -0.01328926      -0.00749312       0.01216692
C       -2.55406514       5.64224000       3.76161005       0.00912158       0.00238377      -0.00141821
C       -3.77557519       7.78100260       3.74252489       0.00271056       0.01015564      -0.03184596
C       -5.00822082       9.92183040       3.70198394      -0.01056174      -0.00173876       0.02415076
C        2.38802910       1.36752092       3.70636096      -0.00529048      -0.00914324      -0.00274387
C        1.15513476       3.50136421       3.89718897       0.01723398       0.00413409       0.02017450
C       -0.08516298       5.64948081       3.99477719       0.00319162      -0.00000445      -0.01161175
C       -1.31814784       7.78166448       3.82051732      -0.00339531      -0.00247965       0.01511935
C       -2.54378996       9.91722289       3.71193622      -0.00403721       0.00841910      -0.00729717
C        4.85088474       1.37306896       3.70782915      -0.00201284      -0.01144752       0.02791811
C        3.58820985       3.52893006       3.88866887       0.02041141      -0.01643120       0.00977129
C        1.15485411       7.74026592       4.03455180       0.00881800      -0.00049976      -0.05295367
C       -0.07919706       9.90913431       3.78555143       0.01875467       0.00334547      -0.02336974
C        7.31626908       1.36365386       3.71306940      -0.00655877       0.01690107       0.02804999
C        6.06418317       3.52307132       3.72524988       0.00031544       0.01224989       0.01716414
C        4.84500928       5.69329573       3.78298979      -0.03770679      -0.00731233      -0.04159571
C        3.65486070       7.75159525       3.82186780       0.01453104      -0.00442463      -0.03017273
C        2.39135136       9.88822358       3.81193029      -0.00745680      -0.02650665       0.01834341
C        9.78588243       1.36306014       3.71657018      -0.03288339      -0.00088705      -0.01377600
C        8.54703310       3.50431255       3.69011454      -0.00872015       0.00181007       0.02293498
C        7.32111031       5.64477279       3.72952420       0.01475833       0.00963312      -0.00395807
C        6.10349184       7.79159953       3.75712406      -0.00261083      -0.02272755      -0.01763720
C        4.85877068       9.91796666       3.76369803      -0.01806451      -0.00984151      -0.05929482
Tl       2.18257216       5.40749097       6.14629978      -0.03370747       0.05723381      -0.01933687
O        3.91070767       6.81963649       6.60437869       0.06055501       0.00121299       0.00406644
O        4.42120785       6.20454879       7.83302234      -0.01672048       0.00884190       0.01716708
H        4.00139925       6.78410483       8.49984172       0.06870202       0.02155353      -0.01669375
