52
Lattice="12.336457 0.0 0.0 -6.168228499999997 10.683685154694365 0.0 0.0 0.0 15.0" Properties=species:S:1:pos:R:3:forces:R:3 energy=-443.14579620477446 free_energy=-443.14579620477446 stress="0.007646684608410135 -0.0004995117999123121 1.121682033491212e-05 -0.0004995117999123121 -0.005194834247756348 -1.668053152410668e-05 1.121682033491212e-05 -1.668053152410668e-05 -4.513290560915999e-06" pbc="T T T"
C        0.07664575       0.12962583       3.89436218       0.01028468      -0.00027663       0.00078178
C       -1.12628685       2.30832016       3.79141177       0.00282826      -0.00082511       0.01036371
C       -2.32139996       4.43339334       3.80587808      -0.00533057      -0.00416702       0.00005655
C       -3.58042503       6.54652727       3.91756920       0.00091790       0.00538359       0.00753247
C       -4.85764488       8.66753672       3.98810723       0.00043814      -0.00256279       0.00454024
C        2.54738671       0.08460644       3.75233727      -0.00207390       0.00384562       0.00132407
C        1.32372187       2.23833164       3.65413283      -0.00333756       0.00114544      -0.00212350
C        0.22618167       4.40917980       3.75994209       0.00490537      -0.00072508       0.01087592
C       -1.05661896       6.54698551       3.88611810      -0.00448688      -0.00067864      -0.00355196
C       -2.36634731       8.66739351       3.85379633      -0.00075010       0.00240265       0.00565605
C        5.01115921       0.14951679       3.66923129      -0.00594011      -0.00293427       0.00724885
C        3.72561977       2.19692497       3.44046347      -0.00008791      -0.00628894      -0.00189660
C        1.44372361       6.63973870       4.03355257       0.00429861       0.00013307      -0.00435692
C        0.08660480       8.72189191       3.84042039      -0.00100166       0.00722936       0.00865234
C        7.47337069       0.20186004       3.75772143      -0.00099457      -0.00437586      -0.00308533
C        6.23091848       2.31397027       3.56380498       0.00543736      -0.00611940       0.00138036
C        5.03371656       4.47872862       3.60137776      -0.00625177       0.00257989       0.00953910
P        3.33234688       6.38403731       4.51372463       0.00226354      -0.00468622      -0.00394867
C        2.53401054       8.79906572       4.03916800      -0.00594478      -0.00039962       0.00044039
C        9.95840553       0.19554067       3.90095773      -0.00138814       0.00189071       0.00700465
C        8.72613885       2.32080217       3.72900846       0.00045513      -0.00035363       0.00399819
C        7.50161517       4.43937531       3.74478007      -0.00291593       0.00107307      -0.00179235
C        6.24259647       6.55347788       4.02740025       0.00865720      -0.00659653      -0.00231166
C        4.99703958       8.70408946       4.13332553      -0.00067894       0.00219927       0.00167898
C        0.08182371       1.55459261       3.78725935       0.00219730      -0.00197602       0.00315594
C       -1.07491795       3.72833554       3.78116204       0.00059038      -0.00047187      -0.00036082
C       -2.31368844       5.85023721       3.87035767      -0.00640117      -0.00184237      -0.01472442
C       -3.60351095       7.96310608       3.93464885      -0.00069905       0.00474342      -0.00343187
C       -4.86135569      10.07990144       3.89138702       0.00692586      -0.00208435       0.00059086
C        2.53844366       1.48825995       3.60626440      -0.00339085       0.00434506       0.00491412
C        1.38695295       3.61142431       3.59972684       0.00462169       0.00195654       0.00607817
C        0.24067709       5.86133695       3.90206065       0.00395731       0.00182931      -0.00599444
C       -1.11780543       7.96968127       3.85856000       0.00060627       0.00204886      -0.00205023
C       -2.37359979      10.08645843       3.75587403      -0.00647521      -0.00095714      -0.00352263
C        4.99516706       1.58335918       3.53589708       0.00138063      -0.00945823      -0.00648798
S        3.40448219       3.88667340       3.14242177       0.00293452       0.00457042      -0.00782882
C        1.32622066       8.04233215       3.96592874      -0.00375301       0.00175352      -0.00758586
C        0.08052566      10.14689995       3.75026167      -0.00322146       0.00454692      -0.00103552
C        7.47000138       1.61824275       3.67252365       0.00703728      -0.00641238      -0.01325861
C        6.24146179       3.73421501       3.59346200      -0.00254082      -0.00119151       0.00102305
C        4.99780777       5.82335595       3.97468378      -0.00218374       0.00376397       0.00881718
C        3.72298302       8.07085767       4.23800190      -0.00473376       0.00442371      -0.00727160
C        2.54375285      10.20010486       3.89560089      -0.00281302      -0.00158912      -0.00147901
C        9.96131816       1.61092238       3.80513195       0.00178875       0.00122406      -0.00238794
C        8.75149617       3.73720051       3.74823839      -0.00634217      -0.00084144       0.00490419
C        7.49965493       5.84958256       3.90450974       0.00675016       0.00051949      -0.00538845
C        6.23739142       7.97468675       4.09217001       0.00193294      -0.00821985      -0.00772228
C        5.00860408      10.12965841       3.99219627       0.00583283       0.00359162      -0.00541588
Tl       2.84008923       4.08889825       6.43271364      -0.00329533      -0.00527335       0.00863363
O        2.37165203       1.84516587       6.42171830       0.01222361       0.01147639       0.00492566
O        0.97380458       2.04936347       6.80805755       0.00172185      -0.00766841       0.00094516
H        0.95657401       1.46080258       7.58865065      -0.01395518       0.01029979      -0.00604825
