52
Lattice="12.336457 0.0 0.0 -6.168228499999997 10.683685154694365 0.0 0.0 0.0 15.0" Properties=species:S:1:pos:R:3:forces:R:3 energy=-442.8219493618602 free_energy=-442.8219493618602 stress="0.004442755188706828 0.005623564119879985 4.144188772936984e-05 0.005623564119879985 -0.008397085517564197 3.9832237544168994e-05 4.144188772936984e-05 3.9832237544168994e-05 4.136721485715351e-06" pbc="T T T"
C       -0.00966535      -0.01140509       3.64597310      -0.00062528       0.00102166       0.00926274
C       -1.19164185       2.17510669       3.53145861       0.00628622       0.00214382      -0.00401881
C       -2.45118446       4.29634258       3.62028681      -0.00108583      -0.00033643       0.01147912
C       -3.73273777       6.39359452       3.72582190       0.00443996      -0.00274735       0.00000445
C       -4.98637821       8.50436527       3.75916815       0.00307334      -0.00277889      -0.00344845
C        2.44787755      -0.06852948       3.63410574      -0.00496972      -0.00143552       0.00282454
C        1.28347073       2.04540500       3.38169425       0.00678946       0.00584921      -0.00313642
C        0.02098819       4.35716138       3.55706711      -0.00150383      -0.00263539      -0.00267923
C       -1.22015705       6.42519427       3.80600532       0.00982890      -0.00214691       0.00269997
C       -2.49652051       8.52407846       3.77450326      -0.00055855       0.00404761       0.00107717
C        4.92414694      -0.01576969       3.65059768      -0.00127080       0.00487156      -0.00429716
C        3.69613489       2.07531516       3.42928282      -0.00198078      -0.00131865       0.00474026
C        1.31389996       6.50259128       3.87633156       0.01048858      -0.00521003      -0.00274522
C       -0.03219171       8.57817827       3.80377731      -0.00698750       0.00337218       0.01321705
C        7.39167811       0.04319974       3.67603902       0.00267317       0.00778422       0.00458665
C        6.16941264       2.13425291       3.50470121      -0.00721610      -0.00407277       0.00283704
C        4.85300013       4.20777481       3.42780634      -0.00067301      -0.00532910       0.01371603
P        3.19921729       6.22231238       4.11137810      -0.00706796      -0.00081083       0.00227128
C        2.43002946       8.65312034       3.87286494       0.00181395       0.00221376      -0.00226945
C        9.87888364       0.05023673       3.69215697       0.00757289       0.00354490       0.00307868
C        8.65167598       2.16706734       3.56554274       0.00209163      -0.00149501       0.00299969
C        7.37957088       4.27075438       3.54870288      -0.00978818      -0.00378305       0.00377848
C        6.08077020       6.36854489       3.69614647      -0.00624221       0.00867556       0.01035437
C        4.88891079       8.54828659       3.83851290      -0.00144751       0.00047424      -0.00428155
C        0.02186333       1.42877665       3.51298082       0.00640659       0.00294977      -0.00334378
C       -1.18094725       3.60304060       3.55720419      -0.00097837       0.00190411       0.00143083
C       -2.46406486       5.70847927       3.72349135       0.00944612      -0.00006181       0.00062480
C       -3.73941115       7.80923969       3.76773765       0.00471277      -0.00275040      -0.00988392
C       -4.96744191       9.92796074       3.69280986      -0.00418277      -0.00612003      -0.00919699
C        2.47111700       1.33034482       3.47679331      -0.00014285      -0.00065219      -0.00316703
S        1.58817149       3.72792108       3.06551575       0.00391301      -0.00100141      -0.00033352
C        0.06688339       5.75392076       3.78593209       0.00746743      -0.00389206      -0.00551133
C       -1.25317131       7.84064510       3.81329699      -0.00465497       0.00015356      -0.00744421
C       -2.47905618       9.93363638       3.69921749      -0.00093900       0.00449963      -0.00350911
C        4.94460617       1.39450073       3.52740983      -0.00515367       0.00152630       0.00390787
C        3.66063817       3.43816050       3.33945077       0.00444045      -0.00544523      -0.00146902
C        1.21174292       7.90137158       3.86516363      -0.00411478      -0.00091653      -0.00614794
C       -0.01067790       9.99022193       3.71700165      -0.00145788       0.00528613      -0.00454081
C        7.41165505       1.44971487       3.57544405      -0.00164668       0.00544407      -0.00139327
C        6.14744198       3.54513510       3.45784272      -0.00705129      -0.00971355       0.00300458
C        4.84956087       5.62307965       3.63950483      -0.00144160       0.00015740      -0.00216363
C        3.61938207       7.91308736       3.95841414       0.00102976      -0.00308249      -0.00285615
C        2.46137683      10.05061161       3.74917565       0.00516695       0.00493224       0.00510422
C        9.90161838       1.47109071       3.59288912       0.00785332       0.00196399      -0.00503013
C        8.64146266       3.58376282       3.56575766      -0.00458306      -0.00215685       0.00513106
C        7.35597497       5.68505554       3.64891071      -0.00605554       0.00253870      -0.00239310
C        6.10514530       7.80071108       3.78378775      -0.00050552       0.00942118      -0.00529273
C        4.91910839       9.98338391       3.73662392       0.00156462      -0.00225049      -0.01049220
Tl       3.38407614       5.78092977       6.85602383       0.00086039      -0.00214444       0.00351442
O        2.60265191       4.34933978       8.37585855       0.00184524       0.00672722       0.00489075
O        2.63580134       5.35236720       9.47077866      -0.01065233      -0.00493581      -0.00247961
H        3.24069884       4.89065276      10.07978389      -0.00478716      -0.01227981      -0.00301126
