51
Lattice="12.336457 0.0 0.0 -6.168228499999997 10.683685154694365 0.0 0.0 0.0 15.0" Properties=species:S:1:pos:R:3:initial_magmoms:R:1:forces:R:3 energy=-437.6260324803568 free_energy=-437.6260324803568 stress="-0.004022137919739287 0.0014690516563298538 -1.7969134158311325e-05 0.0014690516563298538 -0.007044152202900874 -7.38237062008612e-06 -1.7969134158311325e-05 -7.38237062008612e-06 -4.2814771159777664e-05" pbc="T T T"
C        0.06164442       0.08381270       3.53390079       0.00000000      -0.00288475      -0.00365541       0.01052228
C       -1.17009725       2.21676385       3.59421205       0.00000000      -0.00108278      -0.00198059       0.00261918
C       -2.39810642       4.35123272       3.63211525       0.00000000      -0.01340108      -0.00474322       0.00209312
C       -3.63911865       6.48335569       3.58938569       0.00000000       0.00554472       0.00280651      -0.00120194
C       -4.88789137       8.61565010       3.50671751       0.00000000       0.00639283      -0.00465564      -0.00022045
C        2.52471651       0.07688050       3.61919679       0.00000000      -0.00086211      -0.00458249       0.01348550
C        1.29609517       2.23018745       3.76375812       0.00000000       0.00419173       0.00032054       0.00276757
C        0.06773668       4.31413994       3.93451117       0.00000000      -0.00139428       0.00707781      -0.00918532
C       -1.17808854       6.48434493       3.88577962       0.00000000      -0.00576238      -0.00192346       0.00928340
C       -2.40925182       8.62007716       3.69959550       0.00000000      -0.00447360      -0.00549497      -0.00106978
C        4.99546931       0.07645747       3.65444546       0.00000000      -0.00068096      -0.00230894      -0.00187359
C        3.76425913       2.22738868       3.64669084       0.00000000      -0.00172882      -0.00184101       0.00140825
P        1.43305330       6.45740230       4.82214808       0.00000000       0.01683798      -0.00501078       0.00095563
C        0.05692865       8.63988013       3.87084489       0.00000000      -0.00255749       0.00515267       0.00104630
C        7.45998782       0.09502252       3.63185327       0.00000000      -0.00124176       0.00143517       0.00287217
C        6.24121397       2.20135882       3.56457970       0.00000000       0.00137175       0.00116310       0.00747166
C        4.99860764       4.30643663       3.50782198       0.00000000      -0.00050067      -0.00069948      -0.00334152
S        3.50376605       6.35913781       2.89850822       0.00000000      -0.00119529       0.00392592      -0.01852670
C        2.52508825       8.68147248       3.68677304       0.00000000       0.00166219       0.00482048       0.00462648
C        9.93690434       0.09642512       3.52375441       0.00000000      -0.00959773      -0.00230407       0.00318929
C        8.70497883       2.21986358       3.54286289       0.00000000      -0.00312336      -0.00559119      -0.00106448
C        7.47565167       4.34628593       3.51560560       0.00000000      -0.00270659       0.00829879       0.00127257
C        6.21796435       6.47804770       3.39146085       0.00000000       0.00925176      -0.00135032       0.00086901
C        4.98451910       8.62609053       3.40673819       0.00000000       0.00910575       0.00466461       0.00351185
C        0.05502107       1.50203840       3.61760285       0.00000000       0.00279548      -0.00169272      -0.00267855
C       -1.17589679       3.62910960       3.69140377       0.00000000      -0.00584622       0.00083671      -0.01703606
C       -2.40817397       5.77434686       3.69320990       0.00000000      -0.00515376      -0.00249853       0.00849370
C       -3.64593273       7.90838820       3.59783419       0.00000000       0.00178021      -0.00541719      -0.00232467
C       -4.87858897      10.04394052       3.55220848       0.00000000      -0.00006409      -0.00549523      -0.00762184
C        2.52688532       1.49443338       3.68513490       0.00000000      -0.00223910       0.00114301       0.00362575
C        1.26646579       3.59410191       4.03356545       0.00000000      -0.00128470       0.00362879       0.00586567
C        0.00838858       5.73848101       4.11174393       0.00000000       0.00481966       0.00377069      -0.00484585
C       -1.17766146       7.91487783       3.85114554       0.00000000      -0.00527073      -0.00140217      -0.00081480
C       -2.40964033      10.04345851       3.65678642       0.00000000      -0.00045448      -0.00529776      -0.00717855
C        5.01066924       1.49278313       3.60243064       0.00000000       0.00047042      -0.00007649      -0.00427134
C        3.79947972       3.61444572       3.71511195       0.00000000      -0.00455209      -0.00151588       0.01250047
C        1.31397595       7.98544445       3.98703630       0.00000000       0.00042247       0.00273037      -0.00297164
C        0.05985152      10.05991596       3.70846365       0.00000000       0.00098362       0.00494166      -0.00526960
C        7.47468045       1.50479136       3.56732438       0.00000000      -0.00097139      -0.00243065       0.00908963
C        6.25559906       3.61651128       3.52432436       0.00000000       0.00037577       0.00084625      -0.00030039
C        5.03511437       5.72123697       3.31957978       0.00000000       0.00568242      -0.00519970      -0.00090422
C        3.72706872       7.98813030       3.40599638       0.00000000       0.00861957       0.00646581       0.00497594
C        2.53115830      10.09017356       3.60648478       0.00000000      -0.00587398       0.00251646       0.00374229
C        9.93368656       1.51198213       3.53845374       0.00000000      -0.00167617      -0.00428576      -0.00676501
C        8.70931013       3.64071715       3.54999007       0.00000000      -0.01173999      -0.00420124       0.00279205
C        7.46775935       5.76899728       3.49790992       0.00000000       0.00975871       0.00831198      -0.01344326
C        6.21333221       7.90495940       3.40328615       0.00000000       0.00992730       0.00085770      -0.00666496
C        4.99586678      10.06024864       3.48407222       0.00000000      -0.00654284       0.00444250      -0.00751576
Tl       2.75599073       4.18913927       5.93663075       0.00000000      -0.00058635       0.00404269      -0.00867470
O        1.18029871       3.10426834       9.33352607       1.00000000       0.00095743       0.00087410       0.01010411
O        1.06520643       2.27545328       8.41903958       1.00000000       0.00449779       0.00058058       0.00658110
