51
Lattice="12.336457 0.0 0.0 -6.168228499999997 10.683685154694365 0.0 0.0 0.0 15.0" Properties=species:S:1:pos:R:3:initial_magmoms:R:1:forces:R:3 energy=-433.4753798928306 free_energy=-433.4753798928306 stress="-0.0009657053627204126 -0.0050717031366452935 2.1766137197033324e-05 -0.0050717031366452935 -0.007866708074312966 -2.254748344243716e-05 2.1766137197033324e-05 -2.254748344243716e-05 -5.946568949954349e-07" pbc="T T T"
C        0.04419151      -0.06923521       3.70767476       0.00000000       0.00799887       0.00184129      -0.00093503
C       -1.22563283       2.06326906       3.94527285       0.00000000      -0.00506223      -0.00885800       0.00844252
C       -2.45523959       4.21112823       3.71434674       0.00000000      -0.00197986       0.00176846      -0.00498153
C       -3.64651885       6.34407041       3.44842970       0.00000000      -0.00578540       0.00344919       0.00935270
C       -4.86442792       8.48490436       3.44999081       0.00000000       0.00434416       0.00272657      -0.00147957
C        2.51712900      -0.13283391       3.82392021       0.00000000      -0.00760788       0.00129167       0.00061967
C        1.25124101       1.93774457       4.36285542       0.00000000      -0.00223084       0.00088356       0.00436347
C       -0.05853790       4.21276978       4.24098293       0.00000000       0.00226481       0.00225322      -0.00337452
C       -1.15794281       6.32057976       3.60333358       0.00000000      -0.00467239       0.00084633       0.00643539
C       -2.38380887       8.45235533       3.52843750       0.00000000       0.00246063      -0.00557089       0.00645491
C        4.98073368      -0.08201512       3.65928629       0.00000000      -0.00408099      -0.00690060      -0.00928941
C        3.70399629       1.96246146       3.97559531       0.00000000       0.00030919      -0.00017392      -0.00048740
S        1.64740028       6.12483888       3.46785735       0.00000000       0.00139014       0.00974518      -0.00482032
C        0.08058029       8.46840849       3.47029404       0.00000000       0.00276019      -0.00153069       0.01257063
C        7.42411641      -0.02357175       3.50067055       0.00000000       0.00320917      -0.00198239       0.00168251
C        6.15729014       2.10790615       3.61921454       0.00000000       0.00105572       0.00630038      -0.01011639
C        4.98457720       4.30162572       3.48028869       0.00000000      -0.00133597       0.00044717      -0.00560599
C        3.74788162       6.47590991       3.26633297       0.00000000      -0.00446560      -0.00341448      -0.00360069
C        2.52730834       8.57205843       3.29750520       0.00000000      -0.01049479      -0.00648907       0.00193596
C        9.91261634      -0.01700961       3.51549420       0.00000000      -0.00011430      -0.00544698      -0.00287848
C        8.64454949       2.09917669       3.62563714       0.00000000      -0.00154879      -0.00119345      -0.00049526
C        7.41852576       4.23507526       3.48602182       0.00000000       0.01089726      -0.00457062      -0.01079847
C        6.22013369       6.38814288       3.27836345       0.00000000       0.00935149      -0.00235976      -0.01101843
C        5.01230047       8.54060437       3.29296361       0.00000000      -0.00462894       0.00418838       0.00590064
C        0.01918056       1.32774769       4.02528225       0.00000000       0.00066284      -0.00442593       0.00052134
C       -1.25276852       3.48349473       3.99292899       0.00000000       0.00077153      -0.00510885      -0.00376718
C       -2.42188867       5.62540664       3.58505024       0.00000000      -0.00865656       0.00952544       0.00196305
C       -3.63140226       7.76225623       3.45947525       0.00000000       0.00136158      -0.00440944       0.00322673
C       -4.88878938       9.88376496       3.65740610       0.00000000       0.00118659      -0.00135352      -0.00840324
C        2.49036640       1.25253182       4.12038300       0.00000000      -0.00595419       0.00575940      -0.00429367
P        1.19311368       3.46091492       5.25636121       0.00000000       0.01560707      -0.00080575      -0.00355428
C        0.01223403       5.55844078       3.83558481       0.00000000       0.00062395       0.00061174       0.00064188
C       -1.14500721       7.74074250       3.50842808       0.00000000       0.00585128      -0.00526212       0.01502985
C       -2.40512978       9.87177899       3.66317055       0.00000000      -0.00784378      -0.00356481       0.00204016
C        4.95164591       1.35792441       3.74712006       0.00000000       0.00161400       0.00285390      -0.00603090
S        3.45981321       3.64404071       3.82032165       0.00000000      -0.00421831      -0.00075814      -0.00395801
C        1.34443072       7.84307483       3.39175277       0.00000000       0.00002190       0.00107578      -0.00170469
C        0.04971466       9.91141692       3.52372782       0.00000000       0.00163890       0.00099847       0.00485319
C        7.39920156       1.40337790       3.57339209       0.00000000      -0.00238573       0.00014966      -0.00007108
C        6.16187880       3.53385371       3.52228914       0.00000000       0.00691058      -0.00123698      -0.00395223
C        4.93676209       5.71743935       3.28969297       0.00000000       0.00883579      -0.00089743       0.00480650
C        3.76426067       7.84234146       3.23253651       0.00000000      -0.00548375      -0.00023452       0.00341565
C        2.50552457       9.98038259       3.40430768       0.00000000       0.00246970      -0.00426320       0.00820882
C        9.89137145       1.38600779       3.69254624       0.00000000      -0.00359241      -0.00553607       0.00117652
C        8.64402909       3.51631085       3.60876852       0.00000000       0.00880594      -0.00104274      -0.00256745
C        7.43850103       5.65254933       3.38919269       0.00000000       0.00353531      -0.00238571       0.00098106
C        6.23635502       7.80432137       3.30505841       0.00000000      -0.00254825       0.00919399       0.00908637
C        4.98747593       9.94757890       3.48214433       0.00000000       0.00306391       0.01150058      -0.00207093
Tl       2.92405460       5.75050754       6.19653796       0.00000000      -0.00672893       0.00609951      -0.01710051
O        1.61882143       6.83879895       9.29497636       1.00000000      -0.00729423       0.00245554      -0.00171338
O        1.36638782       7.40029904       8.21258101       1.00000000      -0.00028836       0.00381067       0.01535951
