52
Lattice="12.336457 0.0 0.0 -6.168228499999997 10.683685154694365 0.0 0.0 0.0 15.0" Properties=species:S:1:pos:R:3:forces:R:3 energy=-447.95978629209566 free_energy=-447.95978629209566 stress="-0.005451883532763304 -0.0018896190620705492 5.139488443497924e-05 -0.0018896190620705492 0.0028208078953841655 6.958503191716241e-05 5.139488443497924e-05 6.958503191716241e-05 -4.262033166419124e-06" pbc="T T T"
C        0.01227263      -0.00385988       3.70358854       0.00485687       0.00534803      -0.00182976
C       -1.25094703       2.10524525       3.66730073       0.00502685       0.01368811      -0.00927071
C       -2.47469442       4.26050874       3.62026370      -0.00291824      -0.00144452       0.00396112
C       -3.68313542       6.41248234       3.60365981      -0.00162168      -0.01201806       0.00587493
C       -4.90717036       8.56337396       3.65007723       0.01328603      -0.00203629      -0.00160004
C        2.47155025       0.04558092       3.77937371      -0.00331688       0.00697899      -0.00407245
C        1.19473506       2.12588118       3.76384184       0.00591742      -0.00065144      -0.00017412
C       -0.05380180       4.22552579       3.73267250       0.00096863      -0.00712197      -0.00824730
C       -1.23740905       6.39667032       3.70795136      -0.00375856       0.00376872      -0.00710657
C       -2.45858497       8.56005932       3.71797487      -0.00662183       0.00787344      -0.00213020
C        4.93997648       0.00463211       3.83029767      -0.00654902       0.00436311       0.00145766
C        3.70554702       2.20221347       3.99400418      -0.00293968      -0.00782084      -0.00026441
C        1.12651261       6.37311072       4.20702502      -0.00117910      -0.00424809      -0.00719677
C        0.00418432       8.52132385       3.86645639      -0.00112131       0.01036148       0.00517178
C        7.41047928      -0.03625552       3.81680840       0.00161128      -0.00510461      -0.01040114
C        6.17931561       2.12174744       3.78920654       0.00399973       0.01024644       0.00449038
C        4.95598340       4.27100820       3.90511990      -0.00033608       0.00022298       0.00598885
N        3.84781642       6.44670212       3.93392948      -0.00050925      -0.00184393      -0.00091942
C        2.48526324       8.48456735       3.92046958      -0.00577575      -0.00608296      -0.00477913
C        9.86809319      -0.04060801       3.74397446       0.00332056      -0.00138582      -0.00667650
C        8.63263311       2.10911594       3.68172178      -0.00013635      -0.00055132       0.00117067
C        7.41441633       4.26174356       3.64258666       0.01029699       0.01049702      -0.00342452
C        6.21570380       6.42308529       3.65271260       0.00146965       0.00511261       0.00057677
C        4.96908430       8.53933419       3.71915602      -0.00003792      -0.00883325       0.00474963
C       -0.00891288       1.41700628       3.70607736       0.00431684       0.01006230       0.00298559
C       -1.25073697       3.53020874       3.65516679      -0.00299428       0.00743123      -0.01032919
C       -2.45924707       5.68721037       3.62213617      -0.00216782      -0.00580354      -0.00900645
C       -3.68037472       7.84323557       3.64277183       0.00432930      -0.01099982       0.00429856
C       -4.91539429       9.99551597       3.70500096       0.00403716       0.00352600       0.00120704
C        2.44897220       1.48162525       3.86471260       0.00075399      -0.00208611       0.00968024
O        1.12947404       3.50509379       3.69196529      -0.00002008      -0.00701226       0.00051073
C        0.00028884       5.65660561       3.83604440      -0.00421781      -0.00791088       0.00686309
C       -1.22910127       7.82507902       3.76171657      -0.00294631       0.01244315      -0.00771775
C       -2.46402131       9.99052668       3.78285293      -0.00982667       0.00824628       0.00216395
C        4.93746125       1.43443535       3.87331273       0.00078752       0.00247660       0.00608326
C        3.81286697       3.57601403       4.23898406      -0.00665902      -0.00643327      -0.01541273
C        1.23681715       7.75343401       4.00307661      -0.00578176      -0.00052357       0.00405264
C        0.00616359       9.94951952       3.83831526      -0.00304862       0.00713315       0.00550912
C        7.41016429       1.39120481       3.75281341      -0.00074872      -0.00169250       0.00306398
C        6.19299471       3.54754511       3.74653839       0.01030381       0.01380725       0.00508748
C        4.98362064       5.73668512       3.80988735       0.00043656       0.00306364       0.00267673
C        3.75444848       7.79145253       3.85091469      -0.00673047      -0.00320520       0.00871543
C        2.47460738       9.91013915       3.82549702       0.00112301      -0.00658790      -0.00559026
C        9.86545127       1.39046650       3.68703183       0.00634156       0.00553380       0.01022272
C        8.63753419       3.54070906       3.62873560       0.00159644       0.00006413       0.00721736
C        7.43000913       5.69338654       3.61349801      -0.00041396       0.00384363      -0.00306380
C        6.20357570       7.84492988       3.65068849       0.00967849       0.00108923      -0.00151710
C        4.94421409       9.95516782       3.71535307       0.00487307      -0.00765471       0.00390287
Tl       2.46908568       4.99526646       5.22992127       0.00383685      -0.00708436      -0.00355193
O        3.13093187       5.65516375       7.15116777      -0.00306417      -0.01589636       0.01000006
O        2.00178384       5.08560542       7.93308366      -0.00041473      -0.01114757      -0.00261544
H        2.51052907       4.46179062       8.48676873      -0.01731251      -0.00400018      -0.00078494
