53
Lattice="12.336457 0.0 0.0 -6.168228499999997 10.683685154694365 0.0 0.0 0.0 15.0" Properties=species:S:1:pos:R:3:forces:R:3 energy=-454.9458050614181 free_energy=-454.9458050614181 stress="-0.0015617086529833327 0.0066624444875427215 -5.3928582414471225e-06 0.0066624444875427215 -0.0010034445660432054 3.227050985523189e-05 -5.3928582414471225e-06 3.227050985523189e-05 -1.1940954903519856e-05" pbc="T T T"
C        0.11233769      -0.07846288       3.84034458      -0.01208392       0.00423321      -0.00205498
C       -1.08076452       2.07844549       3.87782832      -0.00345938       0.00050544       0.01222098
C       -2.30768583       4.19975203       3.85606733       0.00829443      -0.00146799       0.00931752
C       -3.59365809       6.32021104       3.79275747       0.00609163       0.00100384      -0.00144620
C       -4.85829552       8.44508637       3.77869141       0.00009695       0.00522765       0.00387525
C        2.56533273      -0.09138764       3.82976160       0.00402755      -0.00304666       0.00415920
C        1.37931557       2.09475755       3.80547477       0.00983234       0.00174570      -0.01522188
C        0.17490733       4.26446950       3.85762089      -0.01031955       0.00639757       0.01371979
C       -1.13486436       6.34946151       3.87577750      -0.00039734       0.00119140      -0.00106349
C       -2.38014103       8.46332326       3.85615309       0.00115821       0.00729962      -0.01266424
C        5.04447142      -0.08923129       3.88950176       0.00013170      -0.00730095       0.00176814
C        3.83641451       2.01651796       3.76858985       0.00338939       0.00046434       0.00385887
C        2.71210397       4.17107014       3.62741854       0.00445644       0.00693710      -0.00323725
O        1.18034414       6.44108187       4.22174139       0.00591128       0.00208277       0.00724032
C        0.08036918       8.47701162       3.91974652      -0.00590327      -0.00386276       0.00008674
C        7.52224530      -0.09203216       3.96075884       0.00891280       0.00735345      -0.00420785
C        6.32258424       2.01932499       3.84679335      -0.01538351      -0.01342086       0.00440518
C        5.12593490       4.11589361       3.61643586       0.00862002      -0.00615945      -0.00190148
S        3.48491342       6.04479201       3.35139400      -0.01636814      -0.00393004       0.00261561
C        2.53222506       8.44467480       3.93160030       0.00075687      -0.00049454      -0.01003267
C        9.99255274      -0.08591903       3.92624696       0.00708095      -0.00395065       0.01418131
C        8.78804627       2.04848253       3.90975884       0.00404325       0.00331853      -0.01578664
C        7.56497203       4.17171094       3.77706951       0.00396704       0.00050904      -0.00004139
C        6.27186006       6.29562818       3.64758406      -0.01560742       0.00421440      -0.00142269
C        5.00339647       8.42826087       3.77477916      -0.00400057      -0.00088976      -0.00589297
C        0.14247557       1.36408322       3.84623214      -0.00062112       0.00695947       0.01855487
C       -1.05442070       3.51811405       3.87017037      -0.00259238      -0.00153802      -0.00915753
C       -2.35056478       5.61705086       3.83567338       0.00988881      -0.00480927       0.01010177
C       -3.61623360       7.74435145       3.80510179       0.00625047       0.00616804      -0.00232072
C       -4.83845302       9.87874170       3.81527248      -0.00612507       0.00687577       0.00150873
C        2.58325527       1.33940288       3.80532899       0.01148383      -0.00398836       0.00115900
C        1.44626148       3.56373228       3.76311953      -0.00211039       0.01114420      -0.00006706
C        0.08539310       5.67426518       3.92940609      -0.00060843       0.00470893       0.00676306
C       -1.15572068       7.76595894       3.88693374      -0.00990996      -0.00028480      -0.00656122
C       -2.37159609       9.88835552       3.85926221       0.00389143       0.00082225       0.01164731
C        5.07191077       1.32110789       3.84270479      -0.01188315      -0.01082308      -0.00624117
C        3.86938084       3.43411273       3.64331137       0.00597126      -0.00038322       0.01111920
C        1.27392258       7.78571278       3.95536251       0.00183692      -0.00165284      -0.01282812
C        0.10835773       9.89820148       3.93110118       0.00324321       0.00011440      -0.00677359
C        7.54982323       1.32733791       3.92153582      -0.00362389       0.00633860      -0.00823371
C        6.35187926       3.43267940       3.74927389       0.00601431      -0.01248806      -0.00580318
C        5.10847910       5.50377632       3.53598916      -0.01122582      -0.00348145      -0.00408027
C        3.75208325       7.75949333       3.77110022      -0.00059852       0.00285419      -0.00088447
C        2.57812862       9.87690947       3.96327871       0.00994626      -0.00023201      -0.00502980
C       10.01882184       1.34863040       3.91709025       0.00113658      -0.00310363       0.00172667
C        8.79900489       3.47127931       3.85224629       0.00847609       0.00205977       0.01289550
C        7.52664460       5.59327949       3.73336038      -0.00629974       0.00482502      -0.00710173
C        6.24459018       7.72170890       3.71758536      -0.00310166       0.00302665      -0.00030833
C        5.04245082       9.87998927       3.86005755      -0.00493101      -0.00557144      -0.00611184
Tl       3.50552463       5.65034462       6.52965739       0.00430274       0.00686213       0.00564958
O        2.06195378       7.46199434       6.53776717       0.01560141       0.00456725      -0.01893444
O        0.90022269       6.66598732       6.86717675      -0.01274008      -0.00686634       0.00589523
H        0.56650073       7.18910059       7.62339106      -0.00491986      -0.02006451       0.01094108
