52
Lattice="12.336457 0.0 0.0 -6.168228499999997 10.683685154694365 0.0 0.0 0.0 15.0" Properties=species:S:1:pos:R:3:initial_magmoms:R:1:forces:R:3 energy=-453.9063971907169 free_energy=-453.9063971907169 stress="0.0016625658392588223 0.006054580834463136 8.46433730422612e-06 0.006054580834463136 -0.0019331174653677847 1.7459457697370384e-05 8.46433730422612e-06 1.7459457697370384e-05 -9.690139229809572e-06" pbc="T T T"
C        0.01631547       0.03194558       3.59018369       0.00000000      -0.00666610       0.00853498      -0.00364571
C       -1.17404521       2.19470367       3.62203589       0.00000000      -0.00012824      -0.00069640      -0.01008204
C       -2.40207153       4.31921581       3.67027427       0.00000000       0.00432213       0.00307680      -0.00358455
C       -3.68795080       6.43741052       3.66510410       0.00000000      -0.00023872      -0.00681393       0.00071921
C       -4.95058258       8.55966295       3.61138803       0.00000000       0.00308306      -0.00479663       0.00178299
C        2.47262113       0.02052734       3.68084339       0.00000000      -0.00035969      -0.00237586       0.00022795
C        1.28742681       2.20271083       3.56649466       0.00000000       0.00316301       0.00225702       0.00312564
C        0.08659319       4.35654207       3.55342634       0.00000000      -0.00122035      -0.00156068       0.00118163
C       -1.19702170       6.46330612       3.66921222       0.00000000      -0.00095265       0.00610942       0.00545465
C       -2.47260071       8.57748686       3.72380997       0.00000000      -0.00002416      -0.00383772      -0.00009948
C        4.95046150       0.02565198       3.79025028       0.00000000       0.00230415       0.00267339      -0.00175304
C        3.73911300       2.12787438       3.69902536       0.00000000      -0.00430217       0.00941690      -0.00043520
C        2.62144215       4.32033860       3.38888039       0.00000000       0.00072826      -0.00736887      -0.01734954
N        1.23577851       6.53211130       3.63480299       0.00000000       0.00309179      -0.00020846       0.00017781
C       -0.00969365       8.59617739       3.73431985       0.00000000      -0.00097470       0.00103068       0.01026821
C        7.42896968       0.04136182       3.76886286       0.00000000       0.00345587      -0.00602558       0.00534362
C        6.21995449       2.14759453       3.79342590       0.00000000      -0.00037601      -0.00966591       0.00002000
C        5.01306524       4.23975977       3.62209666       0.00000000       0.00282828      -0.00218375       0.00643470
P        3.25550817       6.08011874       3.02238245       0.00000000       0.00868078      -0.00580160       0.00544300
C        2.45594472       8.60645027       3.58428924       0.00000000      -0.00547240       0.00968020       0.00177370
C        9.90290054       0.04611177       3.64292081       0.00000000       0.00230706      -0.00189149       0.00622461
C        8.69205271       2.17622328       3.73642041       0.00000000       0.00408542      -0.00212307      -0.00163531
C        7.46198631       4.29726956       3.71101351       0.00000000      -0.00573661       0.00397247       0.00370545
C        6.15091582       6.40691988       3.54348286       0.00000000      -0.00447281       0.00459411      -0.01194446
C        4.90130575       8.54394407       3.49684767       0.00000000      -0.00512672       0.00110966       0.00027409
C        0.04939384       1.47559985       3.58839705       0.00000000       0.00062137       0.00885929       0.00204303
C       -1.15087944       3.62922605       3.61779355       0.00000000       0.00075957      -0.00229642      -0.00415371
C       -2.42957148       5.74047791       3.67236188       0.00000000       0.00305742       0.00194085      -0.00363527
C       -3.70799236       7.86047626       3.66873084       0.00000000       0.00402210      -0.00996166      -0.01012725
C       -4.93150953       9.98976791       3.62258570       0.00000000      -0.00683755       0.00086685       0.00169959
C        2.49055156       1.44608871       3.65236402       0.00000000       0.00143274       0.00220418      -0.00491571
C        1.34016751       3.65909326       3.48565559       0.00000000       0.00129722      -0.00137584       0.00053086
C        0.06646769       5.79410087       3.60169962       0.00000000      -0.00292442       0.00055306       0.00132905
C       -1.23488054       7.87731534       3.72550132       0.00000000      -0.00207828       0.00388116       0.00078736
C       -2.46320847       9.99976115       3.74214780       0.00000000       0.00284673      -0.00308818       0.00341833
C        4.97383027       1.43638678       3.78268902       0.00000000      -0.00695284       0.00424033       0.00288800
C        3.77192909       3.53598967       3.58633466       0.00000000       0.00191012       0.00652828       0.00939521
C        1.20564320       7.90154477       3.63877231       0.00000000      -0.00118182       0.00130591       0.00418905
C        0.01569349      10.01495180       3.78388565       0.00000000       0.00248705      -0.00085256       0.00174624
C        7.45128259       1.45677633       3.78549388       0.00000000       0.00364984      -0.00660707       0.00254375
C        6.24258994       3.56291363       3.73879492       0.00000000      -0.00001355      -0.00784228      -0.00349073
C        4.93706850       5.63532900       3.46372842       0.00000000       0.00084909      -0.00283794      -0.00543566
C        3.63036773       7.85121993       3.42610303       0.00000000      -0.00774610       0.00652911       0.01098984
C        2.48931118      10.02425265       3.68075965       0.00000000       0.00335209       0.00557241       0.00203759
C        9.92468908       1.47434923       3.67460800       0.00000000       0.00340681      -0.00414275      -0.00217086
C        8.70124423       3.59889727       3.71669733       0.00000000       0.00089340       0.00428780       0.00555428
C        7.41712079       5.71882821       3.64246319       0.00000000      -0.00678503       0.00425217      -0.00582774
C        6.14785208       7.83837518       3.53618824       0.00000000       0.00110345       0.00022092      -0.01384156
C        4.94583282       9.99203248       3.57076100       0.00000000      -0.00237144       0.00013478      -0.00172948
Tl       3.00216698       6.03713349       5.83202241       0.00000000       0.01014417      -0.00618432       0.00317887
O        1.96809053       5.63111839       9.37701400       1.00000000      -0.00173233      -0.00784769       0.00214856
O        2.39610973       4.56330331       8.91175756       1.00000000      -0.00520830       0.00455395      -0.00077957
