51
Lattice="12.336457 0.0 0.0 -6.168228499999997 10.683685154694365 0.0 0.0 0.0 15.0" Properties=species:S:1:pos:R:3:initial_magmoms:R:1:forces:R:3 energy=-438.633567991276 free_energy=-438.633567991276 stress="0.005955818967741444 -0.00030699312811435553 3.231367458464644e-05 -0.00030699312811435553 -0.0065079761268925 -5.044677547847686e-06 3.231367458464644e-05 -5.044677547847686e-06 2.4636942301937308e-05" pbc="T T T"
C        0.06605579      -0.00633233       3.72888851       0.00000000      -0.00585201      -0.00011725       0.00160908
C       -1.13886487       2.17334414       3.63421629       0.00000000      -0.00522073       0.00019566      -0.00011385
C       -2.33480443       4.29939661       3.63784028       0.00000000      -0.01050477       0.00362931       0.00331241
C       -3.59233933       6.41275938       3.74328838       0.00000000       0.00736263      -0.00840632       0.00745566
C       -4.86953879       8.53174219       3.81399919       0.00000000       0.00873357       0.00351886       0.01372919
C        2.53638769      -0.05137330       3.58474196       0.00000000      -0.00270582       0.00368629       0.01180461
C        1.31052864       2.10457608       3.49892042       0.00000000       0.00722333      -0.00696095       0.00461633
C        0.20732382       4.27762622       3.62010031       0.00000000       0.00206552      -0.00138312      -0.00071826
C       -1.07165896       6.41551105       3.72091659       0.00000000      -0.00177036       0.00635758      -0.00316165
C       -2.37898977       8.53376328       3.68333146       0.00000000      -0.00323501      -0.00257429       0.00387818
C        5.00036583       0.01380135       3.49178318       0.00000000      -0.00100118      -0.00645261       0.00647810
C        3.71839757       2.06169047       3.26679609       0.00000000       0.00453430       0.00598884       0.00771722
C        1.42765258       6.50909832       3.86473118       0.00000000      -0.00802468       0.00308833       0.00223846
C        0.07329712       8.58951670       3.67721500       0.00000000       0.00237429      -0.00735009      -0.00382418
C        7.46232349       0.06589468       3.58064581       0.00000000       0.00601035       0.00845473      -0.00823978
C        6.22334884       2.17689592       3.37002748       0.00000000      -0.00526836       0.00846217       0.00645252
C        5.03416331       4.34508098       3.39892462       0.00000000       0.00653386      -0.01119660      -0.00336319
P        3.32434795       6.24400887       4.30980119       0.00000000      -0.00004182       0.01089272       0.00651012
C        2.52124259       8.66569151       3.86841743       0.00000000      -0.00093382      -0.00380772      -0.00289203
C        9.94685020       0.05972847       3.72591456       0.00000000      -0.00078565      -0.00284391       0.01402369
C        8.71566311       2.18461735       3.54969865       0.00000000       0.00193070       0.00158449       0.00992373
C        7.49391918       4.30376977       3.56340820       0.00000000      -0.00031560       0.00147162      -0.00525670
C        6.23418980       6.41706062       3.84934114       0.00000000      -0.00376447       0.00253879      -0.00262340
C        4.98551628       8.56797854       3.95598144       0.00000000      -0.00697512       0.00208251      -0.00133733
C        0.06921492       1.41894561       3.62919284       0.00000000      -0.00068442       0.00012863       0.00835911
C       -1.08968133       3.59378606       3.62629448       0.00000000      -0.00967363       0.00415827      -0.01071128
C       -2.32772579       5.71676315       3.69994979       0.00000000       0.00436991       0.00046741      -0.00562844
C       -3.61580804       7.82903849       3.76019134       0.00000000       0.00578436      -0.00802126       0.00463343
C       -4.87198773       9.94490586       3.72675765       0.00000000      -0.00260917       0.00386321      -0.00691327
C        2.52722645       1.35437086       3.43695580       0.00000000       0.00666530      -0.00207647      -0.00072822
C        1.37333472       3.48483920       3.50180963       0.00000000       0.01402929      -0.00261793      -0.00296288
C        0.22323336       5.73178904       3.74430209       0.00000000      -0.00451923       0.00504715      -0.00604898
C       -1.13130839       7.83709244       3.69307799       0.00000000      -0.00238109       0.00237963      -0.00510055
C       -2.38451995       9.95193060       3.58460864       0.00000000      -0.00757429      -0.00320338       0.00501107
C        4.98650611       1.44582112       3.34928648       0.00000000      -0.00182959      -0.00023882      -0.00187666
S        3.42390617       3.74755122       2.92770289       0.00000000       0.01258404      -0.00215274       0.00411801
C        1.31224555       7.91045171       3.79954913       0.00000000       0.00017815      -0.00355547       0.00119905
C        0.06907537      10.01277431       3.57860723       0.00000000       0.00731256      -0.00631037      -0.00879090
C        7.46078174       1.48154811       3.48551504       0.00000000      -0.00035323       0.01308983       0.00005073
C        6.23717762       3.59771930       3.39959246       0.00000000       0.00431892       0.00344866      -0.01125072
C        4.99260180       5.68581821       3.79239021       0.00000000       0.00233863      -0.00836402      -0.00650620
C        3.71102405       7.93783371       4.06209191       0.00000000      -0.00499046      -0.00429383       0.00749618
C        2.53202284      10.06566484       3.72130497       0.00000000       0.00135797      -0.00270129       0.00127585
C        9.94943508       1.47526162       3.63503497       0.00000000      -0.00102504      -0.00581018      -0.00859138
C        8.74111282       3.60148051       3.57253962       0.00000000      -0.00507696       0.00013963       0.00043051
C        7.49056996       5.71383228       3.72816608       0.00000000       0.00131415      -0.00018040      -0.01265496
C        6.22619118       7.83790358       3.91409083       0.00000000      -0.00033719       0.00848563       0.00249515
C        4.99716787       9.99392316       3.81794462       0.00000000      -0.00530415      -0.00110208       0.00508831
Tl       2.71336875       3.96608413       5.96981304       0.00000000       0.00267573      -0.00474281      -0.01696886
O        1.06107250       3.86353957       9.06570914       1.00000000      -0.01731612       0.00112112       0.00218465
O        0.46959736       4.04205517       7.98479355       1.00000000       0.01037640       0.00218284      -0.00582767
