52
Lattice="12.336457 0.0 0.0 -6.168228499999997 10.683685154694365 0.0 0.0 0.0 15.0" Properties=species:S:1:pos:R:3:forces:R:3 energy=-450.35009307394944 free_energy=-450.35009307394944 stress="-0.006177124178246166 -0.0005297931692144406 -4.509016027484467e-05 -0.0005297931692144406 0.002989473423467663 -9.992961545948778e-06 -4.509016027484467e-05 -9.992961545948778e-06 8.180550149268402e-06" pbc="T T T"
C       -0.00526683       0.02579769       3.74091316      -0.00616511      -0.00064294       0.00487611
C       -1.26133839       2.13557441       3.71847065       0.00410638      -0.00334038       0.01328316
C       -2.49079675       4.28366546       3.63345968       0.00073723       0.00207081       0.00146756
C       -3.70731708       6.43771721       3.59107790       0.00249394      -0.00237625      -0.00358920
C       -4.93195299       8.58870937       3.65573613       0.00799665       0.00172458       0.00426122
C        2.46027473       0.07786190       3.79138537      -0.00055770       0.00537400       0.00327709
C        1.19220526       2.19724957       3.93339656       0.00889724       0.00195687      -0.00612079
C       -0.05104212       4.24077623       3.93625639      -0.00163428       0.00142398      -0.00637034
C       -1.27285486       6.43282131       3.76714584      -0.00393603      -0.00092156       0.00158399
C       -2.48277862       8.58873873       3.71795559      -0.00634790      -0.00001964       0.00356141
C        4.92323340       0.03002096       3.79745440       0.00395257      -0.00197607       0.00173574
C        3.71551881       2.22235194       3.89290766      -0.00561044       0.00535012       0.00056791
C        1.07783314       6.43026256       4.30202690       0.00304905       0.00364028       0.00053676
C       -0.02110548       8.55550632       3.88915452      -0.00244059      -0.00485783      -0.00180521
C        7.39823967      -0.01541118       3.80151496       0.00438262      -0.00246162      -0.00457913
C        6.17063213       2.14171316       3.71465142      -0.00860882      -0.00323785       0.00665079
C        4.94468492       4.26639771       3.77486102       0.00702628      -0.00669143      -0.00531816
N        3.82662699       6.44171881       3.98060834      -0.00264078       0.00045017      -0.00216702
C        2.47211234       8.50550258       3.95873017      -0.00291504       0.00091196       0.00781732
C        9.85565356      -0.01708776       3.75726581      -0.00968613      -0.00683954       0.00367535
C        8.62367810       2.13209710       3.65891686      -0.00383836      -0.00094224       0.00496445
C        7.40069083       4.28613232       3.58554295       0.00761305       0.00669680       0.00268007
C        6.18373750       6.43558977       3.61561095       0.00150866       0.00358164       0.00260597
C        4.94439467       8.55430899       3.74411600      -0.00108307      -0.00199197      -0.00109205
C       -0.02119422       1.44680444       3.78420882       0.01005281       0.00075758      -0.00833035
C       -1.27374964       3.55634513       3.72722690      -0.00105097      -0.00127507       0.00162850
C       -2.48727759       5.71641378       3.63898238      -0.00096559      -0.00128019      -0.00171618
C       -3.70533800       7.86944832       3.64070910       0.00174716      -0.00503239      -0.00254497
C       -4.93400672      10.01979337       3.73071890      -0.00125693       0.00488492      -0.00470489
C        2.45790613       1.50685197       3.89029530       0.00309834       0.00537118      -0.00510350
N        1.09122462       3.54366452       4.13156476      -0.00552677      -0.00205092       0.00025278
C       -0.05286427       5.70775241       3.97983966      -0.00129923       0.00389949       0.01011084
C       -1.25675810       7.86111350       3.78293243      -0.00833185      -0.00221464       0.00034512
C       -2.48099262      10.01939359       3.76979526      -0.00098548       0.00277010       0.00642917
C        4.93195274       1.45650903       3.79563782      -0.01126179       0.00008820       0.00213968
N        3.79867273       3.58140085       3.98351133       0.00206172       0.00305297       0.00082748
C        1.21142375       7.80426523       4.05455856       0.00001240       0.00133653      -0.00232084
C       -0.01047721       9.97677089       3.82681761       0.00827694      -0.00435537      -0.00320966
C        7.39806889       1.41301615       3.71322753      -0.00661599      -0.00190448      -0.00250059
C        6.17675832       3.56757734       3.66016979       0.00875454      -0.00314557      -0.00701024
C        4.96220310       5.73630736       3.75462538      -0.00192064      -0.00164912      -0.00720511
C        3.73533443       7.80020071       3.89093965      -0.00440286       0.00063243      -0.00409959
C        2.46282293       9.93085729       3.83608782      -0.00383813      -0.00498273      -0.00513575
C        9.85000414       1.41216087       3.69666237      -0.00229197      -0.00571942      -0.00115416
C        8.62403759       3.56314306       3.60099228       0.00278753       0.00341258      -0.00011818
C        7.40626467       5.71467479       3.56900478       0.00313045       0.00591450      -0.00426768
C        6.17736484       7.86358675       3.65028691       0.00696592       0.00389141       0.00576926
C        4.92750577       9.97625508       3.74167645      -0.00993070      -0.00430475      -0.00194411
Tl       2.43581496       5.12139228       5.25389217      -0.00790318      -0.00071381       0.00686554
O        3.36551544       4.27430131       6.93600405       0.00236130       0.00367819       0.00262452
O        2.35346898       4.78585708       7.90338525       0.00878083       0.00503123      -0.00948066
H        2.93986422       5.35360237       8.44205293       0.01325272      -0.00297474       0.00135057
