51
Lattice="12.336457 0.0 0.0 -6.168228499999997 10.683685154694365 0.0 0.0 0.0 15.0" Properties=species:S:1:pos:R:3:initial_magmoms:R:1:forces:R:3 energy=-444.1253459100712 free_energy=-444.1253459100712 stress="-0.002681129235235093 -0.0002479723806395947 -1.0868377809802488e-05 -0.0002479723806395947 0.002268440211439942 9.710900321907605e-06 -1.0868377809802488e-05 9.710900321907605e-06 -1.9930338216855968e-05" pbc="T T T"
C        0.02908402      -0.01124444       3.63432244       0.00000000      -0.00402903      -0.00426254      -0.00131045
C       -1.21332630       2.11081283       3.62149259       0.00000000      -0.00017705      -0.00200334      -0.00023136
C       -2.43898186       4.24847692       3.55342919       0.00000000      -0.00006058      -0.00257654      -0.00846585
C       -3.67127623       6.39214740       3.52283639       0.00000000      -0.00155741      -0.00047116      -0.01016791
C       -4.90456865       8.53835129       3.56677415       0.00000000      -0.00540904      -0.00158749      -0.00415596
C        2.50094181       0.00884374       3.65943777       0.00000000      -0.00033292      -0.00550646      -0.00152185
C        1.25838441       2.15147072       3.79243525       0.00000000       0.00015456      -0.00311542      -0.00177552
C        0.04487564       4.25168413       3.75782348       0.00000000      -0.00082622       0.00343095      -0.00181009
C       -1.21431415       6.40133628       3.61362948       0.00000000      -0.00328876       0.00103872      -0.00022934
C       -2.44041390       8.54044230       3.58003468       0.00000000       0.00393003       0.00429051       0.00026446
C        4.97181543      -0.01414771       3.60170186       0.00000000       0.00476621       0.00514487      -0.00266140
C        3.74444394       2.16494343       3.71411461       0.00000000      -0.00247389      -0.00032778       0.00503050
N        1.17702197       6.41594874       3.93684860       0.00000000      -0.00336209       0.00343932       0.00122776
C        0.03207681       8.51408898       3.63053821       0.00000000       0.00101473      -0.00102186      -0.00644147
C        7.44493816      -0.04647971       3.58310658       0.00000000       0.00111148      -0.00204253      -0.00258767
C        6.21022898       2.11447702       3.53571159       0.00000000       0.00015847       0.00082850       0.00165374
C        4.93911504       4.27562116       3.56137437       0.00000000       0.00414449      -0.00232949       0.00683181
O        3.81558200       6.42665214       3.58379652       0.00000000       0.01366871       0.00866845       0.00978089
C        2.51733112       8.45759962       3.65320541       0.00000000      -0.00232279       0.00147461       0.00249936
C        9.89444639      -0.04586956       3.59528810       0.00000000       0.00232356      -0.00134673      -0.00627645
C        8.66756707       2.10358733       3.53451594       0.00000000      -0.00344140       0.00396700      -0.00363612
C        7.43192204       4.25001676       3.48409322       0.00000000      -0.00219495       0.00285715       0.00024957
C        6.20075450       6.39923947       3.49911247       0.00000000       0.00080235      -0.00129690       0.00334739
C        4.96945912       8.51913799       3.57939389       0.00000000      -0.00144838      -0.00232257      -0.00280262
C        0.01655628       1.40815678       3.68043778       0.00000000      -0.00072430      -0.00414439      -0.00093450
C       -1.21208980       3.53766027       3.62542063       0.00000000       0.00056898      -0.00151417      -0.00230452
C       -2.43749809       5.67846483       3.55419699       0.00000000      -0.00174673      -0.00235880       0.00046458
C       -3.66973779       7.82215460       3.55250725       0.00000000       0.00021497       0.00226559      -0.00155097
C       -4.90007823       9.96840036       3.62480898       0.00000000      -0.00451695      -0.00302323       0.00171796
C        2.50230637       1.43026775       3.74943156       0.00000000      -0.00043761      -0.00642001       0.00126726
C        1.19653099       3.53140055       3.94866700       0.00000000       0.00205716       0.00235825      -0.00317080
C        0.03940239       5.72319351       3.75673565       0.00000000      -0.00306615       0.00463104       0.00307217
C       -1.20963795       7.81993991       3.60054503       0.00000000       0.00127479       0.00057042       0.00184800
C       -2.43576397       9.96656783       3.61295487       0.00000000       0.00595484       0.00414544       0.00676232
C        4.98357493       1.40728637       3.60454124       0.00000000      -0.00054192       0.00496915       0.00140261
C        3.78938400       3.54818630       3.80808806       0.00000000      -0.00098825       0.00230962       0.01238812
C        1.24749791       7.75329528       3.73227648       0.00000000      -0.00108404       0.00055859      -0.00314812
C        0.03895343       9.93835054       3.59652388       0.00000000       0.00163974      -0.00119495      -0.00316592
C        7.44385494       1.38438440       3.54014133       0.00000000      -0.00163391      -0.00042414       0.00099731
C        6.20248206       3.54326125       3.49912758       0.00000000       0.00231072      -0.00122033      -0.00249627
C        4.99260580       5.71170563       3.52882587       0.00000000       0.00514752      -0.00107294       0.00917597
C        3.76771059       7.80603172       3.60519348       0.00000000       0.00025037       0.00440655       0.00779136
C        2.50497739       9.89522783       3.60702003       0.00000000       0.00202603      -0.00122356      -0.00304899
C        9.89211849       1.38704184       3.57617628       0.00000000      -0.00196605       0.00165356       0.00501249
C        8.66786831       3.53277845       3.51248835       0.00000000      -0.00297489       0.00418554      -0.00345921
C        7.43685236       5.67507075       3.49284484       0.00000000      -0.00342755       0.00086120      -0.00537861
C        6.20826190       7.82373166       3.54123244       0.00000000      -0.00435295      -0.00366531      -0.00345926
C        4.96191056       9.94722414       3.60362797       0.00000000      -0.00095075      -0.00562591      -0.00387376
Tl       2.55207745       4.64442787       5.54435568       0.00000000       0.00266159      -0.00358121       0.00123312
O        2.11314747       4.80517223       9.26011330       1.00000000       0.00544573      -0.00478470       0.01078284
O        1.12057940       5.53926820       9.35578399       1.00000000      -0.00229044       0.00240943      -0.00473657
