52
Lattice="12.336457 0.0 0.0 -6.168228499999997 10.683685154694365 0.0 0.0 0.0 15.0" Properties=species:S:1:pos:R:3:forces:R:3 energy=-441.8050906645398 free_energy=-441.8050906645398 stress="-0.002037180888321904 0.0009231314193785767 4.092015397466992e-06 0.0009231314193785767 -0.006196492904826408 -1.6463956457505304e-05 4.092015397466992e-06 -1.6463956457505304e-05 2.2989757240150087e-05" pbc="T T T"
C       -0.00968174       0.19918790       3.69305290      -0.00276060       0.00448602      -0.00107869
C       -1.24176199       2.33160944       3.76929027      -0.00412874      -0.00095582      -0.00482448
C       -2.47009186       4.46430503       3.82749056      -0.00101025       0.00166387       0.00476947
C       -3.71127233       6.59591039       3.78555573      -0.00126575       0.00428134       0.00279654
C       -4.95913908       8.72794422       3.67600333       0.00531505       0.00281110      -0.00055886
C        2.45253476       0.18707218       3.78744129      -0.00293757       0.00051784       0.00219414
C        1.22957896       2.34463706       3.91399080       0.00052534      -0.00141804       0.00001990
C        0.01217400       4.42818766       4.06461276       0.00399984       0.00073659      -0.00440226
C       -1.23971347       6.59693249       4.02569828      -0.00175728       0.00021518       0.00156540
C       -2.47935587       8.73197579       3.87055862       0.00372941       0.00332400      -0.00744007
C        4.92226860       0.19243240       3.85264790       0.00296671      -0.00417442       0.00078834
C        3.68398905       2.34353558       3.84717899       0.00537046       0.00323699       0.00483064
P        1.43306677       6.53682791       4.83004681       0.01447280      -0.01073876       0.00168171
C       -0.01070441       8.75061680       4.00869680       0.00128853      -0.00608224      -0.00323452
C        7.38637633       0.21365527       3.82466158      -0.00083542      -0.00652501      -0.00635516
C        6.16205067       2.32185432       3.82260285       0.00264264       0.00082045      -0.00824590
C        4.90221038       4.42559334       3.73805326      -0.00903916      -0.00204425      -0.00992537
S        3.44511770       6.47232919       3.00025550       0.00503703       0.00083942       0.00112708
C        2.45333292       8.79894416       3.78153714      -0.00227509      -0.00097961       0.00227090
C        9.86381995       0.21517570       3.68118633      -0.00426763      -0.00004582       0.01373222
C        8.62912094       2.33724341       3.76511456      -0.00065376      -0.00286045       0.00819037
C        7.39339063       4.46272202       3.76942985      -0.00314598      -0.00187477      -0.00751486
C        6.14095441       6.59090149       3.59081666      -0.00023593      -0.00150865      -0.00506705
C        4.91513732       8.74450326       3.54014319      -0.00300425      -0.00108206       0.00056271
C       -0.01621257       1.61730385       3.77968474       0.00156203       0.00344922       0.00507067
C       -1.24360319       3.74273563       3.85977574      -0.00230824      -0.00039118       0.00395329
C       -2.47726778       5.88738149       3.87480220      -0.00355892       0.00399944       0.01051383
C       -3.71701759       8.02069327       3.77579542       0.00517309       0.00442156       0.00501545
C       -4.95027395      10.15578548       3.71396557      -0.00369161       0.00229700       0.00166945
C        2.45385125       1.60372621       3.84752619       0.00301386       0.00183533       0.00342373
C        1.22081889       3.71389621       4.16971616      -0.00348800      -0.00107892      -0.00908983
C       -0.04304528       5.85276490       4.19834361       0.00631223       0.00349760      -0.00068612
C       -1.24455862       8.02670162       3.99940158      -0.00163235      -0.00019708      -0.00170281
C       -2.48138355      10.15466246       3.83409984      -0.00082711       0.00237188       0.00452946
C        4.93422465       1.61028928       3.83112351       0.00326116      -0.00078188      -0.00651449
C        3.69085958       3.72835264       3.88050118       0.00947777       0.00283304      -0.00522034
C        1.24798183       8.08957218       4.06086713       0.00437041      -0.00310370       0.00660877
C       -0.01221358      10.17544227       3.89170267       0.00163551      -0.00922959      -0.00385590
C        7.39839355       1.62453553       3.80239540       0.00063651      -0.00511953      -0.00029996
C        6.16797779       3.73836145       3.79431217      -0.00733786       0.00186292      -0.00245880
C        4.95352856       5.83552888       3.51391871      -0.00284503      -0.00174262       0.00004726
C        3.65846317       8.10762986       3.50750543      -0.00391694      -0.00373294       0.00734797
C        2.45741488      10.20940404       3.75426997      -0.00173924      -0.00088368      -0.00250771
C        9.85951231       1.62896309       3.72441294      -0.00444033      -0.00103450       0.00600504
C        8.63110108       3.75709969       3.78227699      -0.00072406      -0.00094516       0.00094976
C        7.39020557       5.88405222       3.72035678       0.00054162      -0.00055990      -0.01028833
C        6.14218851       8.01868827       3.56707605       0.00254585       0.00146163       0.00115901
C        4.92427163      10.17838941       3.62838400      -0.00378128       0.00132813       0.00739954
Tl       2.64107660       4.10323008       6.39068039       0.00643381       0.00744434      -0.00039316
O        3.74109992       2.03406612       6.68629793      -0.00627834       0.00501199       0.00990676
O        2.61206098       1.21804166       7.08254076      -0.00034173       0.00821246      -0.00230578
H        2.92772799       0.92745841       7.96129292      -0.00608323      -0.00386878      -0.01415895
