51
Lattice="12.336457 0.0 0.0 -6.168228499999997 10.683685154694365 0.0 0.0 0.0 15.0" Properties=species:S:1:pos:R:3:initial_magmoms:R:1:forces:R:3 energy=-437.1829070212924 free_energy=-437.1829070212924 stress="-0.002526906339063424 -0.0008026897102967195 3.9320015603068225e-05 -0.0008026897102967195 -0.0006976258776704852 2.8988482239167223e-05 3.9320015603068225e-05 2.8988482239167223e-05 -8.752621815449007e-06" pbc="T T T"
C       -0.04875542       0.09919156       3.68745530       0.00000000       0.00383819       0.00055428       0.00235057
C       -1.30389051       2.20814610       3.53862364       0.00000000       0.01107885      -0.00368621       0.01004399
C       -2.53966712       4.35556622       3.49155336       0.00000000       0.00641478       0.00368484      -0.00399932
C       -3.75771046       6.49830463       3.62272268       0.00000000      -0.00439665      -0.00251505      -0.00248662
C       -4.99427205       8.63730303       3.76097954       0.00000000       0.00573487      -0.00063316       0.00096478
C        2.41396215       0.13416938       3.66473999       0.00000000      -0.00589277       0.00228781      -0.00650733
C        1.16173430       2.28338686       3.53528574       0.00000000      -0.00494609       0.00621963       0.00962766
C       -0.08480333       4.28931756       3.29030960       0.00000000      -0.00708537       0.00452282       0.00137411
C       -1.29084045       6.48280445       3.34316797       0.00000000       0.00284563       0.00270130       0.00142139
C       -2.51558430       8.63585704       3.54307606       0.00000000       0.00090992       0.00243800      -0.00617616
C        4.87312956       0.09754874       3.58582486       0.00000000       0.00279627      -0.00620586      -0.00105124
C        3.66813540       2.27758491       3.83772981       0.00000000      -0.00678716       0.00076516      -0.00080886
S        1.39260238       6.37293290       2.73983851       0.00000000       0.00427183       0.00720577       0.00320019
C       -0.04785663       8.62635509       3.41473001       0.00000000       0.00072676      -0.00748348      -0.01086308
C        7.34009449       0.08973688       3.56683993       0.00000000       0.00146339      -0.00363507       0.00038395
C        6.11800830       2.21647994       3.65913286       0.00000000      -0.00504073      -0.00383591      -0.00757069
C        4.90808132       4.29163560       4.05810360       0.00000000      -0.00161098      -0.00191095       0.00406986
S        3.53660432       6.45022642       4.81056456       0.00000000       0.00246469      -0.00343676      -0.00242131
C        2.41319733       8.65843105       3.69364568       0.00000000       0.00487375       0.00115932      -0.01127232
C        9.81648430       0.08954529       3.67057144       0.00000000       0.00436196       0.00437949       0.00816064
C        8.57428532       2.22104339       3.57748038       0.00000000       0.00323009       0.00547598       0.00508165
C        7.34739030       4.35884272       3.68901887       0.00000000      -0.00442447      -0.00277315       0.00826440
C        6.11945147       6.48434480       3.96452448       0.00000000      -0.00503589       0.00258377      -0.01260297
C        4.87993050       8.63831220       3.92028795       0.00000000       0.00233953       0.00311949      -0.00250251
C       -0.06112015       1.51872278       3.58104983       0.00000000       0.00762591      -0.00185957      -0.00083870
C       -1.32824164       3.61824358       3.43487729       0.00000000       0.00244531      -0.00468928      -0.00203894
C       -2.53492201       5.77884692       3.48227263       0.00000000       0.00169593       0.00339156      -0.00298114
C       -3.75535587       7.92504658       3.64434105       0.00000000       0.00326600      -0.00125269      -0.00197544
C       -4.98490378      10.07559796       3.70660153       0.00000000      -0.00089414      -0.00131240      -0.00208122
C        2.41448123       1.56720005       3.68622510       0.00000000      -0.00770822       0.00309375      -0.00613505
N        1.10442809       3.63636951       3.38077259       0.00000000      -0.00936450       0.00452852      -0.00676789
C       -0.12202030       5.71467774       3.16692244       0.00000000       0.00156705       0.00264011      -0.00203366
C       -1.28364983       7.91527965       3.40248777       0.00000000      -0.00002005      -0.00095753       0.00510277
C       -2.52518629      10.07367770       3.60262457       0.00000000      -0.00203394       0.00204777       0.00102674
C        4.88226998       1.52025827       3.67670243       0.00000000      -0.00339180      -0.00593607       0.00706153
N        3.74407883       3.59664738       4.18155940       0.00000000      -0.00280569       0.00528224      -0.01529725
C        1.20700227       7.96793130       3.37890211       0.00000000       0.00125297      -0.00351870       0.01088636
C       -0.05773853      10.06256852       3.52543609       0.00000000       0.00326663      -0.01026048      -0.00300709
C        7.34458252       1.50998675       3.58839445       0.00000000       0.00026042       0.00006159       0.00743559
C        6.13424588       3.62755381       3.76951654       0.00000000      -0.00314798      -0.00461386       0.00448614
C        4.96343819       5.71525812       4.21947501       0.00000000      -0.00064114       0.00037927      -0.00104702
C        3.62862378       7.98800590       4.03205111       0.00000000       0.00078057       0.00277076       0.00466304
C        2.41018639      10.07468736       3.64046853       0.00000000       0.00390137       0.00174184       0.00437498
C        9.80525324       1.50622700       3.59202807       0.00000000       0.00683891       0.00253207      -0.00906901
C        8.57092787       3.64295119       3.57540536       0.00000000       0.00268223       0.00685944       0.00391792
C        7.35270039       5.78102391       3.75220860       0.00000000      -0.00612639      -0.00327535       0.00719682
C        6.11277056       7.91878035       3.91949915       0.00000000       0.00402154       0.00309183      -0.00257348
C        4.88206562      10.06690861       3.74853577       0.00000000       0.00405495       0.00467255       0.00979042
Tl       1.95213952       4.20842091       6.12985252       0.00000000      -0.01023857      -0.00979085       0.00025620
O        3.30473339       2.64703075       9.16917453       1.00000000      -0.00446413       0.00214025       0.01533596
O        3.56223689       2.35438777       7.98989309       1.00000000      -0.00495363      -0.00874883      -0.01236938
