52
Lattice="12.336457 0.0 0.0 -6.168228499999997 10.683685154694365 0.0 0.0 0.0 15.0" Properties=species:S:1:pos:R:3:forces:R:3 energy=-444.6822414375001 free_energy=-444.6822414375001 stress="0.002398756435172136 -1.684941505456088e-05 -2.432786481759158e-05 -1.684941505456088e-05 0.0104665041510684 -3.9489850508819596e-05 -2.432786481759158e-05 -3.9489850508819596e-05 -5.40581693950695e-07" pbc="T T T"
C        0.06772190      -0.09898799       3.86075765      -0.00029517       0.00359029       0.00538245
C       -1.17317635       2.02664029       3.84843067       0.00166737       0.00141019      -0.00622591
C       -2.39896224       4.16927286       3.83162433      -0.00818185      -0.00226068       0.00563574
C       -3.63839811       6.31069511       3.84148709      -0.00081506       0.00255679       0.01034918
C       -4.87438822       8.45080289       3.86078733       0.00132761       0.00102884       0.00125449
C        2.53061601      -0.03911266       3.84498495       0.00595158       0.00047717       0.00088454
C        1.26579197       2.06796006       3.86486200       0.00108758      -0.01063025      -0.01618915
C        0.04833480       4.15780491       3.83756586       0.00787880       0.00053354      -0.02731590
C       -1.17684435       6.30392675       3.80776444      -0.00286454      -0.00410218       0.00375635
C       -2.41124734       8.45927218       3.82499486      -0.00025664      -0.00811918       0.00358863
C        4.99483816      -0.09395980       3.81869908      -0.00297915       0.00563664       0.00074154
C        3.79712348       2.07815068       3.85565863      -0.00674299       0.00709392       0.02000137
N        1.22880621       6.29125197       3.79594414       0.00495491       0.00878166       0.00801081
C        0.06214340       8.41813706       3.78129532      -0.00394963       0.00840926       0.00323502
C        7.47550616      -0.14100045       3.81200132       0.00548299      -0.01227363       0.00423610
C        6.23920077       2.03286262       3.83365981      -0.00103949      -0.00338373       0.00658290
C        5.02189884       4.17213586       3.88135878      -0.00272388       0.00344905      -0.00622150
O        3.82998127       6.29835174       3.96846231      -0.00405213       0.00141662      -0.01081947
C        2.54784762       8.34129176       3.80850908      -0.00000492      -0.00432824       0.01184293
C        9.92815403      -0.14315261       3.83602840      -0.00569342      -0.00631115       0.01014402
C        8.70231396       2.01713668       3.83285666      -0.00100518      -0.00835404      -0.00519368
C        7.46823405       4.16916953       3.84575117      -0.00327185       0.00589680      -0.00209393
C        6.22861967       6.29416141       3.87347115       0.00711324       0.00136806      -0.00495937
C        4.99385923       8.41120455       3.85974243      -0.00005482      -0.00101373      -0.00850257
C        0.07244891       1.34119163       3.85936314      -0.00127212      -0.00149085      -0.01342930
C       -1.15712509       3.45828712       3.83721011       0.00069519       0.00418530      -0.00126296
C       -2.39947199       5.59266398       3.82857742      -0.00747408      -0.00221913      -0.00636942
C       -3.63859733       7.74000996       3.84302343      -0.00052595       0.00002667       0.00777173
C       -4.86206066       9.89594130       3.85921924       0.00301770       0.00413177      -0.01050953
C        2.53117410       1.42026438       3.84541542       0.00197901       0.00122335       0.01664148
O        1.22700336       3.45485107       3.88774492      -0.00163881      -0.01520950       0.00839692
C        0.08587921       5.60089446       3.79577781       0.01308833       0.00492897       0.00186923
C       -1.18080060       7.72933751       3.80311553      -0.00092716      -0.00467253       0.01166654
C       -2.41243897       9.90003408       3.82979987       0.00232305      -0.00656500      -0.00371055
C        4.99131929       1.34555789       3.83193844      -0.00853815       0.00849196      -0.00873137
O        3.83681910       3.46218453       3.92243071      -0.00497209      -0.00539164      -0.00555837
C        1.27744753       7.62909561       3.77403624      -0.00474824       0.01033964      -0.00295396
C        0.06534524       9.84873890       3.80185740      -0.00028620       0.00725412       0.00278116
C        7.46498483       1.30224886       3.82644279       0.00284990      -0.01367252      -0.00890148
C        6.22987018       3.46291693       3.84958350      -0.00357287       0.00210899       0.00164430
C        5.01268503       5.58972183       3.88991168       0.00401783       0.00500933       0.00390470
C        3.79404052       7.67377187       3.84698186      -0.00261517      -0.00023601      -0.00607294
C        2.53601081       9.78989100       3.81332397       0.00045231      -0.01268423       0.00297509
C        9.93770680       1.30238636       3.83792076       0.00214443      -0.00585746       0.00509122
C        8.70551839       3.44960644       3.83448281      -0.01055156      -0.00215805       0.01478539
C        7.46688824       5.58856574       3.85586407       0.00629742       0.00475892      -0.00635501
C        6.23738683       7.72274554       3.87362627       0.00304822      -0.00071403      -0.00240617
C        4.99698148       9.84915350       3.85490716      -0.00374878       0.00152025      -0.00356546
Tl       2.53333584       4.30969375       6.41635353      -0.01340035       0.00900220      -0.00727423
O        2.44293588       6.65393809       6.09291566       0.01860595       0.00666698      -0.00997258
O        1.11915585       6.81442681       6.64874147       0.01228026      -0.00685995      -0.00927684
H        1.29619444       7.49135856       7.33429584       0.00193858       0.01721040       0.02069779
