53
Lattice="12.336457 0.0 0.0 -6.168228499999997 10.683685154694365 0.0 0.0 0.0 15.0" Properties=species:S:1:pos:R:3:forces:R:3 energy=-461.18318827225136 free_energy=-461.18318827225136 stress="-0.0007753049857375931 6.679821638167342e-05 -3.0950078054891794e-05 6.679821638167342e-05 -0.0007988189989672144 3.0409287880827622e-05 -3.0950078054891794e-05 3.0409287880827622e-05 9.718425683212054e-06" pbc="T T T"
C       -0.07705645      -0.13149944       3.78941355       0.00892911       0.00371110      -0.00005671
C       -1.30424223       2.01133800       3.86968506       0.00174374      -0.00324448      -0.00169460
C       -2.53437611       4.14247998       3.87811165      -0.00437725       0.00832932      -0.00531121
C       -3.77602604       6.27774779       3.80614835      -0.00587377       0.00209385       0.00388657
C       -5.00817122       8.41651649       3.75431828       0.00699844      -0.00013320       0.00081513
C        2.39134075      -0.13493585       3.77070718      -0.00312811      -0.00331362       0.01128287
C        1.15942642       1.99541918       3.85889168       0.00161983       0.00192666      -0.01435134
C       -0.04095952       4.16335135       3.96869575       0.00099313      -0.01189013       0.00181439
C       -1.31588084       6.28534538       3.86766099      -0.00040511       0.00423338       0.00397020
C       -2.54571268       8.41695788       3.78105471      -0.00397143       0.00427501      -0.00517508
C        4.86018418      -0.13102880       3.78426941       0.00307533      -0.00179043       0.00273395
C        3.62511547       1.99488186       3.81600468      -0.00581838      -0.00199060       0.00284344
N        2.39881612       4.03315097       4.08329958       0.00322137      -0.00346481       0.00517053
N        1.06451163       6.34373684       4.12557267      -0.00345320       0.00063231      -0.00269317
C       -0.08439486       8.42064242       3.82496557      -0.00044715      -0.01082980      -0.00586436
C        7.33129301      -0.13824905       3.82074944      -0.00684295       0.00220656       0.00119921
C        6.08935729       2.01097315       3.82705862       0.00365275       0.00895984      -0.00439657
C        4.82641545       4.16093795       3.84070608      -0.00714737       0.00728952       0.01050355
N        3.71001126       6.32948445       3.76717181      -0.00348468      -0.00788411       0.00178896
C        2.39170834       8.37717773       3.82833319       0.00007947      -0.00289685       0.00113646
C        9.79062147      -0.13833274       3.81340486      -0.00847876       0.00722450       0.00378281
C        8.56079853       2.00474896       3.84793682       0.00359219       0.00633344       0.00309257
C        7.31948492       4.14272729       3.83367362      -0.00155621      -0.00870101      -0.00175969
C        6.09877344       6.28360273       3.76584409       0.00688948       0.00416159      -0.00113345
C        4.86525614       8.41738970       3.74464588      -0.00127952       0.00499721       0.00029032
C       -0.07711438       1.29470560       3.83998743       0.00572951       0.00152490      -0.00496525
C       -1.27753657       3.44784981       3.90840254      -0.00843884      -0.00518986       0.00350707
C       -2.54057756       5.56387519       3.85053219      -0.00400777       0.01225029       0.00267987
C       -3.77687462       7.70069912       3.77689378      -0.00052170       0.00136508      -0.00493829
C       -5.01289286       9.84080947       3.76514459       0.00451244      -0.00313405       0.00580054
C        2.39141658       1.28570903       3.80849881      -0.00669292      -0.00261688      -0.00677501
C        1.20392532       3.43190253       3.96456199       0.00796370      -0.00377807      -0.00443644
C       -0.05009741       5.60795298       3.98182973       0.00367825      -0.00716046       0.00259264
C       -1.31539998       7.70680901       3.81967261      -0.00628375       0.00040208      -0.00807383
C       -2.54105893       9.84076386       3.76890203      -0.00158782       0.00195049       0.00810922
C        4.86125189       1.29526942       3.80220504       0.00232414       0.00264600      -0.00574121
C        3.58422582       3.43005378       3.89883636      -0.00133007      -0.00090275       0.00590585
C        1.13691894       7.66843087       3.91146887       0.00094165      -0.00087636      -0.00417813
C       -0.07186158       9.84078387       3.80330704      -0.00011215      -0.01200283      -0.00410626
C        7.32646284       1.29221559       3.83029979       0.00316287       0.00718513       0.00126895
C        6.06365849       3.44673916       3.83393276      -0.00719848       0.00763275       0.00285648
C        4.82825679       5.60479948       3.78478631       0.00662122       0.00398306      -0.00228925
C        3.64171012       7.65935958       3.77055053      -0.00377271      -0.00832795       0.00088007
C        2.39222958       9.80572921       3.81850899      -0.00772928       0.00253025       0.00511280
C        9.79573195       1.29165805       3.84451407      -0.00037733       0.00471681       0.00043511
C        8.56073892       3.43113756       3.85500402       0.00331559       0.00112312       0.00153997
C        7.32371529       5.56509759       3.80419142       0.00133343      -0.00914048      -0.00400926
C        6.09749205       7.70541961       3.74116570       0.00510152       0.00644343      -0.00046122
C        4.85598866       9.83770410       3.77965475      -0.00110092       0.00945998       0.00359870
Tl       2.35988250       5.51529082       6.57520259      -0.00950853      -0.00618363      -0.00520818
O        4.26096312       6.88885630       6.45752323       0.00916823      -0.00553599      -0.00203664
O        3.60062227       8.12974194       6.80792197       0.01657016      -0.00999416       0.00403810
H        4.15949983       8.39074850       7.56753272       0.00370865       0.00139487      -0.00298115
