52
Lattice="12.336457 0.0 0.0 -6.168228499999997 10.683685154694365 0.0 0.0 0.0 15.0" Properties=species:S:1:pos:R:3:initial_magmoms:R:1:forces:R:3 energy=-456.89398567256495 free_energy=-456.89398567256495 stress="-0.0019652797293109744 -2.2732560598030977e-05 -4.281833619610529e-06 -2.2732560598030977e-05 -0.0020002438790643075 -7.810345671530821e-06 -4.281833619610529e-06 -7.810345671530821e-06 1.8192509415275677e-05" pbc="T T T"
C        0.08010246      -0.05105296       3.59503095       0.00000000      -0.00418946       0.00084630      -0.00077921
C       -1.14911575       2.09097528       3.65557490       0.00000000       0.00276511      -0.00331713      -0.00317039
C       -2.37939682       4.22251707       3.64577025       0.00000000       0.00175431       0.00336660       0.00596487
C       -3.61942256       6.35763658       3.57886465       0.00000000      -0.00018807      -0.00069856       0.00135252
C       -4.85138846       8.49680143       3.55720495       0.00000000       0.00244697       0.00062424       0.00263088
C        2.54838593      -0.05444287       3.55749832       0.00000000      -0.00155115      -0.00031924      -0.00241452
C        1.31448120       2.07498588       3.62347997       0.00000000       0.00241597      -0.00350059      -0.00073169
C        0.10988207       4.23993467       3.72598753       0.00000000       0.00320361      -0.00172779       0.00269853
C       -1.16038801       6.36434124       3.62361149       0.00000000      -0.00398346      -0.00373514       0.00516444
C       -2.38854061       8.49699341       3.55674091       0.00000000       0.00610767      -0.00616726      -0.00408444
C        5.01726227      -0.05170329       3.58483058       0.00000000       0.00130200       0.00381182       0.00171769
C        3.78263312       2.07425735       3.61116197       0.00000000      -0.00105112       0.00285338       0.00904516
N        2.54965734       4.10982600       3.85455399       0.00000000      -0.00388005       0.00100992       0.01027174
N        1.20881139       6.41847190       3.94269451       0.00000000      -0.00199045       0.00307347       0.00368211
C        0.07293990       8.49963908       3.63337471       0.00000000       0.00024050       0.00174395       0.00441092
C        7.48629991      -0.05764799       3.65703414       0.00000000       0.00199856      -0.00461286       0.00288729
C        6.24675307       2.09012758       3.64165142       0.00000000      -0.00202134      -0.00014921       0.00104659
C        4.98790655       4.23847421       3.70828670       0.00000000      -0.00611677       0.00271881       0.00455821
N        3.88526450       6.41579296       3.90950064       0.00000000      -0.00533008       0.00025084       0.00488407
C        2.54805444       8.46109961       3.74893218       0.00000000      -0.00004303       0.00421639       0.00514013
C        9.94723652      -0.05731839       3.66303496       0.00000000       0.00088445      -0.00459702       0.00032228
C        8.71714739       2.08517745       3.65776000       0.00000000      -0.00337659      -0.00003856       0.00527886
C        7.47753119       4.22207374       3.63963724       0.00000000      -0.00570182       0.00257623       0.00263732
C        6.25815458       6.36380099       3.61721200       0.00000000       0.00557532       0.00169069       0.00790354
C        5.02430418       8.50046541       3.63643508       0.00000000       0.00248547       0.00048797       0.00433589
C        0.07849279       1.37461176       3.62138069       0.00000000       0.00304779      -0.00066455      -0.00274752
C       -1.12509764       3.52615440       3.67538299       0.00000000       0.00378983      -0.00189645      -0.00033508
C       -2.38520336       5.64382093       3.60888202       0.00000000      -0.00352441       0.00152369      -0.00262853
C       -3.61990366       7.78103227       3.55470463       0.00000000       0.00216521      -0.00224208      -0.00502904
C       -4.85551416       9.92096168       3.56200004       0.00000000      -0.00408388       0.00220333      -0.00407800
C        2.54829941       1.36559818       3.58659549       0.00000000       0.00278593       0.00119193       0.00084709
C        1.35178569       3.50569669       3.72328097       0.00000000      -0.00081741      -0.00633522      -0.00571630
C        0.09487138       5.68256359       3.74825198       0.00000000      -0.00561973      -0.00100266       0.00428807
C       -1.15839437       7.78711794       3.59274826       0.00000000       0.00451251      -0.00682512      -0.00563103
C       -2.38407323       9.92104180       3.55799031       0.00000000       0.00181939      -0.00229671      -0.00763501
C        5.01881459       1.37386225       3.60694016       0.00000000       0.00031157       0.00500579      -0.00143891
C        3.74592954       3.50489250       3.71093648       0.00000000      -0.00352759      -0.00134124      -0.00205065
C        1.29067280       7.75281790       3.76182919       0.00000000      -0.00198662       0.00706035       0.00117773
C        0.08432173       9.92039365       3.61969922       0.00000000       0.00130693       0.00123808      -0.00303322
C        7.48283087       1.37220903       3.65136608       0.00000000      -0.00260200      -0.00298975      -0.00491763
C        6.22320931       3.52510849       3.66173015       0.00000000      -0.00712256       0.00181957      -0.00020009
C        5.00206290       5.68090917       3.73089734       0.00000000       0.00294184       0.00525817       0.00207005
C        3.80557379       7.75301180       3.75558242       0.00000000      -0.00098538       0.00450974      -0.00350714
C        2.54835749       9.88763838       3.68989127       0.00000000       0.00231103      -0.00180600       0.00091559
C        9.95136014       1.37253856       3.65882753       0.00000000      -0.00167153      -0.00368487      -0.00492671
C        8.71729732       3.51056522       3.64629487       0.00000000      -0.00229649       0.00297133      -0.00472091
C        7.48300771       5.64357505       3.60513071       0.00000000       0.00358108      -0.00189740      -0.00428159
C        6.25509786       7.78690031       3.59287890       0.00000000       0.00544273      -0.00114513      -0.00505460
C        5.01297814       9.92113846       3.62774037       0.00000000      -0.00034708      -0.00177511      -0.00233035
Tl       2.55031104       5.60766327       6.16706962       0.00000000       0.01189881       0.00059215      -0.01507187
O        0.55733661       6.82230839       9.25952858       1.00000000      -0.00226798       0.00125389      -0.00907623
O        0.26501963       6.90687583       8.05721764       1.00000000      -0.00081856       0.00086702       0.01035910
