52
Lattice="12.336457 0.0 0.0 -6.168228499999997 10.683685154694365 0.0 0.0 0.0 15.0" Properties=species:S:1:pos:R:3:forces:R:3 energy=-441.50014834498046 free_energy=-441.50014834498046 stress="-0.002529260821721616 -0.00012344524109658995 -1.6360729790385617e-05 -0.00012344524109658995 -0.00020786335089852389 -2.7122070107446174e-05 -1.6360729790385617e-05 -2.7122070107446174e-05 2.7294739031770083e-05" pbc="T T T"
C       -0.10900308       0.15543038       3.88615071       0.00050717       0.00094692       0.00578490
C       -1.36250096       2.26821926       3.79087379       0.00462343      -0.00538514      -0.00738132
C       -2.59388773       4.41511709       3.73821090      -0.00383787      -0.00332172      -0.00041168
C       -3.81701097       6.55656354       3.81377045       0.00268948       0.00182331       0.01134053
C       -5.05522716       8.69418009       3.92673458      -0.00054397       0.00896717       0.00903297
C        2.35196956       0.19261997       3.80535224      -0.00366722       0.00230714      -0.01127017
C        1.09766780       2.34545639       3.69329996      -0.00012696      -0.00006809       0.00652952
C       -0.13937569       4.34752706       3.50698021       0.00307683       0.00351508       0.00269831
C       -1.34999491       6.54187318       3.54788915       0.00389815      -0.00088639      -0.01504462
C       -2.57630470       8.69592027       3.70764171      -0.01040348      -0.00294720      -0.00084017
C        4.81316495       0.15677850       3.72430426      -0.00054219      -0.00053369       0.00441435
C        3.60313796       2.34612168       3.88688736      -0.00000280      -0.00202830       0.00294910
S        1.30649959       6.43953427       2.85422652      -0.00151964       0.00152288       0.00994406
C       -0.10829198       8.68607465       3.57566319      -0.00705063      -0.00616750      -0.00691573
C        7.28215708       0.14613414       3.75348194      -0.00406828      -0.00077555       0.00323731
C        6.06082487       2.27100002       3.80428166       0.00568607      -0.00188243      -0.00465019
C        4.83711113       4.34671725       4.11717786      -0.00110445      -0.00346524       0.00528284
S        3.44039563       6.45679855       4.87509117       0.00010670      -0.00561994      -0.00337571
C        2.35140079       8.71166112       3.85263699      -0.00025305      -0.00227237      -0.00091310
C        9.75647386       0.14563209       3.89076205      -0.00415204      -0.00167987       0.00467067
C        8.51743129       2.27846557       3.81314354       0.00136669      -0.00215073      -0.00446299
C        7.29156965       4.41527260       3.88016678      -0.00755887      -0.00013181       0.00342416
C        6.05520512       6.54029983       4.10614687       0.00384586       0.00119656      -0.00491940
C        4.81513149       8.68872172       4.09533076       0.01365848       0.00928217      -0.00451617
C       -0.12202129       1.57620798       3.79534602       0.00317125      -0.00521307      -0.00559577
C       -1.38333296       3.67905424       3.69189903       0.00199339      -0.00144222       0.00117300
C       -2.59203983       5.83784502       3.70094836       0.00513261      -0.00005836       0.00336474
C       -3.81601249       7.98379378       3.81432110      -0.00757200       0.00214472       0.01329398
C       -5.04531897      10.13240349       3.87426799      -0.00124552       0.00506881       0.00018891
C        2.35200832       1.62501098       3.79148779      -0.00124188       0.00136083       0.00291964
N        1.03962254       3.68933921       3.52122956      -0.00076103      -0.00250179      -0.00166929
C       -0.18199742       5.77390993       3.36153931       0.00606372       0.00234034      -0.00426661
C       -1.34394739       7.97512011       3.57752872      -0.00700116      -0.00434005      -0.00371458
C       -2.58641759      10.13344903       3.74652518      -0.00449533      -0.00091377      -0.00031614
C        4.82227026       1.57877180       3.78368242       0.00356437       0.00115472       0.00205251
N        3.67177056       3.66865100       4.14461634      -0.00231339      -0.00184774       0.00069333
C        1.14504477       8.02535047       3.52767276      -0.00640703      -0.00643627       0.00841382
C       -0.11653242      10.12130257       3.68529402      -0.00266027      -0.00496575       0.01299524
C        7.28827752       1.56565558       3.78622531       0.00352228      -0.00211954       0.00205731
C        6.07818411       3.68274549       3.90608286      -0.00373141      -0.00198050      -0.00401535
C        4.89076029       5.76611329       4.30453304       0.00161948      -0.00046049      -0.00533106
C        3.56224784       8.03325820       4.17946029       0.01251814       0.00950050      -0.00574867
C        2.35079239      10.13012640       3.83440139      -0.00607556      -0.00241773      -0.00364289
C        9.74690811       1.56392578       3.83705850       0.00205937      -0.00269080      -0.00082112
C        8.51713494       3.70047872       3.81059790      -0.00839483      -0.00204308      -0.00259684
C        7.29305845       5.83816993       3.93081757       0.00070862       0.00019051       0.00106599
C        6.04996564       7.97374753       4.07957179       0.00990641       0.00402607      -0.00447215
C        4.82115778      10.12136454       3.95501572       0.00164614       0.00716842       0.00039748
Tl       2.09442574       4.08711590       6.60353203      -0.00415700      -0.00183320      -0.00242545
O        4.26079528       3.20880848       6.77725964       0.00331387       0.00630219      -0.00286364
O        3.86018301       1.81815836       6.89438352       0.00533193       0.01302329       0.00089482
H        4.31524166       1.60075811       7.73248155       0.00087740      -0.00126128      -0.00663868
