51
Lattice="12.336457 0.0 0.0 -6.168228499999997 10.683685154694365 0.0 0.0 0.0 15.0" Properties=species:S:1:pos:R:3:initial_magmoms:R:1:forces:R:3 energy=-437.29490869287014 free_energy=-437.29490869287014 stress="-0.006225893544280266 0.005824113027547541 2.4359318992696165e-05 0.005824113027547541 -0.004589671805000185 8.535145283083948e-06 2.4359318992696165e-05 8.535145283083948e-06 -2.2474652966641347e-05" pbc="T T T"
C       -0.04856937       0.01212548       3.61583180       0.00000000       0.00318680      -0.00160308       0.00319275
C       -1.25227087       2.16854234       3.51163603       0.00000000       0.00445846      -0.00121992      -0.00083933
C       -2.51244214       4.30056260       3.66047538       0.00000000       0.00310667      -0.00358950       0.00068669
C       -3.77230293       6.42552581       3.78238233       0.00000000       0.00070370      -0.00130506      -0.00352017
C       -5.02235364       8.54741636       3.73208512       0.00000000       0.00183985       0.00400930       0.00210938
C        2.40919759       0.01949646       3.78065472       0.00000000      -0.00318485      -0.00747184      -0.00305563
C        1.22896165       2.10715696       3.41169853       0.00000000       0.00663400      -0.00217533      -0.00327212
C       -0.12817364       4.37923696       3.25111309       0.00000000       0.00036073       0.00593561       0.00446424
C       -1.33879248       6.46839932       3.60499975       0.00000000       0.00682671       0.00118252      -0.00871553
C       -2.55289793       8.57395642       3.79668438       0.00000000      -0.00114879       0.00239361       0.00549839
C        4.88313208       0.00982927       3.84537986       0.00000000      -0.00090972      -0.00612248       0.00186142
C        3.69630407       2.16492568       3.80800594       0.00000000       0.00588280       0.00361585      -0.00036713
N        1.06518802       6.49699095       3.36966572       0.00000000      -0.00153140      -0.00033559       0.00131669
C       -0.08276179       8.57361817       3.67554380       0.00000000      -0.00557900      -0.00407664      -0.00024112
C        7.36377837       0.00419381       3.75843185       0.00000000      -0.00344929       0.01066690       0.00048419
C        6.16314221       2.11585548       3.89503656       0.00000000      -0.00804240      -0.00111810      -0.00636709
C        4.93622045       4.19248748       3.80729922       0.00000000       0.00004491       0.00181799      -0.00253916
S        3.43386941       6.18952018       3.12363231       0.00000000       0.00164072       0.00000927      -0.00251762
C        2.39022333       8.56368909       3.52757175       0.00000000      -0.00448658      -0.00188005      -0.00219586
C        9.83137982       0.01198601       3.62245764       0.00000000       0.00336856       0.00471180       0.00274971
C        8.62219685       2.14459762       3.75248340       0.00000000      -0.00481699       0.00180783      -0.00622738
C        7.38287377       4.27202341       3.84498322       0.00000000      -0.00533407      -0.01163349       0.00464320
C        6.10363918       6.39087104       3.70440250       0.00000000      -0.00127527       0.00161557       0.00351539
C        4.85970824       8.53456162       3.56086434       0.00000000       0.00639452       0.00483146       0.00646506
C       -0.02678604       1.45103644       3.50417951       0.00000000       0.00479664      -0.00450698      -0.00776581
C       -1.27213721       3.60184139       3.47599051       0.00000000       0.00572143      -0.00066669       0.00249982
C       -2.53908266       5.72195818       3.69819539       0.00000000       0.00777604      -0.00084694       0.00155077
C       -3.78372895       7.84941649       3.78266954       0.00000000      -0.00052974       0.00449024       0.00332876
C       -4.99868563       9.98289309       3.71356738       0.00000000      -0.00179156      -0.00161589      -0.00005763
C        2.43802139       1.44145124       3.69337958       0.00000000       0.00426310      -0.00582390      -0.00030113
S        1.37878513       3.71982429       2.80124232       0.00000000      -0.00073819       0.01314563      -0.00106147
C       -0.10868865       5.80414237       3.37182943       0.00000000       0.00232355       0.00250603      -0.00431121
C       -1.32547881       7.87704974       3.71140204       0.00000000      -0.00289590      -0.00093852       0.00324847
C       -2.53098442       9.99232823       3.83347659       0.00000000      -0.00289052      -0.00120848      -0.00218330
C        4.91368570       1.42652221       3.87230659       0.00000000       0.00045385      -0.00582319      -0.00728617
N        3.75120907       3.51601469       3.87072847       0.00000000       0.00390897       0.00007328      -0.00834530
C        1.13152926       7.83913217       3.51218742       0.00000000      -0.00753495      -0.01011378      -0.00156549
C       -0.05023162       9.98723068       3.77797055       0.00000000      -0.00028086      -0.00104615       0.00243092
C        7.39140267       1.41967759       3.82498360       0.00000000      -0.00738791       0.01040660      -0.00592623
C        6.17806722       3.52594148       3.88970964       0.00000000      -0.00578970      -0.00640841      -0.00059228
C        4.94979386       5.60448595       3.62117384       0.00000000      -0.00285434       0.00408231       0.01353160
C        3.60880646       7.87777201       3.44325589       0.00000000       0.00244125       0.00458092       0.00175508
C        2.42022372       9.98116916       3.64597211       0.00000000      -0.00225569       0.00558584       0.00428790
C        9.85657716       1.44716903       3.63383747       0.00000000      -0.00017581       0.00351404       0.00163996
C        8.61679651       3.56832094       3.77438557       0.00000000      -0.00148381      -0.00473874       0.00056855
C        7.35392136       5.69312009       3.80296219       0.00000000      -0.00199624      -0.00796568      -0.00035812
C        6.08521271       7.82218410       3.64963292       0.00000000       0.00537431       0.00347473       0.00476324
C        4.88092193       9.97842927       3.59702583       0.00000000       0.00637304       0.00347540      -0.00122729
Tl       2.19227895       4.94078774       5.71069416       0.00000000      -0.00394802      -0.00601887      -0.00960994
O        3.43211576       4.82407632       9.15117970       1.00000000      -0.00402550       0.00308937       0.00475397
O        4.05948345       4.46847336       8.14003702       1.00000000      -0.00154353      -0.00076881       0.00910334
