51
Lattice="12.336457 0.0 0.0 -6.168228499999997 10.683685154694365 0.0 0.0 0.0 15.0" Properties=species:S:1:pos:R:3:initial_magmoms:R:1:forces:R:3 energy=-430.7734431500248 free_energy=-430.7734431500248 stress="-0.0013877773154308058 0.003955254037319674 1.620604087349234e-05 0.003955254037319674 -0.0038430460407612127 5.701857341676243e-06 1.620604087349234e-05 5.701857341676243e-06 3.619959077399554e-05" pbc="T T T"
C        0.06563230      -0.08461764       3.78216564       0.00000000      -0.00478956      -0.00471668      -0.00247297
C       -1.13108191       2.08414770       3.97743243       0.00000000      -0.00225353       0.00785823      -0.00140601
C       -2.38831145       4.20938650       3.91681493       0.00000000      -0.00030822       0.00381940      -0.00482756
C       -3.64563123       6.32814529       3.73688197       0.00000000       0.00994597      -0.00295000      -0.00470624
C       -4.89915166       8.44759304       3.64872334       0.00000000      -0.00208708      -0.01388793       0.00382605
C        2.52854452      -0.11644551       3.63951944       0.00000000      -0.00225852       0.00770173       0.00470535
C        1.35333278       2.00225125       3.86650230       0.00000000       0.00363149       0.00175024       0.00556861
C        0.02684303       4.30787504       4.21040328       0.00000000      -0.00088214      -0.00473730       0.00504589
C       -1.20595204       6.37012292       4.00690455       0.00000000      -0.00342928      -0.00167309      -0.00970617
C       -2.41808821       8.46181362       3.78147158       0.00000000      -0.00020229      -0.00007327      -0.00846998
C        5.00379541      -0.09052757       3.65416309       0.00000000      -0.00523628       0.00424038       0.00002167
C        3.77825710       1.95864495       3.21746860       0.00000000       0.00136736      -0.00039028      -0.01472995
O        1.18656380       6.42864639       4.25832179       0.00000000      -0.00640751      -0.00963434      -0.00602715
C        0.04846750       8.47513113       3.89856272       0.00000000       0.00517421      -0.00208054       0.00340820
C        7.47016801      -0.07674488       3.80678539       0.00000000      -0.00065031      -0.00456944      -0.00581913
C        6.26521411       2.03595008       3.43789897       0.00000000      -0.00100060      -0.00517104      -0.00101525
C        5.16031706       4.17147394       2.90469801       0.00000000       0.00344855       0.00718712       0.00755908
S        3.56666094       6.26058112       2.70923817       0.00000000       0.00585754       0.00230816       0.00415393
C        2.49632505       8.45755533       3.81065747       0.00000000       0.00527580       0.00289812       0.00293833
C        9.94145647      -0.07523050       3.85508654       0.00000000      -0.00122507      -0.00016491       0.00206611
C        8.72477855       2.06257104       3.78985898       0.00000000       0.00099028      -0.00059027       0.00658183
C        7.50621021       4.18352889       3.53880913       0.00000000       0.00322133       0.00836570      -0.00091085
C        6.25461648       6.32364077       3.36296776       0.00000000       0.00610562       0.00780512      -0.00033640
C        4.97315520       8.45732390       3.57586746       0.00000000      -0.00616884      -0.00289428       0.00016016
C        0.09362118       1.35576495       3.90333742       0.00000000      -0.00173178       0.00286908       0.00193754
C       -1.14012335       3.51747864       4.04892873       0.00000000      -0.00353908       0.00728057      -0.00229139
C       -2.41652067       5.62522216       3.89885500       0.00000000       0.00249418      -0.00107565      -0.00086387
C       -3.65766402       7.74763644       3.72404636       0.00000000       0.00457605      -0.00834705      -0.00670352
C       -4.88561893       9.87367604       3.70021145       0.00000000      -0.00148923      -0.00967170       0.00907505
C        2.54870452       1.29696113       3.55448554       0.00000000       0.00397269       0.00846349       0.00164534
S        1.57828301       3.61727551       4.41109464       0.00000000       0.00733434       0.00197373      -0.00087639
C       -0.00508032       5.70822381       4.16855739       0.00000000      -0.00682909      -0.00732898      -0.01095972
C       -1.19722819       7.77721474       3.90455780       0.00000000       0.00025497      -0.00065725      -0.00195073
C       -2.40237662       9.87774489       3.67918283       0.00000000      -0.00452360       0.00484548       0.00213011
C        5.02072437       1.32530532       3.42654535       0.00000000      -0.00154745       0.00041280      -0.00615474
S        3.72853495       3.40187309       2.27678270       0.00000000      -0.00321076      -0.01093421       0.00830767
C        1.24474608       7.78400548       3.94072160       0.00000000       0.00635261      -0.00312458       0.00606847
C        0.06832927       9.89961632       3.78943133       0.00000000      -0.00397110       0.00097068       0.00231281
C        7.48186935       1.34886912       3.68885561       0.00000000       0.00089920      -0.00586581       0.00102396
C        6.30164927       3.44767226       3.28846765       0.00000000      -0.00057988       0.00142350       0.00827695
C        5.12426290       5.57142583       2.99881513       0.00000000       0.00828920       0.00777659       0.00657053
C        3.72246753       7.80020416       3.47943221       0.00000000      -0.00067530       0.00297200      -0.01021185
C        2.52807226       9.88952344       3.86210075       0.00000000       0.00219934       0.00139085      -0.00265126
C        9.96589066       1.36302245       3.89644435       0.00000000       0.00127073       0.00145623       0.00205783
C        8.72679582       3.48261804       3.75725744       0.00000000       0.00020326       0.00349966       0.00915028
C        7.48288300       5.60589205       3.54877194       0.00000000       0.00589271       0.00916502       0.00771081
C        6.20836644       7.74070070       3.51466746       0.00000000      -0.00755452      -0.00091623      -0.00524433
C        4.99432952       9.89008396       3.76619362       0.00000000      -0.00683231      -0.00581696       0.00587530
Tl       3.35992865       5.68624665       5.96170724       0.00000000      -0.00738603      -0.00180021      -0.01017344
O        1.41697214       7.08865849       8.36667034       1.00000000       0.00295302       0.00026205      -0.01812773
O        1.10503506       7.09623101       7.15727857       1.00000000      -0.00494109       0.00037605       0.01845877
