52
Lattice="12.336457 0.0 0.0 -6.168228499999997 10.683685154694365 0.0 0.0 0.0 15.0" Properties=species:S:1:pos:R:3:forces:R:3 energy=-434.79293916384495 free_energy=-434.79293916384495 stress="-0.0007772550633720369 0.003496367788698076 5.558860638988922e-05 0.003496367788698076 -0.0032821636922087598 -6.592217578893007e-05 5.558860638988922e-05 -6.592217578893007e-05 2.58683139546005e-05" pbc="T T T"
C       -0.02108735      -0.03539396       3.81447625       0.00300235       0.00274955      -0.00176458
C       -1.21845242       2.13356299       4.00368537      -0.00041000      -0.00164130      -0.00597453
C       -2.47454672       4.25930928       3.92709161      -0.00413342       0.00377655       0.00216521
C       -3.72863586       6.37883896       3.74556200      -0.00370328      -0.00589711       0.00165252
C       -4.98369052       8.49817620       3.66731958      -0.00159220      -0.00688711       0.00803153
C        2.44191452      -0.06529231       3.65929040       0.00554878       0.00200477       0.00218931
C        1.26618846       2.05303857       3.89274973       0.00515147       0.00666917      -0.01161085
C       -0.06008160       4.35525886       4.22244872       0.00386350      -0.00588939       0.00514736
C       -1.28820121       6.41850379       4.01512997      -0.00543707      -0.00579908       0.00516878
C       -2.50123384       8.51173532       3.79383571      -0.01135745       0.00103557       0.00276618
C        4.91814589      -0.04088438       3.67453536       0.01160022       0.00503810      -0.00539183
C        3.69144504       2.00992142       3.23509028      -0.01127398       0.00025426       0.00012596
O        1.10739167       6.46667510       4.26449974       0.00696150       0.00582834       0.00422052
C       -0.03430798       8.52323495       3.93530019       0.00418714      -0.00261713      -0.00281291
C        7.38360962      -0.02677819       3.83912452       0.00475402      -0.00255581      -0.00115504
C        6.17727463       2.08823866       3.46105856       0.00213845      -0.01407036       0.00023136
C        5.07009803       4.22769008       2.93201992       0.00013338      -0.00518777       0.00851982
S        3.49322086       6.33574242       2.67750370      -0.00508018       0.00577968       0.00100682
C        2.41135022       8.50500879       3.84783236       0.01042709       0.00898408       0.00078771
C        9.85436335      -0.02549312       3.89175792      -0.01107505      -0.01359768       0.00290154
C        8.63676848       2.11279923       3.81637230       0.00324443       0.00475028       0.00271681
C        7.41887908       4.23517969       3.56065925      -0.00627787       0.00458458      -0.00205940
C        6.16851285       6.37616568       3.38389588       0.00891473       0.00607540       0.00051652
C        4.88643864       8.50834074       3.60577052       0.00243340       0.00577766      -0.01192953
C        0.00637510       1.40491247       3.93397927       0.00654507       0.00798814      -0.00514486
C       -1.22770377       3.56712496       4.06304577      -0.00320869       0.00000605       0.00238159
C       -2.49962282       5.67425455       3.90357238      -0.00794625      -0.00111838       0.00497255
C       -3.74088097       7.79820219       3.73466952      -0.00685034      -0.01002747      -0.00361151
C       -4.97174362       9.92385559       3.72440176       0.00274345      -0.00426421       0.00738704
C        2.46137708       1.34839121       3.57464053       0.00252902       0.00156696       0.01325292
S        1.49117547       3.66880280       4.43529283       0.00295952      -0.00993686       0.00340706
C       -0.08714237       5.75754507       4.18462034       0.00345812      -0.00276799      -0.00115180
C       -1.27951120       7.82617329       3.92461283      -0.00871808      -0.00353922      -0.00958703
C       -2.48828808       9.92802601       3.69541216       0.00793990       0.00705763       0.00683091
C        4.93418754       1.37530668       3.44428231      -0.00523691       0.00240682       0.00403234
S        3.63898838       3.45918516       2.30236109      -0.00974277      -0.01037868       0.00039224
C        1.16024396       7.82557971       3.98353760       0.01253135       0.00823717       0.00662131
C       -0.01666993       9.94873112       3.81993286       0.01067884       0.00021159      -0.00080042
C        7.39378628       1.39981093       3.71509308       0.00744449      -0.00521577       0.00475530
C        6.21203295       3.50164291       3.31500141      -0.00100300      -0.01215580       0.00868910
C        5.03522708       5.62924001       3.01633175       0.01343695      -0.00107173      -0.00105113
C        3.63486143       7.85132385       3.49729171       0.00463545       0.00972390      -0.00888646
C        2.44136592       9.93798440       3.90149945      -0.00572257      -0.00404825      -0.01501409
C        9.87817830       1.41312554       3.92710635      -0.00338339      -0.01255775      -0.00213989
C        8.63930237       3.53271331       3.77729585      -0.00433940       0.01121778      -0.00127302
C        7.39731485       5.65781012       3.56717331       0.00069813       0.00432614      -0.00088461
C        6.12225632       7.79248239       3.53619605       0.00135323       0.00446487      -0.00480599
C        4.90720065       9.93959412       3.80333874      -0.00308740      -0.00023906      -0.00407757
Tl       3.57057238       5.64922342       6.14159827      -0.00937893      -0.00764121      -0.00297434
O        2.93444722       6.38337984       8.20314630      -0.00574996       0.00979404      -0.00302339
O        3.56059296       5.27320131       8.96037215      -0.00832028       0.01474041       0.00066567
H        4.15184292       5.80046291       9.52684830      -0.00628548       0.00405561      -0.00441122
