52
Lattice="12.336457 0.0 0.0 -6.168228499999997 10.683685154694365 0.0 0.0 0.0 15.0" Properties=species:S:1:pos:R:3:initial_magmoms:R:1:forces:R:3 energy=-451.236785973388 free_energy=-451.236785973388 stress="0.0029590077306244464 1.0361303556708048e-05 -2.9597299129883285e-06 1.0361303556708048e-05 0.0029600378865716486 -5.292692052718628e-06 -2.9597299129883285e-06 -5.292692052718628e-06 1.5924833660253045e-05" pbc="T T T"
C       -0.09038300      -0.00912837       3.64881734       0.00000000       0.00142552      -0.00137768       0.00193061
C       -1.31360869       2.13740591       3.64165135       0.00000000      -0.00371103      -0.00164151       0.00205122
C       -2.54001031       4.26101310       3.63769803       0.00000000      -0.00038452       0.00269445       0.00427804
C       -3.78740085       6.39404693       3.64325221       0.00000000       0.00062793       0.00020238       0.00252010
C       -5.02771622       8.53161174       3.65349317       0.00000000       0.00443330      -0.00054208      -0.00444597
C        2.38089550      -0.00405575       3.64924254       0.00000000       0.00260599      -0.00065451      -0.00080720
C        1.15342031       2.13691755       3.63432007       0.00000000      -0.00188774       0.00165648       0.00245406
C       -0.02835655       4.29495529       3.61782805       0.00000000      -0.00035539       0.00213324       0.00284332
C       -1.30711464       6.39782717       3.62064410       0.00000000       0.00033580      -0.00080265      -0.00059320
C       -2.54753886       8.53197141       3.64261737       0.00000000       0.00375898      -0.00314331       0.00290331
C        4.85237001      -0.00923130       3.65669396       0.00000000      -0.00107506       0.00118147       0.00239654
C        3.60947158       2.13732805       3.66162599       0.00000000      -0.00380947       0.00009845      -0.00129389
O        2.38053551       4.17981260       3.72268054       0.00000000      -0.00194053      -0.00187863       0.00012178
O        1.07740600       6.43876536       3.67723270       0.00000000      -0.00350457       0.00422711       0.00629201
C       -0.07881278       8.52488331       3.64496991       0.00000000       0.00026992      -0.00297475      -0.00842833
C        7.32321899      -0.02279791       3.66198722       0.00000000       0.00102130      -0.00130567       0.00826083
C        6.07577024       2.13758983       3.66890076       0.00000000       0.00492897      -0.00188013       0.00106049
C        4.79087591       4.29600668       3.68200849       0.00000000      -0.00183734      -0.00313653       0.00087906
O        3.68907485       6.44159745       3.79720840       0.00000000       0.00243314       0.00419394      -0.00581868
C        2.38199957       8.46831942       3.66531171       0.00000000      -0.00482720       0.00398167       0.00028753
C        9.77545846      -0.02282381       3.65909565       0.00000000       0.00056611      -0.00084340       0.00477340
C        8.54920436       2.12521992       3.65900640       0.00000000       0.00308226       0.00046138      -0.00238006
C        7.30202696       4.26111855       3.66066724       0.00000000       0.00189719       0.00014687       0.00213605
C        6.06849597       6.39719740       3.66780269       0.00000000      -0.00013061       0.00081296      -0.00178357
C        4.84088045       8.52435839       3.66620794       0.00000000      -0.00502273      -0.00084248      -0.00291441
C       -0.08818796       1.41954862       3.63950103       0.00000000      -0.00226367      -0.00040306      -0.00003361
C       -1.28641306       3.56890691       3.63117779       0.00000000      -0.00129936       0.00067471       0.00210548
C       -2.54913135       5.68122940       3.63105628       0.00000000       0.00006436       0.00199270       0.00630188
C       -3.78757213       7.82009992       3.64555833       0.00000000       0.00426406      -0.00125015       0.00093581
C       -5.02384733       9.96151714       3.65040025       0.00000000       0.00383197      -0.00049662      -0.00237855
C        2.38143574       1.41417718       3.64800058       0.00000000      -0.00278098      -0.00034817      -0.00021542
C        1.16872610       3.52745987       3.64062076       0.00000000      -0.00073932       0.00273531       0.00041752
C       -0.09462782       5.71584812       3.62100164       0.00000000       0.00140013       0.00159803       0.00671337
C       -1.31915976       7.82291727       3.63526884       0.00000000       0.00185646      -0.00318418      -0.00522792
C       -2.55097766       9.96166167       3.65088906       0.00000000       0.00130521      -0.00262571      -0.00420749
C        4.85060376       1.41937916       3.66442077       0.00000000      -0.00057428       0.00293223      -0.00249211
C        3.59386628       3.52770261       3.68260852       0.00000000      -0.00462757      -0.00024151      -0.00288542
C        1.11794907       7.81563901       3.65381596       0.00000000      -0.00032263      -0.00094496       0.00109928
C       -0.07946578       9.95866805       3.65576258       0.00000000      -0.00035190      -0.00188491       0.00220420
C        7.31623938       1.41354053       3.66536557       0.00000000       0.00590652      -0.00244543      -0.00424760
C        6.04859716       3.56917240       3.67089727       0.00000000       0.00127581      -0.00128501       0.00038603
C        4.85757451       5.71580007       3.70178861       0.00000000      -0.00099767      -0.00110978       0.00083658
C        3.64492613       7.81640909       3.69419343       0.00000000      -0.00692085       0.00192234      -0.00100137
C        2.38123411       9.92124734       3.66319451       0.00000000       0.00066788       0.00182870      -0.00278215
C        9.78224517       1.41357856       3.65352430       0.00000000      -0.00100505      -0.00298585      -0.00052432
C        8.54922491       3.54877350       3.65336797       0.00000000       0.00211022       0.00153017      -0.00363617
C        7.31099562       5.68129596       3.65573251       0.00000000       0.00012455       0.00066039      -0.00381043
C        6.08082322       7.82227682       3.66345584       0.00000000      -0.00048099       0.00253989      -0.00654889
C        4.84162831       9.95845846       3.65673585       0.00000000      -0.00055910      -0.00155387      -0.00078825
Tl       2.32065481       5.67326570       6.17629222       0.00000000      -0.00428077      -0.00144885       0.01931949
O        4.46035314       5.87472198       9.16278752       1.00000000      -0.00565441       0.00052043      -0.00723433
O        4.81142129       5.82210936       7.97279601       1.00000000       0.01115114       0.00250608      -0.00902864
