51
Lattice="12.336457 0.0 0.0 -6.168228499999997 10.683685154694365 0.0 0.0 0.0 15.0" Properties=species:S:1:pos:R:3:initial_magmoms:R:1:forces:R:3 energy=-441.188069535557 free_energy=-441.188069535557 stress="-0.004311890793833918 0.0013242039496331908 -2.1450761175315743e-06 0.0013242039496331908 -0.007305682110129436 -4.648426055127621e-06 -2.1450761175315743e-06 -4.648426055127621e-06 -5.605012124911662e-06" pbc="T T T"
C        0.05145327       0.01723238       3.69909874       0.00000000       0.00173962       0.00202646      -0.00486402
C       -1.17123763       2.15936640       3.61650719       0.00000000       0.00085426      -0.00140726      -0.00454341
C       -2.42273310       4.28995753       3.60571401       0.00000000       0.00200349      -0.00270284      -0.00348243
C       -3.65143208       6.42621683       3.65146892       0.00000000       0.00125361       0.00196251       0.00133611
C       -4.89584228       8.54947215       3.63747947       0.00000000      -0.00269978      -0.00056804       0.00194256
C        2.52132412      -0.01739873       3.85873640       0.00000000       0.00187483      -0.00133226      -0.00096682
C        1.31197476       2.13020666       3.74675663       0.00000000       0.00398714       0.00134202      -0.00209281
C        0.00284216       4.32314338       3.32334622       0.00000000      -0.00242498       0.00302744      -0.00102283
C       -1.19128650       6.43146920       3.66318018       0.00000000      -0.00025539      -0.00347009      -0.00396286
C       -2.41269355       8.55253893       3.76220117       0.00000000      -0.00253428       0.00005503       0.00883587
C        4.99095489       0.00437650       3.94736616       0.00000000      -0.00305400      -0.00289291      -0.00288137
C        3.74951739       2.05406339       4.30803820       0.00000000       0.00015327      -0.00354410      -0.00660124
B        1.24508872       6.43049591       4.21161556       0.00000000      -0.00074314      -0.00294083      -0.00680292
C        0.06298303       8.56800052       3.84382108       0.00000000      -0.00147323      -0.00053194      -0.00788222
C        7.45203676       0.03535463       3.86453746       0.00000000      -0.00537526       0.00433656      -0.00527463
C        6.22447065       2.15811423       4.06843620       0.00000000      -0.00161709      -0.00116508      -0.00410558
C        5.05192073       4.33601662       4.15260605       0.00000000       0.00355010       0.00354601       0.00803753
S        3.60476069       6.29027224       2.89269919       0.00000000      -0.00040664       0.00254760      -0.00058514
C        2.50839759       8.59880963       3.70612036       0.00000000       0.00552694      -0.00191614      -0.00288806
C        9.92513968       0.03405141       3.70365844       0.00000000      -0.00455012      -0.00238859       0.00829670
C        8.68942257       2.16155821       3.77704966       0.00000000       0.00522871       0.00321076       0.00327708
C        7.46195541       4.29153037       3.80582508       0.00000000       0.00139118       0.00064334      -0.00338399
C        6.21848103       6.42255016       3.62070119       0.00000000      -0.00533944       0.00024944       0.00042818
C        4.97844728       8.56442667       3.54327196       0.00000000       0.00063150       0.00029713       0.00319441
C        0.04854533       1.44486073       3.70594058       0.00000000       0.00198016       0.00301857       0.00167865
C       -1.19830644       3.56852058       3.51370698       0.00000000       0.00030798      -0.00085129       0.00127291
C       -2.42617043       5.71415665       3.62138542       0.00000000       0.00162033      -0.00307660       0.00272994
C       -3.65266618       7.84575509       3.67346155       0.00000000      -0.00149046       0.00261122      -0.00232844
C       -4.88800153       9.97254252       3.71524778       0.00000000       0.00047296      -0.00101354       0.00668603
C        2.53495345       1.39419011       4.01750031       0.00000000       0.00276408      -0.00236503      -0.00332554
S        1.44087293       3.53104578       2.63226016       0.00000000      -0.00872420       0.00144474       0.00167814
C        0.02260236       5.72325430       3.62324918       0.00000000       0.00545518      -0.00064063      -0.00198777
C       -1.18192158       7.85132939       3.78029172       0.00000000      -0.00497260      -0.00434178       0.00376015
C       -2.40919397       9.97020067       3.86382532       0.00000000      -0.00011973      -0.00148019       0.00099718
C        5.00123288       1.42373193       4.11770450       0.00000000      -0.00036615      -0.00589438      -0.00291130
S        3.74307467       3.60634318       5.05822632       0.00000000       0.00269976      -0.00364337      -0.00286045
C        1.29696657       7.90080529       3.84976192       0.00000000       0.00289213       0.00358168      -0.00302213
C        0.05791073       9.99904861       3.87831804       0.00000000      -0.00357298       0.00087668       0.00468872
C        7.44914217       1.45909961       3.90663754       0.00000000       0.00209720       0.00616651       0.00502585
C        6.24030899       3.58058883       4.02683858       0.00000000       0.00158304      -0.00032353      -0.00146419
C        5.02237585       5.66476193       3.67806715       0.00000000      -0.00538406      -0.00054407       0.00248464
C        3.73218791       7.91277276       3.45934462       0.00000000       0.00591363      -0.00576185       0.00367848
C        2.51935451      10.02274596       3.76306308       0.00000000      -0.00518804      -0.00122079      -0.00163452
C        9.92374309       1.45404244       3.69622592       0.00000000       0.00205473      -0.00279985       0.00406645
C        8.68825184       3.57784333       3.72875862       0.00000000       0.00387307       0.00108341       0.00225093
C        7.45569135       5.71125659       3.69377760       0.00000000      -0.00156400       0.00325960       0.00087304
C        6.20699546       7.84133293       3.55127762       0.00000000      -0.00253662      -0.00041355      -0.00108253
C        4.98341318       9.99735406       3.64903447       0.00000000      -0.00149730       0.00052168      -0.00177733
V        1.33231045       4.01341464       5.09087536       0.00000000       0.00587029       0.01140185       0.00116913
O        1.88845569       5.81618661       5.25733911       1.00000000       0.01123781       0.00013491      -0.00853081
O        0.53484395       3.40535425       6.36897780       1.00000000      -0.01312752       0.00188536       0.01387665
