52
Lattice="12.336457 0.0 0.0 -6.168228499999997 10.683685154694365 0.0 0.0 0.0 15.0" Properties=species:S:1:pos:R:3:forces:R:3 energy=-447.249715305011 free_energy=-447.249715305011 stress="-0.002206323450207179 -0.002168174231182767 -2.3251117461748436e-05 -0.002168174231182767 -0.004069934767826274 -1.6425997182214925e-06 -2.3251117461748436e-05 -1.6425997182214925e-06 1.2530244918443664e-05" pbc="T T T"
C        0.08058008      -0.05255558       3.73225767       0.00915271      -0.00532707      -0.00189964
C       -1.16318376       2.08415616       3.88197635       0.00007537       0.00366293      -0.00565263
C       -2.40306604       4.22601124       3.67102359       0.01470526       0.00321036       0.00035799
C       -3.61453450       6.36587066       3.45707333      -0.01219433       0.00350927       0.01519465
C       -4.84482052       8.50409465       3.48223976       0.00139050      -0.00589959      -0.01403322
C        2.55617577      -0.08230004       3.75708576       0.00263930       0.00625680      -0.00517267
C        1.30978347       1.96360713       4.30040430       0.00056564       0.00357331       0.01040515
C       -0.02140786       4.26328119       4.21015363       0.01609581       0.00713949      -0.00670737
C       -1.17847709       6.37591809       3.77152869      -0.01391554       0.00877212       0.02283719
C       -2.36831406       8.49690935       3.56344013      -0.00412719       0.01104112       0.00479137
C        5.02687114      -0.05158802       3.71406811      -0.00427575       0.00060698      -0.01908749
C        3.78559228       2.00595511       4.15921819      -0.00257864      -0.00118281      -0.01443342
B        1.18805579       6.47205286       4.51854168       0.00752184      -0.01397864       0.01020393
C        0.10204678       8.50020544       3.76052532       0.00058182       0.00368620      -0.00512304
C        7.49190491      -0.04055883       3.67378711      -0.00524917      -0.00438847      -0.00372596
C        6.23775297       2.11622474       3.74579470      -0.01067112      -0.00593058      -0.00137309
C        5.02756099       4.34173071       3.79296077       0.00012410       0.01016089       0.00531654
O        3.84971639       6.43601975       3.59697393      -0.00122305      -0.01111439       0.00380127
C        2.58940789       8.49347935       3.74835580       0.00021314      -0.01102273       0.01538059
C        9.95412221      -0.04199554       3.66223140      -0.00363635      -0.00868144       0.01199380
C        8.71083773       2.09758177       3.64578341      -0.00483440      -0.00364947      -0.00240833
C        7.46976470       4.24111078       3.52279540       0.01193735      -0.00056723       0.00595564
C        6.25591709       6.39458600       3.40593871      -0.00331434       0.00247617       0.00185785
C        5.02862067       8.50954899       3.54705019       0.00455695      -0.00149643      -0.00816680
C        0.06771808       1.35267791       3.97914189       0.00350111       0.00004556       0.00961703
C       -1.18573697       3.50785061       3.90609418       0.01368933       0.00372218       0.00625515
C       -2.39609443       5.65211515       3.60217303      -0.00769054       0.00397093      -0.01189339
C       -3.60430582       7.79079246       3.47087064      -0.00065628       0.00225877       0.00828603
C       -4.85025136       9.91685207       3.64433073       0.00795132      -0.00752259      -0.00677660
C        2.55147461       1.29445160       4.07785191       0.00230799       0.00256820       0.00392097
P        1.40559500       3.58042595       4.94182684      -0.00966819       0.01249028       0.02275305
C       -0.00710975       5.68001754       4.15807218       0.00153558       0.00530913      -0.01164024
C       -1.13881062       7.78929303       3.68990888      -0.00460193       0.01037608       0.00103569
C       -2.37091716       9.91272980       3.65193270      -0.00193188       0.00720363       0.01294904
C        5.02338556       1.37331798       3.86174708      -0.00784934      -0.00893457      -0.00219359
P        3.73182125       3.64722929       4.73537047      -0.01536162       0.00230539       0.00053677
C        1.34737544       7.81950703       3.94161093      -0.00580233      -0.00437979       0.01815686
C        0.09168503       9.92836712       3.68114602      -0.00491550       0.00240290       0.00155469
C        7.47495777       1.39243249       3.66671221      -0.01013755      -0.00547155      -0.00782712
C        6.22737563       3.55338949       3.67207319       0.00090964       0.00233523       0.00091537
C        5.04361506       5.73697194       3.56749885       0.00316411       0.00251128      -0.01835687
C        3.83006684       7.80407818       3.64561916       0.00244143       0.00073896      -0.03038696
C        2.56531177       9.92113121       3.66702323      -0.00501503      -0.01104219      -0.00409198
C        9.94866364       1.38579075       3.71251881      -0.00429187      -0.00195778      -0.00572217
C        8.70496573       3.52074167       3.58860128       0.01616686      -0.00004178       0.00573200
C        7.48494412       5.65836467       3.42964103      -0.00513456       0.00061265      -0.00199136
C        6.26253622       7.80848935       3.44309076       0.00224737      -0.00156785       0.00180464
C        5.01677764       9.93261382       3.63309352       0.00469651      -0.00454705       0.00759852
V        1.97578822       5.53925058       6.31323207       0.00693767       0.01227352      -0.02114601
O        3.47983863       6.14841045       6.52642414       0.01337290      -0.01514843       0.00559611
O        0.94096432       5.47889529       7.86120807       0.00498462      -0.03464715       0.01614947
H        0.20480685       4.85760080       7.99904825      -0.00438970       0.03327927      -0.02114741
