51
Lattice="12.336457 0.0 0.0 -6.168228499999997 10.683685154694365 0.0 0.0 0.0 15.0" Properties=species:S:1:pos:R:3:initial_magmoms:R:1:forces:R:3 energy=-449.0614878397869 free_energy=-449.0614878397869 stress="-0.004445127697001053 -0.0036697242899697527 -9.324087931006915e-06 -0.0036697242899697527 -0.0009880248351869468 4.210471297533881e-06 -9.324087931006915e-06 4.210471297533881e-06 -2.156421686428983e-06" pbc="T T T"
C       -0.02302583      -0.01625163       3.77588871       0.00000000       0.00380219       0.00795530      -0.01151443
C       -1.27855865       2.11005109       3.71578642       0.00000000      -0.00111927       0.00822760       0.01222972
C       -2.48413620       4.25779068       3.60814558       0.00000000      -0.00123040       0.00839737       0.00119791
C       -3.68586876       6.40788410       3.60021957       0.00000000      -0.00246328      -0.00491220       0.00562940
C       -4.92726140       8.55262560       3.70889870       0.00000000      -0.00631940      -0.00892752      -0.00044178
C        2.43966012       0.00806124       3.80866148       0.00000000       0.00688706      -0.00155245      -0.00142659
C        1.15033500       2.11083162       3.89128710       0.00000000      -0.00503993       0.00621651      -0.00917957
C       -0.07268489       4.21405698       3.92951855       0.00000000       0.00762844      -0.01018036      -0.00256391
C       -1.23445681       6.36946567       3.82808187       0.00000000      -0.00195456       0.01022845       0.00843986
C       -2.46755769       8.53690772       3.77993616       0.00000000      -0.00337653       0.00101380      -0.00131046
C        4.90584110       0.00286877       3.71874597       0.00000000       0.00106266       0.00376344       0.00033619
C        3.63529567       2.10048966       3.50308122       0.00000000      -0.01038966       0.00178434      -0.00148215
B        1.13390754       6.39657089       4.54534992       0.00000000      -0.00584428       0.00088771      -0.00363274
C       -0.01222068       8.54285458       3.93022073       0.00000000       0.00519802      -0.00177473      -0.00692705
C        7.37114799      -0.00746886       3.71380496       0.00000000      -0.00546829      -0.00913173       0.00033064
C        6.12894801       2.13833631       3.47499941       0.00000000       0.00267872       0.00711925      -0.00320665
C        4.98364317       4.32729285       3.34240484       0.00000000      -0.00724287       0.00334426      -0.01513996
C        3.78947217       6.41051909       3.78401218       0.00000000       0.01229664      -0.00727864       0.00733575
C        2.43449388       8.52406877       3.92965761       0.00000000       0.00949295       0.00197140       0.00094004
C        9.83510741      -0.02356075       3.73014578       0.00000000       0.00509815      -0.00186760       0.00158101
C        8.60044684       2.12261675       3.57375788       0.00000000       0.01071806      -0.00521077       0.00047316
C        7.40263492       4.27184317       3.46395188       0.00000000      -0.00337171       0.00582299       0.00679142
C        6.22427315       6.44437951       3.53782854       0.00000000      -0.00473320      -0.00360991      -0.01541771
C        4.92761157       8.53593947       3.74681289       0.00000000      -0.00791645      -0.00821319       0.00406932
C       -0.04074132       1.41158825       3.79814192       0.00000000      -0.00234418       0.01256535      -0.00050249
C       -1.26755237       3.52469055       3.71140489       0.00000000      -0.00076321       0.00487884       0.00138472
C       -2.46773905       5.67674607       3.64768012       0.00000000      -0.00159181       0.00616173       0.00947624
C       -3.69645011       7.83207240       3.69222057       0.00000000      -0.00434373      -0.00832125       0.00508025
C       -4.95048990       9.97342809       3.78700315       0.00000000       0.00471794      -0.00082785       0.00405077
C        2.40708690       1.44406483       3.79142925       0.00000000      -0.00774759      -0.00119754      -0.00292784
O        1.08281966       3.46950090       4.18225045       0.00000000      -0.00859517      -0.01132567       0.00295669
C       -0.04725411       5.61312662       3.99925607       0.00000000      -0.01007246      -0.00661676      -0.00627040
C       -1.24008651       7.81212486       3.86364731       0.00000000      -0.00208814       0.01073213       0.01077923
C       -2.48800510       9.97276814       3.78234994       0.00000000       0.00584163       0.00088182       0.00505589
C        4.88446572       1.43391199       3.55304432       0.00000000      -0.00177315       0.00765928       0.00292951
S        3.49517648       3.67940335       2.75478356       0.00000000       0.00897128       0.00084331      -0.01303288
C        1.21100079       7.85780913       4.09328099       0.00000000       0.01123420       0.00609907       0.00749926
C       -0.02595416       9.97451784       3.78229029       0.00000000      -0.00609226      -0.00513108       0.00365588
C        7.35953417       1.41990766       3.57363807       0.00000000       0.00560528      -0.00557454       0.00670815
C        6.16494466       3.55679576       3.40053156       0.00000000      -0.00473643       0.00741175      -0.00892027
C        4.98748817       5.74276672       3.53482247       0.00000000       0.00324510      -0.00411981      -0.00671293
C        3.69120335       7.79721352       3.84753546       0.00000000      -0.00053908      -0.01264305       0.01068372
C        2.43520819       9.95185024       3.78210460       0.00000000       0.00238619       0.00253329       0.00110004
C        9.83425262       1.40356897       3.66397074       0.00000000       0.01116877      -0.00446141      -0.00939023
C        8.61803631       3.54724258       3.52609585       0.00000000      -0.00056002       0.00229303       0.01365556
C        7.42521996       5.70302851       3.50666952       0.00000000      -0.00344989       0.00192490      -0.00345215
C        6.18055582       7.85027370       3.65982907       0.00000000      -0.01129839      -0.00707536      -0.00587244
C        4.91028885       9.95292317       3.75645918       0.00000000       0.00230183      -0.00361279       0.00007436
V        3.13937505       4.81070063       4.94018669       0.00000000       0.00612979       0.00376846      -0.00101320
O        1.78989496       5.86263362       5.63669400       1.00000000      -0.00377329      -0.00020948       0.01086863
O        3.92983308       4.00214699       6.11625337       1.00000000       0.00977375      -0.00070969      -0.01497546
