52
Lattice="12.336457 0.0 0.0 -6.168228499999997 10.683685154694365 0.0 0.0 0.0 15.0" Properties=species:S:1:pos:R:3:initial_magmoms:R:1:forces:R:3 energy=-460.9225445308527 free_energy=-460.9225445308527 stress="-0.002970295693104215 0.002836887916463803 -1.8405850767924843e-06 0.002836887916463803 -0.00119012933876483 -1.5045684170209353e-05 -1.8405850767924843e-06 -1.5045684170209353e-05 8.531870539647113e-06" pbc="T T T"
C       -0.01377150       0.00429077       3.61179491       0.00000000      -0.00019186      -0.00365034       0.00051959
C       -1.23573045       2.14178901       3.64030313       0.00000000      -0.00170925      -0.00064147       0.00390981
C       -2.46223863       4.27846851       3.71950170       0.00000000      -0.00351144      -0.00372098       0.00078076
C       -3.71066751       6.41400751       3.70290819       0.00000000       0.00222131       0.00223909       0.00103911
C       -4.96224996       8.54605635       3.61552922       0.00000000      -0.00009026       0.00001492      -0.00008533
C        2.45002989       0.01043215       3.74504549       0.00000000       0.00201405       0.00093785      -0.00095166
C        1.23276874       2.16163948       3.58569097       0.00000000      -0.00292523      -0.00140350       0.00803711
C       -0.00997641       4.29018227       3.64092165       0.00000000       0.00018904       0.00445500       0.00136266
C       -1.25621021       6.42569994       3.82387989       0.00000000      -0.00237845      -0.00157348       0.00305250
C       -2.49472153       8.55651863       3.82925795       0.00000000      -0.00071842      -0.00094189       0.00027841
C        4.92215301       0.00091987       3.93920394       0.00000000      -0.00048712      -0.00160697      -0.00429106
C        3.70349862       2.13049736       3.84041579       0.00000000      -0.00057803       0.00302156      -0.00102725
B        2.55205117       4.34115972       3.27495377       0.00000000       0.00186555      -0.00283408       0.00396886
C        1.17990428       6.42374209       4.06234280       0.00000000       0.00233639      -0.00074315       0.00060953
C       -0.02304039       8.55146085       3.98921847       0.00000000       0.00158221      -0.00018995      -0.00214754
C        7.39872315      -0.00371865       3.94881435       0.00000000       0.00458595       0.00281094       0.00138030
C        6.18485144       2.12026311       3.92378969       0.00000000      -0.00028666      -0.00139698       0.00069290
C        4.99940069       4.23474991       3.71037860       0.00000000      -0.00012353       0.00140820      -0.00279342
P        3.37791855       6.15437321       2.92691007       0.00000000       0.00154376      -0.00254699       0.00121028
C        2.44632088       8.55482688       3.81739189       0.00000000      -0.00059438      -0.00130482      -0.00180610
C        9.86360746      -0.00099141       3.73534983       0.00000000      -0.00118790      -0.00094631      -0.00040157
C        8.64446889       2.13299332       3.81887551       0.00000000       0.00130939       0.00017636       0.00191069
C        7.42790424       4.26829627       3.76133841       0.00000000      -0.00096706       0.00018319      -0.00020775
C        6.16810882       6.39546436       3.50410358       0.00000000       0.00086888      -0.00297758      -0.00282680
C        4.89609049       8.53295872       3.50729873       0.00000000       0.00002926       0.00133489       0.00224935
C       -0.00091086       1.43527891       3.60264461       0.00000000      -0.00287944      -0.00393971       0.00377275
C       -1.23784358       3.56760822       3.64851092       0.00000000      -0.00052939       0.00126978       0.00405034
C       -2.47355456       5.70699217       3.74585856       0.00000000      -0.00186001      -0.00361485       0.00056028
C       -3.72303491       7.84115808       3.70973919       0.00000000       0.00003038       0.00202662      -0.00370458
C       -4.95103953       9.97575047       3.64603238       0.00000000       0.00209662      -0.00078590       0.00396490
C        2.46013881       1.43829214       3.72382858       0.00000000       0.00070236       0.00250872       0.00009848
C        1.21926469       3.60040135       3.49940204       0.00000000       0.00221574       0.00177609       0.00437808
C       -0.01298130       5.71046277       3.84516027       0.00000000      -0.00052302       0.00470494      -0.00026630
C       -1.26170590       7.84478245       3.90428596       0.00000000      -0.00023488      -0.00137244       0.00275142
C       -2.48808468       9.98033968       3.85109696       0.00000000      -0.00048043      -0.00205042      -0.00321079
C        4.93430198       1.41876902       3.92735873       0.00000000      -0.00255398      -0.00074848      -0.00155163
C        3.75282120       3.55327925       3.79123040       0.00000000      -0.00226857       0.00334422      -0.00492529
C        1.21031992       7.83455489       3.99634109       0.00000000       0.00034923      -0.00130042      -0.00242953
C       -0.01276702       9.97233268       3.98022538       0.00000000       0.00357458       0.00148489      -0.00233174
C        7.41181484       1.41556849       3.91662937       0.00000000       0.00228022       0.00248908      -0.00034334
C        6.21589065       3.53597079       3.82996234       0.00000000      -0.00152444      -0.00096252      -0.00601295
C        4.98926352       5.61551340       3.42163460       0.00000000      -0.00146274      -0.00272425      -0.00355802
C        3.63052354       7.86330401       3.47544394       0.00000000       0.00069568       0.00291958      -0.00062917
C        2.46100216       9.97614179       3.85954815       0.00000000       0.00094631      -0.00156713       0.00134698
C        9.87206385       1.42446256       3.73454460       0.00000000      -0.00025560      -0.00124103       0.00417985
C        8.65212830       3.55858221       3.77384286       0.00000000      -0.00374033      -0.00206623      -0.00298671
C        7.40698497       5.69293404       3.65270641       0.00000000       0.00370153       0.00114373      -0.00187093
C        6.14409822       7.82751198       3.50400197       0.00000000      -0.00006956      -0.00153072      -0.00440704
C        4.91856372       9.96551628       3.61367996       0.00000000      -0.00156007       0.00067303      -0.00254515
V        2.39483455       5.15114654       5.29131687       0.00000000      -0.00100067      -0.00215909       0.01770794
O        1.47467655       4.26404169       6.34340414       1.00000000       0.00447776       0.00692314       0.00196879
O        3.60382569       5.99777887       6.05660491       1.00000000      -0.00292348       0.00469590      -0.01847005
