51
Lattice="12.336457 0.0 0.0 -6.168228499999997 10.683685154694365 0.0 0.0 0.0 15.0" Properties=species:S:1:pos:R:3:initial_magmoms:R:1:forces:R:3 energy=-449.79331582680146 free_energy=-449.79331582680146 stress="-0.004937234629804277 -0.003257681471782107 3.959688796730156e-07 -0.003257681471782107 -0.000445348506838636 2.518370806716074e-07 3.959688796730156e-07 2.518370806716074e-07 1.955913738099482e-05" pbc="T T T"
C       -0.01862342      -0.01291325       3.79215163       0.00000000      -0.00911316       0.00487464      -0.00934258
C       -1.27193926       2.11064312       3.74030483       0.00000000      -0.00154784       0.00370669       0.01770585
C       -2.48099916       4.26070454       3.63886535       0.00000000       0.00012223      -0.00250326       0.00114971
C       -3.68615823       6.41031978       3.63233495       0.00000000       0.00148913      -0.01046123      -0.00216978
C       -4.92664354       8.55565379       3.72902601       0.00000000       0.00970076       0.00404017       0.00834573
C        2.44276883       0.01677705       3.78667616       0.00000000       0.00342392      -0.00455457      -0.00372035
C        1.16051180       2.12001104       3.88978186       0.00000000      -0.00034136      -0.00012239      -0.00726919
C       -0.07339117       4.21886936       3.96183774       0.00000000      -0.00215129      -0.00431761      -0.00186015
C       -1.23394550       6.37441890       3.84775012       0.00000000       0.00123781       0.00610783       0.00086710
C       -2.46623732       8.54454062       3.77835228       0.00000000      -0.00607073       0.00332321       0.00696039
C        4.91101074       0.00935209       3.68594387       0.00000000       0.00361298       0.00373143      -0.00552603
C        3.64136701       2.12341767       3.46477542       0.00000000      -0.00604704      -0.00024269       0.01275533
B        1.14166267       6.40293769       4.54078823       0.00000000       0.00150597      -0.00858721      -0.00563898
C       -0.00989374       8.54791495       3.91660569       0.00000000      -0.00362573       0.00488238      -0.00019529
C        7.37924384      -0.00769059       3.69741444       0.00000000      -0.00431559      -0.00156224       0.01613800
C        6.14322989       2.13677504       3.47280647       0.00000000       0.00298581      -0.00472764      -0.00868616
C        4.97750951       4.32102678       3.40712274       0.00000000       0.00731876       0.00422182      -0.00105787
C        3.78856259       6.40902471       3.76649531       0.00000000      -0.00834949      -0.00726717      -0.00751659
C        2.43855987       8.52530191       3.92184942       0.00000000       0.00471998       0.00452782      -0.00145056
C        9.84284093      -0.02423358       3.74072886       0.00000000      -0.00286038      -0.00454434       0.00007381
C        8.61002384       2.12126211       3.58556837       0.00000000       0.00104181      -0.00137255       0.00583637
C        7.40670447       4.26963978       3.49441462       0.00000000       0.00100540       0.00700430      -0.00437708
C        6.22590812       6.44270146       3.58057653       0.00000000       0.00110044       0.01158083       0.00124640
C        4.92753714       8.53337612       3.77224451       0.00000000       0.00482097      -0.00974203      -0.00609283
C       -0.03548288       1.41451735       3.81571187       0.00000000      -0.00116223       0.00537839       0.00327560
C       -1.26370259       3.52837548       3.74352946       0.00000000      -0.00434853       0.00005989       0.01185654
C       -2.46735582       5.68040298       3.67813781       0.00000000       0.00529282      -0.00430125       0.00493151
C       -3.69581672       7.83644780       3.71125462       0.00000000       0.00191331      -0.00925793       0.00015099
C       -4.94458099       9.97845424       3.79062772       0.00000000      -0.00321620       0.00546201       0.00756182
C        2.41191666       1.45120932       3.74987028       0.00000000       0.00026752      -0.00809579       0.00757968
O        1.09285522       3.48088146       4.20938787       0.00000000      -0.01547271      -0.00598851      -0.00980632
C       -0.04750612       5.61648375       4.01267769       0.00000000      -0.00399192      -0.00191817       0.00034628
C       -1.23923138       7.81829413       3.86699438       0.00000000      -0.00717706       0.00844918      -0.00727142
C       -2.48531799       9.97950031       3.75951981       0.00000000       0.00575590       0.00301445       0.00556105
C        4.89348058       1.43533055       3.52216161       0.00000000      -0.00119775      -0.00049027      -0.01363340
P        3.48438864       3.72855889       2.70805318       0.00000000      -0.00052566      -0.00364083      -0.01437486
C        1.21156825       7.86216716       4.08138930       0.00000000       0.00167843       0.00607322      -0.00289290
C       -0.02331362       9.97879183       3.75672138       0.00000000      -0.00196913       0.00332041       0.01468948
C        7.37356896       1.41688690       3.56976075       0.00000000       0.00058110      -0.00591484       0.00153855
C        6.17816094       3.55572622       3.42414443       0.00000000       0.00948512      -0.00089429      -0.00284393
C        5.00008077       5.74734360       3.57834795       0.00000000       0.00275457       0.00743854      -0.00310927
C        3.69151708       7.79506560       3.84756420       0.00000000       0.00309551      -0.00499290      -0.00521924
C        2.44197924       9.95138863       3.77765833       0.00000000      -0.00335515       0.00273687      -0.00106659
C        9.84293453       1.40347141       3.67860021       0.00000000       0.00299856      -0.00229855      -0.00064385
C        8.62275668       3.54863837       3.55110412       0.00000000      -0.00222491       0.00167703       0.01170730
C        7.42853083       5.70299981       3.54580696       0.00000000      -0.00618101       0.00554819       0.00801890
C        6.18278803       7.84872959       3.69479477       0.00000000       0.01137481       0.00702737      -0.00634856
C        4.91603074       9.95178239       3.77713688       0.00000000      -0.00602494      -0.00935057      -0.00001535
V        3.13420290       4.77213226       4.90333200       0.00000000       0.01259230       0.00006884       0.00409491
O        1.80731952       5.87645181       5.62003894       1.00000000       0.00208740       0.00427282      -0.00561938
O        3.83226691       3.84213953       6.05561296       1.00000000      -0.00269352      -0.00137949      -0.01464280
