52
Lattice="12.336457 0.0 0.0 -6.168228499999997 10.683685154694365 0.0 0.0 0.0 15.0" Properties=species:S:1:pos:R:3:forces:R:3 energy=-440.38824592942666 free_energy=-440.38824592942666 stress="-0.0004722757360710388 0.0012932873998360525 4.504025028183453e-05 0.0012932873998360525 -0.008464406719598926 2.6032116642630102e-05 4.504025028183453e-05 2.6032116642630102e-05 -8.299856207459357e-07" pbc="T T T"
C        0.07616295      -0.04109080       3.74589145       0.00253293      -0.00709040       0.00326422
C       -1.14063843       2.11393010       3.65080635       0.01095660       0.00980715      -0.00440112
C       -2.37895265       4.24660707       3.71141826      -0.00206568       0.00404126       0.00250883
C       -3.61856724       6.37162862       3.75931335      -0.00448905      -0.00772387       0.01223677
C       -4.87875688       8.48553442       3.73131375      -0.00320725      -0.00364021       0.00469830
C        2.54172140      -0.07388814       3.88353262      -0.00539693       0.00104802      -0.00127505
C        1.34002816       2.05666944       3.68117759       0.00896627      -0.00660176       0.00621933
C        0.02251882       4.23788781       3.23567925       0.00751244       0.00511126      -0.00999986
C       -1.14318325       6.38624223       3.59710148       0.00026120      -0.00800430       0.00786606
C       -2.38793217       8.49938850       3.76702519       0.00061263       0.00188556       0.01085786
C        5.00885808      -0.03558530       3.97729145      -0.00587925       0.00850054       0.00637162
C        3.75585505       2.00540890       4.35774302      -0.00907557       0.00697777      -0.00581485
B        1.43952303       6.43317372       3.49899581      -0.01261566       0.00211313       0.00152839
C        0.07134933       8.55083936       3.68678877       0.01193614      -0.00108353       0.00276196
C        7.46816466       0.01330408       3.87828082       0.00347926       0.00098177       0.00727457
C        6.24835377       2.11262446       4.21857093      -0.00477253      -0.00649641      -0.01310824
C        5.08443218       4.28047365       4.41786379       0.01387840       0.00269817       0.00063914
S        3.45313061       6.17734741       3.29414280       0.00538540       0.00912918       0.01155679
C        2.53362363       8.61916938       3.58613001       0.00141870      -0.00263799       0.00941587
C        9.95706652       0.00433372       3.75607293       0.00392323      -0.00556394       0.00185362
C        8.72268965       2.12728992       3.91434028       0.00237389       0.01255543      -0.00509382
C        7.49738540       4.24801410       4.01543462      -0.00473642       0.00072950      -0.00520855
C        6.22232652       6.35949382       3.81375151       0.00145269       0.00418468      -0.00176991
C        4.99184317       8.50847140       3.63337052      -0.00379369      -0.00774829       0.00620362
C        0.08366832       1.38903421       3.69951633       0.01069760      -0.00381341      -0.00751526
C       -1.16707971       3.51614661       3.53467707       0.00407672       0.01147143      -0.00340086
C       -2.37510981       5.67046806       3.69046643      -0.00522338      -0.00497012       0.00398955
C       -3.62840438       7.78850660       3.74295127      -0.00229814      -0.00516150       0.01005458
C       -4.86661315       9.91164633       3.77022105      -0.00119866      -0.00312195      -0.00352905
C        2.55140540       1.34940805       3.99107019       0.00138610      -0.00378486      -0.00398876
S        1.41664702       3.38789747       2.52491181      -0.00341643       0.01132898      -0.00549294
C        0.10663306       5.66680241       3.43180276       0.00212453       0.00047547      -0.00479116
C       -1.15093720       7.80309000       3.68911016       0.00611094      -0.00302699      -0.00817832
C       -2.38722689       9.91693122       3.88390751      -0.00603536       0.00656324       0.01074277
C        5.01469543       1.37922473       4.20520032      -0.01028333       0.00666202      -0.00343209
S        3.71216820       3.51725976       5.18896248      -0.00292317      -0.01233516      -0.00314738
C        1.32073869       7.91738121       3.54679446       0.00759643      -0.00514192      -0.00438290
C        0.07278466       9.97048965       3.85193299      -0.00074045       0.00699583      -0.01302945
C        7.47419635       1.42526067       4.01968563       0.00358210       0.00307740       0.00294226
C        6.27711083       3.53277058       4.25832209       0.00353079      -0.00684161      -0.00361593
C        5.02365265       5.59575676       3.95133959       0.00118753       0.00805257       0.00819962
C        3.73343528       7.88793990       3.51389653      -0.00538432       0.00279323       0.00001296
C        2.54250176      10.02123003       3.74423561       0.00197021      -0.00483853       0.00362672
C        9.95935811       1.42156727       3.78767571       0.00571861       0.00445486      -0.00429055
C        8.72940600       3.54117535       3.89668877      -0.00496582       0.01244042      -0.00497552
C        7.47960283       5.66324592       3.86943354      -0.00495739      -0.00213955       0.00273917
C        6.21993863       7.77776208       3.69364733      -0.00281042      -0.00299827      -0.01028733
C        5.00498998       9.94647659       3.70586435       0.00276717      -0.01103743      -0.00189285
V        1.68224021       4.52391466       4.52115091      -0.00023534      -0.01302639      -0.00698874
O        1.55919871       5.84797161       6.64742973       0.00139254      -0.00783853      -0.00562281
O        0.72611262       5.08356850       7.49245088      -0.01175026       0.00726968       0.00078167
H        1.39392873       4.65007119       8.06037490      -0.00857657      -0.00468162       0.00688705
