51
Lattice="12.336457 0.0 0.0 -6.168228499999997 10.683685154694365 0.0 0.0 0.0 15.0" Properties=species:S:1:pos:R:3:initial_magmoms:R:1:forces:R:3 energy=-442.12216134023544 free_energy=-442.12216134023544 stress="-0.004710329814440361 -0.0037955808068903464 9.73219163578918e-06 -0.0037955808068903464 -0.005471589866658225 -2.9508276487408095e-05 9.73219163578918e-06 -2.9508276487408095e-05 1.2641539158561543e-05" pbc="T T T"
C       -0.03408829      -0.05467331       3.68137589       0.00000000       0.00325132       0.00092588       0.00243675
C       -1.29149267       2.07862632       3.84122519       0.00000000       0.00721703       0.00422699       0.00384014
C       -2.50835237       4.22813074       3.61700779       0.00000000       0.00033488      -0.00120074       0.00472914
C       -3.70297397       6.37524159       3.42131596       0.00000000      -0.00044168      -0.01074119      -0.00018994
C       -4.94112630       8.51548923       3.46186818       0.00000000       0.00344078      -0.00079845       0.00209751
C        2.44177516      -0.07400755       3.71904656       0.00000000      -0.00449614       0.00702002       0.00137786
C        1.18350575       1.98967400       4.20215358       0.00000000       0.00591003       0.00000474       0.00770150
C       -0.15277995       4.24250853       4.24286381       0.00000000      -0.00795841       0.00502093       0.00217124
C       -1.27240356       6.37142719       3.76891509       0.00000000      -0.00556538      -0.00338502      -0.00307386
C       -2.47582077       8.49981725       3.57761974       0.00000000      -0.00149314       0.00370466       0.00436471
C        4.90673871      -0.04014497       3.62782987       0.00000000      -0.00598188       0.00526687       0.00339073
C        3.62660638       2.03813323       3.69275033       0.00000000      -0.00305781      -0.01032435       0.00506325
B        1.17313571       6.39843647       4.39171610       0.00000000      -0.00545673       0.00960551       0.00287848
C       -0.02088140       8.50703463       3.78229209       0.00000000       0.00370120       0.00099891       0.00215768
C        7.37030672      -0.04001107       3.61137182       0.00000000      -0.00073326      -0.00380857      -0.00096525
C        6.11509824       2.11260007       3.47273055       0.00000000       0.00033480       0.00373148      -0.00770689
C        4.97203291       4.33305061       3.39333664       0.00000000       0.00640022       0.00538526      -0.00019968
N        3.79589478       6.40178413       3.80647659       0.00000000      -0.01100017      -0.00080244       0.00443461
C        2.46379374       8.49337878       3.79678696       0.00000000       0.00252122      -0.00563372      -0.00144280
C        9.83328473      -0.04632281       3.62298617       0.00000000      -0.00670244       0.00207760      -0.00924361
C        8.59378512       2.09605165       3.53548804       0.00000000      -0.00074750       0.00758934       0.00126989
C        7.38495286       4.24693714       3.36657591       0.00000000       0.01272170      -0.00547160      -0.00688440
C        6.18846470       6.41725100       3.33204190       0.00000000       0.00765532      -0.00475965      -0.00679722
C        4.92346679       8.51016210       3.52811455       0.00000000      -0.00434224      -0.00502829      -0.00218263
C       -0.05158122       1.35471773       3.92236670       0.00000000       0.00933322       0.00415863       0.00297077
C       -1.31101417       3.50035265       3.89053331       0.00000000      -0.00386683       0.00308470       0.00781950
C       -2.49108939       5.65514869       3.57397325       0.00000000      -0.00360499      -0.00862671      -0.00173536
C       -3.70528487       7.79732750       3.46496163       0.00000000       0.00116859      -0.00539183       0.00580051
C       -4.96242600       9.92135780       3.61909823       0.00000000       0.00157023       0.00191304       0.00981407
C        2.42193932       1.32792615       3.92352907       0.00000000      -0.00326362       0.00005081      -0.00737178
P        1.14979851       3.48449225       5.14200498       0.00000000      -0.01217906      -0.00679193      -0.00238006
C       -0.09833565       5.65067854       4.11678436       0.00000000      -0.00315504       0.00468739       0.00555214
C       -1.24793977       7.78913615       3.70510282       0.00000000       0.00127871      -0.00056542       0.00125924
C       -2.48483461       9.92059446       3.63086041       0.00000000      -0.00728180       0.00797723      -0.00231928
C        4.88470691       1.40003320       3.58507266       0.00000000      -0.00193131       0.00035717      -0.00388122
S        3.39414189       3.70551836       3.34431647       0.00000000       0.00178290      -0.01456947      -0.00763239
C        1.22283352       7.82130884       3.96861110       0.00000000       0.00308499       0.00038241      -0.00279268
C       -0.02761286       9.93384330       3.65674749       0.00000000      -0.00299588       0.00178567      -0.00359749
C        7.35152564       1.39183919       3.51809587       0.00000000      -0.00069859       0.00201905      -0.00470395
C        6.13555196       3.54176425       3.37675986       0.00000000       0.00973490       0.00610620      -0.00863228
C        4.96556446       5.73944264       3.45458261       0.00000000      -0.00167733       0.00837940      -0.00383106
C        3.71360391       7.77581055       3.71507210       0.00000000      -0.00633685      -0.00202825       0.00475994
C        2.44256485       9.92457086       3.65139647       0.00000000      -0.00239092      -0.00965794      -0.00236508
C        9.82554722       1.37918362       3.64671954       0.00000000      -0.00051327       0.00712375       0.00457683
C        8.60405958       3.52121066       3.47872263       0.00000000       0.00641341       0.00178284       0.00335708
C        7.40175117       5.67046339       3.33171350       0.00000000       0.00734364      -0.01261140       0.00339608
C        6.16482317       7.82517550       3.40980652       0.00000000       0.00406565      -0.00431410      -0.00240868
C        4.90350648       9.92776144       3.59572110       0.00000000      -0.00258838      -0.00181573       0.00117144
V        2.77186979       5.32059797       5.13724001       0.00000000       0.00836100       0.00286137       0.00841875
O        3.68138379       5.90895581       7.93769492       1.00000000      -0.00164274       0.00757112      -0.00866022
O        3.30695319       5.66225179       6.70423921       1.00000000       0.00447763       0.00252785      -0.00581204
