52
Lattice="12.336457 0.0 0.0 -6.168228499999997 10.683685154694365 0.0 0.0 0.0 15.0" Properties=species:S:1:pos:R:3:forces:R:3 energy=-452.3262334131585 free_energy=-452.3262334131585 stress="-0.004731932152621929 -0.0027078895152625976 -7.33396482447814e-06 -0.0027078895152625976 -0.0029904155485835247 1.596887277184025e-05 -7.33396482447814e-06 1.596887277184025e-05 3.1143233543737052e-06" pbc="T T T"
C        0.03786095       0.02463631       3.82833671      -0.00422291      -0.00777389       0.00382012
C       -1.21192414       2.14504360       3.79647107       0.00161040      -0.00294818       0.00536830
C       -2.43031146       4.29056511       3.80036620      -0.00358318       0.00380716      -0.00320986
C       -3.63977749       6.43622300       3.82367073      -0.00371875       0.00335727       0.00194752
C       -4.87617862       8.58352312       3.85412271       0.00764037      -0.00441500       0.00330315
C        2.50644232       0.03325224       3.77667982       0.00021878      -0.00008880       0.00435050
C        1.24145007       2.18025560       3.78369579      -0.00032877      -0.00052126       0.01393604
C        0.01931442       4.24248840       3.90665439       0.00160086      -0.00310905       0.01053994
C       -1.17305119       6.41896744       3.89280747      -0.00605099       0.00250090       0.00334229
C       -2.41308250       8.57169717       3.83725538      -0.00037458      -0.00063487      -0.00442025
C        4.97343210       0.02954173       3.70355071       0.00673825      -0.00265451       0.00345315
C        3.71586779       2.13014275       3.42997350      -0.00617089       0.00202492       0.00049317
B        1.35315470       6.39320021       4.08627826       0.00507499       0.00378032      -0.00685271
C        0.04456246       8.57359411       3.86608301      -0.00017085       0.00380131       0.01183616
C        7.43843524       0.02895489       3.75327595       0.00464618      -0.00024707       0.00175191
C        6.20351431       2.16750074       3.57315403       0.00130764       0.00125070       0.00226516
C        5.01966690       4.34667091       3.56099267       0.00402115       0.00523355      -0.00367930
C        3.77556134       6.43472759       3.86836767      -0.00856821      -0.00575058       0.00686942
C        2.51628063       8.58343803       3.90172249       0.00113915       0.00369255      -0.00701309
C        9.90660711       0.02042781       3.80886967      -0.01017391       0.00050265       0.00692661
C        8.66668577       2.15986020       3.72526121       0.00177329      -0.00148683       0.00012391
C        7.45197529       4.30396480       3.70967400       0.00366255       0.00472962       0.00441052
C        6.24961722       6.46244568       3.79744478       0.00400705       0.00311642      -0.00277762
C        4.98446609       8.57151075       3.87424587      -0.00020920      -0.00110982      -0.01052498
C        0.02356363       1.44677773       3.80080940       0.00126790      -0.00482909       0.00335506
C       -1.21426137       3.55670456       3.81469986      -0.00145662      -0.00134823       0.00501884
C       -2.41532865       5.71589187       3.83693080      -0.00719084       0.00525003      -0.00331768
C       -3.64471229       7.86336517       3.84558511       0.00233479      -0.00168246      -0.00099165
C       -4.88787504      10.00448320       3.83838573       0.00038919      -0.00493556      -0.00752515
C        2.48925396       1.46088574       3.67001853      -0.00557662       0.00139598       0.00153347
N        1.19964311       3.54689455       3.93540311       0.00968160       0.00387290      -0.00920493
C        0.04623600       5.66936364       3.96940893      -0.00388824      -0.00100256       0.00351941
C       -1.18018011       7.85131315       3.87105237      -0.00247142       0.00239020      -0.00427568
C       -2.42430421      10.00000444       3.77591591       0.00321834      -0.00150623      -0.00181271
C        4.96680178       1.45260373       3.54947850      -0.00129405       0.00008304       0.00251648
P        3.64006735       3.73223718       2.65686989      -0.00678828      -0.00596627       0.00147735
C        1.28852975       7.88669892       3.94101214       0.00050687       0.00775393      -0.00579320
C        0.03715582      10.00288981       3.77467080       0.00918847      -0.00047371      -0.00956901
C        7.43166668       1.45295254       3.67813217       0.00269326      -0.00093236      -0.00415563
C        6.22402377       3.59162760       3.59311157       0.00452689       0.00616464      -0.00532792
C        5.01075856       5.76822759       3.74967758       0.00101354       0.00388246       0.00316736
C        3.74260130       7.84478032       3.90249236      -0.00141853      -0.00125602      -0.01961276
C        2.50706448      10.00305299       3.82102162      -0.00347290       0.00062341       0.00216155
C        9.89615198       1.44085671       3.77271115      -0.00016828      -0.00274398       0.00624660
C        8.67188226       3.58463131       3.74076478      -0.00017679      -0.00000363      -0.00413968
C        7.46421655       5.73192822       3.77577349       0.00290880       0.00338608       0.00141227
C        6.22983719       7.87517336       3.85523217       0.00646699       0.00110419      -0.00173931
C        4.97471426       9.99005207       3.84501348      -0.01051022      -0.00094526       0.00153631
V        2.63205698       4.82733609       4.57894950      -0.00188732      -0.01052934      -0.00460330
O        3.05373843       4.48185585       6.22465753      -0.00122164       0.00444381       0.00638486
O        1.74882746       3.90498526       6.87781160       0.00231991       0.00669024       0.00321245
H        1.64946593       4.59841166       7.55560151       0.00113672      -0.01594371      -0.00573347
