52
Lattice="12.336457 0.0 0.0 -6.168228499999997 10.683685154694365 0.0 0.0 0.0 15.0" Properties=species:S:1:pos:R:3:forces:R:3 energy=-453.3560522151243 free_energy=-453.3560522151243 stress="-0.005011238457730835 -0.003289836546221068 -1.9098940929809778e-05 -0.003289836546221068 -0.0011568903355409315 -1.3330321895973455e-05 -1.9098940929809778e-05 -1.3330321895973455e-05 -1.1017094506672963e-05" pbc="T T T"
C        0.02109529      -0.02375632       3.89375018      -0.00007695       0.00092171      -0.01561428
C       -1.23101990       2.10003229       3.85484942      -0.00065232       0.00130903       0.00716609
C       -2.44283222       4.25050897       3.76516420      -0.00890694      -0.00265332      -0.00509887
C       -3.65019714       6.39936931       3.74816041       0.00572389       0.00029564      -0.00758928
C       -4.88707574       8.54523856       3.83208123       0.00266154      -0.00136037       0.00063973
C        2.48375914       0.00430069       3.86448794      -0.00020593       0.00344846       0.00147306
C        1.20614665       2.10272431       3.96355715      -0.00133914       0.00014583       0.00384795
C       -0.03217658       4.20513982       4.04380146      -0.00361955      -0.00257366       0.00288768
C       -1.19790390       6.36649414       3.94083921      -0.00808245       0.00170940       0.00063580
C       -2.42624462       8.53442203       3.87026807      -0.00250999       0.00254156      -0.00091840
C        4.95266856      -0.00037966       3.77170285       0.00218953      -0.00896588       0.00052745
C        3.68684597       2.11131236       3.53326180      -0.00737562       0.00230390       0.01187505
B        1.18139008       6.40336639       4.54525869       0.00244362       0.00553456       0.00355792
C        0.03048542       8.54161238       4.00063424       0.00371191       0.00085755       0.00269114
C        7.41999377      -0.01400513       3.81393638       0.00685476      -0.00355306      -0.00125483
C        6.18481989       2.12885453       3.57051585      -0.00238435      -0.00422455      -0.00578539
C        5.01600957       4.31549238       3.44263927       0.00130523      -0.00267306      -0.00610744
C        3.81515558       6.39547916       3.88777790      -0.00832919      -0.00160746      -0.00243655
C        2.48623188       8.52384078       4.02439689       0.00633096       0.00057861      -0.00803246
C        9.88489580      -0.03102587       3.85947416      -0.00124268      -0.00145209       0.00213059
C        8.65055218       2.11320553       3.71633807       0.00362895      -0.00293596      -0.00188442
C        7.44390333       4.26008291       3.61001536       0.00322244       0.00667566      -0.00227955
C        6.25909660       6.43422792       3.66812307       0.00089542       0.00145526      -0.00349936
C        4.96659562       8.52142867       3.87584573      -0.00171859       0.00229555       0.00325984
C        0.00561035       1.40336105       3.91113412      -0.00090061       0.00147137       0.00292669
C       -1.22312855       3.51720098       3.85477776      -0.00881236       0.00004028       0.00542986
C       -2.42974835       5.67080713       3.79434285      -0.00414753      -0.00423958       0.00283391
C       -3.65658000       7.82571701       3.81593795       0.00235454      -0.00152538      -0.00346194
C       -4.90430088       9.96769981       3.88530089       0.00189158       0.00086514       0.00226058
C        2.45226466       1.43858552       3.81740028      -0.00458939       0.00130654       0.00521246
O        1.14030294       3.46868007       4.27984403       0.00546838       0.00051018       0.00327519
C       -0.00536552       5.60361053       4.10227595      -0.00638863      -0.00049287      -0.00020791
C       -1.19809271       7.80925514       3.94920852      -0.00285249       0.00397741       0.00029030
C       -2.44426734       9.96833982       3.84234552      -0.00160680       0.00017898       0.00303293
C        4.93878557       1.42300203       3.60295441      -0.00650050      -0.00801587       0.00033829
P        3.55966366       3.66864197       2.67283074      -0.00978875      -0.00491359      -0.00131581
C        1.25885446       7.85888360       4.16929214       0.00568778       0.00671867       0.00279485
C        0.01713516       9.97023272       3.85554874       0.00809506      -0.00287894       0.00390641
C        7.41556616       1.40858903       3.68840369       0.00276352      -0.00247011       0.00176611
C        6.22043979       3.54552348       3.51620693       0.00413506       0.00142691      -0.00383545
C        5.02772523       5.74663564       3.64092724      -0.00174042      -0.00063948      -0.00258879
C        3.72983881       7.78262599       3.95107140       0.00204140       0.00036031       0.00307873
C        2.48441949       9.94727725       3.89426588       0.00343300      -0.00316858      -0.00316720
C        9.88402653       1.39550697       3.80386003       0.00364471      -0.00308584       0.00061876
C        8.66203104       3.54003807       3.68347335      -0.00389679      -0.00212596      -0.00307340
C        7.46326201       5.69377346       3.65674512       0.00638518       0.00645578      -0.00804134
C        6.22102679       7.83899873       3.79426940      -0.00064284       0.00142900      -0.00076207
C        4.95621788       9.94108393       3.88644365      -0.00222469       0.00210452       0.00124702
V        3.23895573       4.58756197       4.86006651       0.01112276       0.00739936      -0.00330931
O        3.83343961       3.71256796       6.10896506       0.00428278       0.00106306      -0.00032809
O        1.90903073       5.84720270       5.68033117      -0.00033773      -0.00145175       0.01973187
H        1.32783038       5.61735441       6.42518728       0.00059920       0.00162712      -0.00884413
