51
Lattice="12.336457 0.0 0.0 -6.168228499999997 10.683685154694365 0.0 0.0 0.0 15.0" Properties=species:S:1:pos:R:3:initial_magmoms:R:1:forces:R:3 energy=-449.5790238771999 free_energy=-449.5790238771999 stress="-0.0030111308888855237 0.0006109229974445776 4.06148161898439e-06 0.0006109229974445776 -0.0002612457340992961 6.487445119279051e-06 4.06148161898439e-06 6.487445119279051e-06 8.077563916659971e-06" pbc="T T T"
C       -0.02500756      -0.01461296       3.67151978       0.00000000       0.00664524      -0.00253321       0.00293191
C       -1.26068725       2.12188930       3.65259475       0.00000000       0.00300382       0.00511421       0.00863012
C       -2.50898264       4.26547647       3.53769502       0.00000000      -0.00823598      -0.00187559       0.00526745
C       -3.73063564       6.40721440       3.52154462       0.00000000      -0.00533938      -0.00437108       0.00103946
C       -4.95518557       8.54643466       3.59967645       0.00000000       0.00208600       0.00148170      -0.00174801
C        2.45625115       0.00815292       3.69786387       0.00000000      -0.00510499       0.00079475       0.00046781
C        1.21901151       2.11094536       3.87213008       0.00000000       0.00088825      -0.00039746      -0.00010816
C       -0.08761649       4.27856151       3.83810680       0.00000000       0.00175007      -0.00721653      -0.00945427
C       -1.27200767       6.41367449       3.65509533       0.00000000       0.00488217      -0.00342565       0.00298183
C       -2.49179679       8.54924972       3.61583629       0.00000000      -0.00789923       0.00571062      -0.00198276
C        4.91258183       0.00722612       3.66495696       0.00000000      -0.00047162      -0.00346564      -0.00948017
C        3.70079830       2.18019830       3.82031064       0.00000000      -0.00659747      -0.00777605       0.00421416
B        1.27828120       6.35822960       4.06256698       0.00000000      -0.01403209       0.01270689      -0.00357154
C       -0.02536292       8.54128569       3.72325449       0.00000000       0.00295924      -0.00283084       0.00144667
C        7.38314097      -0.01307941       3.62903993       0.00000000       0.00413421       0.00292561       0.00476039
C        6.15127628       2.12369182       3.59126326       0.00000000       0.00766433      -0.00032500      -0.00263679
C        4.93200060       4.23700352       3.73844666       0.00000000      -0.00029170      -0.00023443      -0.00128510
C        3.69317718       6.36425221       3.91341996       0.00000000      -0.00193894      -0.00282021      -0.00590778
C        2.45006624       8.53487380       3.78191940       0.00000000       0.00244314      -0.00458510      -0.00173031
C        9.84827209      -0.01719219       3.63432508       0.00000000      -0.00065382       0.01071812      -0.00119964
C        8.61519477       2.12219644       3.53487601       0.00000000       0.00189160       0.00864707       0.00022119
C        7.37495118       4.26378881       3.50435820       0.00000000       0.00559425      -0.00382029       0.00750923
C        6.14605947       6.39989310       3.59583892       0.00000000       0.00340744      -0.00072589      -0.00401656
C        4.90933527       8.52181538       3.68589477       0.00000000       0.00166856      -0.00063025      -0.00690350
C       -0.02558092       1.41362352       3.72993685       0.00000000       0.00463205      -0.00194252       0.00633678
C       -1.28134440       3.54423910       3.64904916       0.00000000      -0.00480076       0.00258558      -0.00289143
C       -2.50599260       5.69428669       3.54555650       0.00000000      -0.00438164      -0.00282373       0.01895704
C       -3.72482964       7.83476503       3.56891004       0.00000000      -0.00411347      -0.00227670      -0.00541113
C       -4.95120705       9.97163105       3.65767539       0.00000000       0.00500407      -0.00233312      -0.00425787
C        2.46644052       1.44088861       3.81187812       0.00000000      -0.00610112      -0.00538888      -0.00539843
B        1.20441806       3.57251254       4.11822618       0.00000000      -0.00497895      -0.00456620      -0.00318516
C       -0.06531822       5.68578720       3.83172418       0.00000000       0.00911922      -0.00319660      -0.00384018
C       -1.26337848       7.83540465       3.66368565       0.00000000      -0.00159341       0.00140407      -0.00242732
C       -2.48814539       9.97560181       3.65960978       0.00000000      -0.00728747       0.00554814      -0.00326928
C        4.91681837       1.43601955       3.67929268       0.00000000       0.00191089      -0.00162619      -0.00062084
N        3.75849161       3.55736647       3.95315884       0.00000000      -0.01282432       0.00129438       0.00091416
C        1.21581013       7.84718055       3.84132686       0.00000000       0.00191815      -0.00024313       0.01254854
C       -0.02403247       9.96945174       3.66393072       0.00000000       0.00356503      -0.00249824      -0.00513858
C        7.38343744       1.41002378       3.56433181       0.00000000       0.00830083       0.00388450       0.00189808
C        6.15050862       3.54039163       3.56861442       0.00000000       0.00601925      -0.00045659      -0.00215981
C        4.91082815       5.67528311       3.74857663       0.00000000       0.00206834       0.00322560       0.00262117
C        3.67097546       7.78661126       3.80129975       0.00000000       0.00157063      -0.00239858       0.00122123
C        2.45013670       9.95882322       3.66787350       0.00000000       0.00286125      -0.00055159       0.00154928
C        9.84719263       1.40729227       3.58808806       0.00000000       0.00070810       0.01453735       0.00052110
C        8.60665523       3.54951361       3.49967743       0.00000000      -0.00134686      -0.00065857      -0.00360484
C        7.37266675       5.69057461       3.51916788       0.00000000      -0.00162290      -0.00667942      -0.00065835
C        6.14586595       7.82502953       3.61809491       0.00000000       0.00373601       0.00114793       0.00310196
C        4.91156302       9.94841978       3.65896303       0.00000000       0.00017062       0.00429699      -0.00305913
V        2.60776439       4.92151308       4.82094360       0.00000000      -0.00124113       0.00370367       0.01612321
O        3.16075158       5.11580728       7.74918807       1.00000000       0.00272720      -0.00030149      -0.00150665
O        2.94227738       5.01841686       6.46821069       1.00000000      -0.00247270      -0.00475239      -0.00780918
