51
Lattice="12.336457 0.0 0.0 -6.168228499999997 10.683685154694365 0.0 0.0 0.0 15.0" Properties=species:S:1:pos:R:3:initial_magmoms:R:1:forces:R:3 energy=-449.88560050828005 free_energy=-449.88560050828005 stress="0.00030945866284043155 6.735511738533587e-06 3.0485400840094724e-07 6.735511738533587e-06 -0.00347258608938572 2.5170540477438783e-05 3.0485400840094724e-07 2.5170540477438783e-05 -4.184731634351806e-06" pbc="T T T"
C       -0.00391950       0.01492307       3.64465135       0.00000000       0.01146277       0.00698661      -0.00106079
C       -1.23538717       2.15253463       3.61855968       0.00000000      -0.00085445       0.00207938      -0.00539058
C       -2.46821664       4.29321899       3.60650319       0.00000000       0.00634950      -0.01364301       0.00671448
C       -3.70196989       6.42151160       3.63801536       0.00000000       0.00191627      -0.01135528      -0.01507246
C       -4.94085239       8.55504021       3.64685085       0.00000000      -0.00340411      -0.00076541       0.00619396
C        2.46590149       0.00831490       3.69960749       0.00000000       0.00558168      -0.00447178      -0.00350017
C        1.23391247       2.15342086       3.81165761       0.00000000      -0.00099118      -0.00117591      -0.00278036
C       -0.00628702       4.27242038       3.79878365       0.00000000       0.00303240       0.01822931       0.00077819
C       -1.20483996       6.41932494       3.69788937       0.00000000      -0.01206210      -0.00132827       0.00128460
C       -2.46296873       8.55534302       3.64806171       0.00000000       0.00008569      -0.00741422       0.01104204
C        4.93638410       0.01473084       3.64641432       0.00000000      -0.01186526       0.00502192       0.00306735
C        3.69864305       2.15293225       3.81106226       0.00000000      -0.00022588       0.00462567       0.00502603
B        1.43909915       6.36869070       3.91751699       0.00000000       0.00976289       0.00685043       0.00886643
C        0.00898945       8.55999954       3.66279126       0.00000000       0.00397436      -0.00171605       0.01748031
C        7.39773912       0.03140152       3.58116156       0.00000000      -0.00702111      -0.00085127      -0.00218300
C        6.16790353       2.15229064       3.61945817       0.00000000       0.00200727       0.00225628      -0.00152548
C        4.93896843       4.27248982       3.79746804       0.00000000      -0.00232736       0.01496195       0.00982862
B        3.49391623       6.36904422       3.91687949       0.00000000      -0.01027691       0.00541162       0.00747771
C        2.46618460       8.60732062       3.67311506       0.00000000       0.00171914       0.00161835      -0.01487648
C        9.87115969       0.03165398       3.58102866       0.00000000       0.00594637      -0.00339317      -0.00991822
C        8.63440747       2.16162551       3.55487079       0.00000000       0.00179327       0.00766286      -0.01320055
C        7.40083218       4.29289600       3.60606425       0.00000000      -0.00606523      -0.00717165       0.01040028
C        6.13760198       6.41935797       3.69644509       0.00000000       0.00879439      -0.00361955      -0.00058206
C        4.92355217       8.56030486       3.66178820       0.00000000      -0.00267125      -0.00457562       0.00773586
C       -0.00415649       1.43675108       3.67848486       0.00000000      -0.00115534       0.00504554       0.00012948
C       -1.24502402       3.57128845       3.64182130       0.00000000       0.01046173       0.00086434       0.00259736
C       -2.45815656       5.71566225       3.64434544       0.00000000      -0.00342469      -0.01630929      -0.00460882
C       -3.70182586       7.84526183       3.64389042       0.00000000      -0.00293329      -0.00637971       0.00350168
C       -4.93773415       9.98024821       3.66166898       0.00000000       0.00622708       0.00146136       0.01165730
C        2.46609571       1.42933412       3.79472258       0.00000000       0.00195383      -0.00175357      -0.01480327
C        1.19989630       3.55344045       3.93818669       0.00000000      -0.01313763      -0.00402786      -0.00471373
C        0.03620001       5.69355875       3.81176341       0.00000000      -0.00125074       0.01947871      -0.00088390
C       -1.22568562       7.84422360       3.67025874       0.00000000       0.00052830      -0.00386995       0.00438115
C       -2.46658256       9.98055167       3.66374289       0.00000000      -0.00159933      -0.00679391       0.00364306
C        4.93681462       1.43638175       3.67985088       0.00000000      -0.00174529       0.00673903      -0.00588140
C        3.73313318       3.55294787       3.93746457       0.00000000       0.00796776       0.00213223      -0.00430259
C        1.25614290       7.88100418       3.72505562       0.00000000       0.00687835       0.00182799       0.00374980
C        0.00178121       9.99118660       3.61774847       0.00000000      -0.01259310       0.00161213      -0.00330763
C        7.40103318       1.44977509       3.56724906       0.00000000       0.00397256       0.00229808      -0.00695723
C        6.17764729       3.57104309       3.64259134       0.00000000      -0.00926247       0.00239801      -0.00750831
C        4.89664516       5.69371237       3.81066385       0.00000000      -0.00215448       0.01463726      -0.00295721
C        3.67640611       7.88128243       3.72396065       0.00000000      -0.00384280      -0.00006605       0.00803757
C        2.46626044      10.02275421       3.59008051       0.00000000      -0.00117643      -0.00088481      -0.01089682
C        9.86781600       1.44999277       3.56631946       0.00000000      -0.00088473       0.00059552      -0.00269569
C        8.63457515       3.58439180       3.57127328       0.00000000      -0.00097322       0.00228273       0.00281950
C        7.39075330       5.71539535       3.64330930       0.00000000       0.00551978      -0.01059010      -0.00279141
C        6.15825257       7.84425393       3.66785315       0.00000000      -0.00143889      -0.00485160       0.01314063
C        4.93070570       9.99149484       3.61573684       0.00000000       0.01217020      -0.00041990       0.00492336
V        2.46728086       4.77169056       4.86129628       0.00000000      -0.00356673       0.00009522      -0.01756173
O        2.45621828       4.37180783       7.81033507       1.00000000       0.00261782      -0.00504772       0.00691047
O        2.46379262       4.52746350       6.52682634       1.00000000      -0.00181942      -0.01469689      -0.00142732
