52
Lattice="12.336457 0.0 0.0 -6.168228499999997 10.683685154694365 0.0 0.0 0.0 15.0" Properties=species:S:1:pos:R:3:forces:R:3 energy=-454.1269207661438 free_energy=-454.1269207661438 stress="-0.003589007325098856 0.0005362445882641044 -4.9301862632516716e-05 0.0005362445882641044 -0.0010499832376905972 -3.022552429945378e-05 -4.9301862632516716e-05 -3.022552429945378e-05 -2.504369174532735e-05" pbc="T T T"
C       -0.00950778      -0.01535230       3.72304622      -0.00926361      -0.00574673       0.00070042
C       -1.24576041       2.12316079       3.71636067       0.00940193      -0.00423024      -0.00188700
C       -2.49584668       4.26690877       3.61853939       0.00509886      -0.00173656      -0.00099498
C       -3.71596956       6.40821962       3.59918529      -0.00181796      -0.01080134      -0.00208272
C       -4.94002803       8.54615148       3.66092241       0.00456253       0.00481648      -0.00336735
C        2.47219957       0.00600974       3.74454675       0.00185145       0.00222934       0.00182987
C        1.23432926       2.10485291       3.91284884       0.00609700       0.00453441       0.00209781
C       -0.07311761       4.27888503       3.89496551      -0.00954407       0.00075401       0.00230230
C       -1.25659149       6.41450732       3.72827123      -0.00463566       0.00137873      -0.00564589
C       -2.47574966       8.54947350       3.67675024      -0.00499383      -0.01076996      -0.00455824
C        4.92876606       0.00681511       3.70984998      -0.00223114       0.00713387       0.01171315
C        3.71608187       2.17782536       3.86445968      -0.00076704       0.00108462       0.00097509
B        1.29124179       6.36456518       4.10823469       0.00170917      -0.01068299       0.00335110
C       -0.00915075       8.54266479       3.77896239      -0.00252978       0.00808220       0.00533420
C        7.39912159      -0.01111814       3.69136568       0.00352456      -0.00363710       0.00129152
C        6.16713303       2.12462105       3.64898263      -0.00193445       0.00273638       0.00664992
C        4.94564049       4.23825477       3.79549050      -0.00029092      -0.01226750       0.00095966
C        3.70871428       6.36699197       3.96821242       0.00387080       0.01088338       0.00282874
C        2.46704717       8.53826181       3.84373032      -0.00160011       0.00440395      -0.01062483
C        9.86435657      -0.01488848       3.69941941      -0.00218610       0.00517241      -0.00811694
C        8.63081241       2.12416995       3.60991387      -0.01016891       0.00467458      -0.00594680
C        7.38931845       4.26504009       3.57976504       0.00280085       0.00208050       0.00476592
C        6.16053254       6.40071701       3.66501487      -0.00049317      -0.00765709      -0.00653423
C        4.92421427       8.52306962       3.74519912       0.00706039      -0.00435244      -0.00374008
C       -0.01134427       1.41180726       3.78027563       0.00833474      -0.00539169       0.00325270
C       -1.26789675       3.54553288       3.71708109       0.00171712      -0.00584957       0.00084510
C       -2.49184198       5.69549999       3.62829360       0.00046737      -0.00389806      -0.00122823
C       -3.70925149       7.83534937       3.63644755      -0.00479331      -0.01062005      -0.00473542
C       -4.93566180       9.97052036       3.70923439      -0.00429641       0.00798117      -0.00197271
C        2.48287785       1.43669951       3.85360643       0.00456263       0.00448187      -0.00716635
B        1.21174336       3.56177892       4.15263134      -0.00462592       0.00872803       0.00789184
C       -0.04887079       5.68749021       3.89386792      -0.01185564      -0.00136157      -0.00020619
C       -1.24714066       7.83604250       3.72683131      -0.00195352       0.00036420      -0.00286632
C       -2.47169523       9.97509679       3.70944394      -0.00045967      -0.00527580      -0.00967660
C        4.93249772       1.43554862       3.72577874      -0.00334365       0.00801051       0.00076751
N        3.76996687       3.55664821       3.99912895       0.00053221      -0.00548774       0.00705225
C        1.23215752       7.85172057       3.89870183      -0.00284015       0.00123985      -0.00039307
C       -0.00778657       9.97024019       3.71595460       0.00030851       0.00893874       0.00232796
C        7.39954516       1.41192852       3.63139336      -0.00784480      -0.00477710      -0.00653864
C        6.16429699       3.54201975       3.63356824       0.00596995      -0.00144642      -0.00252009
C        4.92451011       5.67722785       3.80973354      -0.00614413      -0.00802049      -0.00617977
C        3.68668837       7.78738978       3.86046765       0.00315510       0.01163323       0.00460867
C        2.46646567       9.96131954       3.73426139       0.00296462       0.00149533      -0.00794752
C        9.86257545       1.40935039       3.65759967      -0.00185247       0.00687312       0.00040682
C        8.62062714       3.55089355       3.57955688       0.00029027       0.00568444      -0.00788291
C        7.38724484       5.69155828       3.59357025       0.00093729      -0.00482641       0.00990010
C        6.16074448       7.82591201       3.68198987       0.01109254      -0.00544156       0.00066686
C        4.92695526       9.94940596       3.71519729      -0.00771541      -0.00663920       0.01397943
V        2.61228018       4.90711759       4.86350931      -0.00507601       0.00069727       0.00794316
O        2.75116415       5.01937579       6.52897722       0.01310805       0.00608658       0.00303293
O        2.57611483       5.10551269       7.94720344       0.01089866       0.01111078       0.00150546
H        3.49074506       4.93636673       8.24470267       0.00494123      -0.00237234       0.00383242
