52
Lattice="12.336457 0.0 0.0 -6.168228499999997 10.683685154694365 0.0 0.0 0.0 15.0" Properties=species:S:1:pos:R:3:forces:R:3 energy=-454.13558161339324 free_energy=-454.13558161339324 stress="-0.0036476787029832204 -0.0016082763485660684 1.073465470897797e-05 -0.0016082763485660684 -0.0022307504763154342 -3.1047045086030005e-05 1.073465470897797e-05 -3.1047045086030005e-05 -8.174390170001805e-06" pbc="T T T"
C       -0.00156041      -0.00130650       3.74351713       0.00693542       0.00369472      -0.00920536
C       -1.24250545       2.11828472       3.70318015       0.00112597       0.00170417      -0.00757094
C       -2.46520224       4.26307952       3.63239623       0.00492678      -0.00071105       0.00155709
C       -3.68862065       6.40906435       3.63157311       0.00064978      -0.00514943      -0.00741447
C       -4.92459989       8.55022238       3.68665328      -0.00821575       0.00173247       0.00883408
C        2.45931705       0.00329201       3.72690062       0.00727182      -0.00040858       0.00703022
C        1.21112250       2.16912599       3.89316020      -0.00330680       0.00228034      -0.00666111
C       -0.02089933       4.21760095       3.85257263       0.00718623       0.00590102      -0.00515053
C       -1.22039216       6.39230015       3.70034353      -0.00494956       0.00474334       0.00564948
C       -2.45892068       8.54435468       3.64663003      -0.00743535      -0.00303173       0.00568164
C        4.93652489      -0.00410510       3.65713220      -0.00861349       0.00548137       0.00065961
C        3.68871943       2.10889401       3.83816876      -0.00455331      -0.00241124       0.00300635
B        1.28802871       6.38494274       3.99523825      -0.01229516       0.00147875      -0.00031441
C        0.00210833       8.54501754       3.68792599      -0.00097737      -0.00411802       0.00980999
C        7.40411827      -0.00333864       3.64393583      -0.01267267       0.00556246       0.00303506
C        6.16782037       2.13636904       3.66747206       0.00337626      -0.00504311       0.00582436
C        4.99126353       4.29896371       3.86859894       0.00327600       0.01043546      -0.01078006
C        3.70894981       6.38208344       4.02987236      -0.00978725      -0.01242062       0.01223644
C        2.47738770       8.54952806       3.79878091       0.00902370      -0.00310855       0.00829655
C        9.87017420      -0.01007069       3.69480867       0.00000546       0.00458206       0.00299892
C        8.63376720       2.12997243       3.61339940       0.01316055       0.00177295       0.00392529
C        7.41841009       4.27638360       3.63623268      -0.00216748      -0.01465245      -0.00368584
C        6.18947711       6.42495282       3.73766892       0.00218418      -0.00368376      -0.00391325
C        4.93574642       8.53270297       3.78843293       0.00062147       0.00057688      -0.00415774
C       -0.00738230       1.42598264       3.77366199      -0.00203195       0.00110437      -0.00778383
C       -1.24539227       3.52982871       3.69669318       0.00763231       0.00331145      -0.00793543
C       -2.46129752       5.68866701       3.63866705       0.00366998      -0.00099023       0.00182895
C       -3.69299430       7.83534721       3.64725923      -0.00886515      -0.00380676       0.00028820
C       -4.93414695       9.97213033       3.71874649       0.00972412       0.00039495       0.00799536
C        2.44578105       1.43259107       3.82978727      -0.00586112      -0.00171386       0.00143404
N        1.16038432       3.54326306       4.04398706       0.00432595       0.00105728       0.01324063
C       -0.00610888       5.64544985       3.85128440      -0.00417818       0.00629774      -0.01066646
C       -1.22509581       7.82417852       3.67097447      -0.00375115       0.00220826       0.00747453
C       -2.46852449       9.97225931       3.67140043       0.00064364      -0.00183041      -0.00789121
C        4.93548804       1.42244306       3.70676909      -0.00213627       0.00362388       0.00542867
B        3.72362409       3.56579334       4.05849860       0.01680073      -0.00573996      -0.00056467
C        1.24492766       7.86542632       3.79531297       0.00699227      -0.00306582       0.00164870
C        0.00047473       9.97192953       3.64564549      -0.01584986      -0.00218800      -0.00254972
C        7.39970548       1.42090713       3.62163427       0.01044032       0.00352163      -0.00112811
C        6.18683953       3.56240930       3.70008455      -0.00336768      -0.00724101      -0.00045632
C        4.94919639       5.71945317       3.88412550      -0.00080856       0.00533893      -0.00996988
C        3.69525706       7.79517933       3.88461988       0.00609905      -0.01255876      -0.00174721
C        2.47238452       9.96983680       3.69789865      -0.00531717       0.00361285       0.00003551
C        9.86389023       1.41159291       3.65172484       0.00539669       0.00536478       0.00911603
C        8.63806904       3.55611772       3.60729297       0.00626384      -0.00303642      -0.00682896
C        7.41408080       5.70353266       3.65662664      -0.00076641      -0.01313139      -0.00057676
C        6.17965860       7.83937260       3.73746381      -0.00544791      -0.00173071      -0.00403057
C        4.93419048       9.95674442       3.73992458       0.00218409       0.00671853      -0.00415353
V        2.38698899       4.90620622       4.83322119       0.00231620       0.00914612      -0.00708821
O        2.42332637       5.01150095       6.50463604      -0.00752141      -0.00560346       0.00004460
O        2.21520199       4.95678142       7.91832774      -0.00326137       0.00876034      -0.00098970
H        3.14143730       4.97054962       8.22829352       0.00190554       0.00696825       0.00613398
