51
Lattice="12.336457 0.0 0.0 -6.168228499999997 10.683685154694365 0.0 0.0 0.0 15.0" Properties=species:S:1:pos:R:3:initial_magmoms:R:1:forces:R:3 energy=-449.66577579446323 free_energy=-449.66577579446323 stress="-0.003166352018590991 9.785425888028727e-06 6.891390727085868e-06 9.785425888028727e-06 -0.002502613199270895 1.4123722620122457e-07 6.891390727085868e-06 1.4123722620122457e-07 5.630470849589227e-06" pbc="T T T"
C        0.02705404       0.00683125       3.65646538       0.00000000       0.00452375       0.00829445      -0.00502724
C       -1.20905273       2.13161455       3.61341589       0.00000000      -0.00742397       0.00201371      -0.00342229
C       -2.43976327       4.26831402       3.53065044       0.00000000       0.00653054      -0.00840605      -0.00042680
C       -3.67128047       6.40681244       3.51991403       0.00000000      -0.00031489       0.00390594       0.00960350
C       -4.90805789       8.54632739       3.59972929       0.00000000      -0.00753610       0.00405196      -0.00361050
C        2.48868070      -0.00905930       3.67624521       0.00000000      -0.00039213       0.00456416       0.00308923
C        1.26597895       2.15986079       3.81222834       0.00000000      -0.00300743       0.00351167      -0.00486438
C        0.01475523       4.26368984       3.76913729       0.00000000       0.00612442       0.01305821      -0.00400777
C       -1.21437780       6.41107321       3.60224198       0.00000000      -0.00706969      -0.00652557       0.00355399
C       -2.44376563       8.54333163       3.58510923       0.00000000       0.00516413       0.00376694       0.00027938
C        4.96356878      -0.01399658       3.66059562       0.00000000      -0.00265975       0.00139387       0.00449255
C        3.72198252       2.10225754       3.83982879       0.00000000       0.00577047      -0.00321503       0.01019763
C        1.23709697       6.38577732       3.93756260       0.00000000       0.01160658      -0.00944943      -0.00505488
C        0.02809323       8.53057378       3.68989795       0.00000000       0.00034976      -0.00908243      -0.00524688
C        7.42708900      -0.00769888       3.64405781       0.00000000      -0.00212940       0.00319004      -0.00101559
C        6.19787538       2.12582857       3.65373006       0.00000000       0.00088348       0.00629879       0.00071306
C        4.99910149       4.27751247       3.82299507       0.00000000      -0.00452283       0.00284310      -0.00296099
B        3.66790809       6.37600112       4.06660418       0.00000000       0.00875873       0.00816276      -0.00646043
C        2.48791793       8.54820136       3.79041991       0.00000000      -0.00953087      -0.00818736       0.00649757
C        9.89305734      -0.00186974       3.63724299       0.00000000       0.00380719      -0.00770990      -0.00072145
C        8.66100228       2.12964640       3.55496685       0.00000000       0.00054140       0.00224166       0.00213503
C        7.43885999       4.26832923       3.55075538       0.00000000       0.00419299      -0.00518769       0.00311431
C        6.20551385       6.41401390       3.64970245       0.00000000      -0.00092348      -0.00975612      -0.00490211
C        4.96425373       8.54889612       3.71528783       0.00000000      -0.00139216      -0.00168349      -0.00061682
C        0.02815626       1.43198556       3.68554922       0.00000000      -0.00674610       0.00540864      -0.00149609
C       -1.21530814       3.55157867       3.60084174       0.00000000       0.00922036       0.00262285       0.00583642
C       -2.43903067       5.69497252       3.53015988       0.00000000      -0.00570797      -0.00849548       0.00490616
C       -3.67510661       7.83245756       3.55559148       0.00000000      -0.00009379       0.00949546      -0.00381085
C       -4.90956304       9.96965044       3.64148605       0.00000000       0.00012737       0.00550192      -0.00021399
C        2.48717303       1.41401152       3.78958569       0.00000000       0.00046363       0.00335539      -0.00144981
C        1.23769989       3.57681959       3.93500772       0.00000000      -0.00155403       0.00251605      -0.00036224
C        0.01499809       5.69775294       3.77035217       0.00000000       0.00189090       0.00934636      -0.00548337
C       -1.20900222       7.83107453       3.61624967       0.00000000       0.00044940      -0.00763332      -0.00032994
C       -2.44324051       9.96440522       3.63847102       0.00000000      -0.00162433       0.00410362      -0.00098849
C        4.96380072       1.41344208       3.71468444       0.00000000       0.00461114       0.00225299       0.00650540
B        3.66792049       3.58588360       4.06507127       0.00000000       0.00487418      -0.00468567      -0.00266318
C        1.26616148       7.80272138       3.81498369       0.00000000      -0.00199510      -0.01161105      -0.00393299
C        0.02740670       9.95537074       3.66078362       0.00000000      -0.00408673      -0.00238762      -0.01268651
C        7.42800061       1.41559687       3.60098926       0.00000000       0.00045607       0.00699516      -0.00590251
C        6.20561383       3.54855722       3.65097490       0.00000000      -0.00373465       0.00405116      -0.00935226
C        4.99916667       5.68473420       3.82312191       0.00000000      -0.00496013       0.00211967      -0.00523222
C        3.72270672       7.85980796       3.84091459       0.00000000      -0.00307989       0.00296533       0.01089174
C        2.48900209       9.97132868       3.67727478       0.00000000      -0.00273700      -0.00696267       0.00129488
C        9.89274593       1.41915959       3.58281335       0.00000000      -0.00502530      -0.00360807       0.00338187
C        8.66465464       3.55577483       3.52105290       0.00000000       0.00604499      -0.00249326       0.00538914
C        7.43897779       5.69468754       3.54927197       0.00000000       0.00355247      -0.00553469       0.01047930
C        6.19825038       7.83659318       3.65301818       0.00000000      -0.00582701      -0.00816825       0.00031760
C        4.96319578       9.97629231       3.65897686       0.00000000       0.00932844       0.00095596       0.00249959
V        2.34859298       4.98055001       4.87895651       0.00000000      -0.00014079       0.00606015       0.01792649
O        1.61938267       4.98058762       7.76565446       1.00000000      -0.00321365       0.00167637       0.00492199
O        1.93443895       4.98195722       6.51191901       1.00000000      -0.00184324      -0.00594121      -0.01578423
