52
Lattice="12.336457 0.0 0.0 -6.168228499999997 10.683685154694365 0.0 0.0 0.0 15.0" Properties=species:S:1:pos:R:3:forces:R:3 energy=-454.1466300107868 free_energy=-454.1466300107868 stress="-0.003911860252977358 0.0011880391776948457 3.359860571748453e-05 0.0011880391776948457 -0.0037240599341698943 9.431270059180328e-07 3.359860571748453e-05 9.431270059180328e-07 3.1775687949743856e-06" pbc="T T T"
C        0.00151230      -0.00787453       3.64665608      -0.00186733      -0.00189502      -0.00050145
C       -1.22841164       2.13482732       3.66192516       0.00007459       0.00107304       0.00693082
C       -2.46981013       4.27324797       3.63063886      -0.00110097       0.00092968      -0.00257517
C       -3.70223706       6.40576890       3.61002110       0.00020145      -0.00039856       0.00321986
C       -4.93607193       8.54015489       3.62457875       0.00551206       0.00177041       0.00267336
C        2.47315512      -0.01172953       3.70962163       0.00247696      -0.00083921      -0.00523239
C        1.24559555       2.09775650       3.82071911       0.00073430      -0.00852371       0.00150065
C       -0.02857945       4.29471549       3.86503304      -0.00019823      -0.00096741      -0.00190546
C       -1.24727729       6.42198541       3.71933895      -0.00436416       0.00505794       0.00185808
C       -2.47076319       8.54652812       3.66034030      -0.00074239       0.00511889       0.01106827
C        4.93753848      -0.00080121       3.73771769       0.00206253       0.00072007      -0.01270133
C        3.70090119       2.15586016       3.89873280      -0.00821105       0.00511094      -0.01086422
C        1.21555604       6.39911386       4.05271127      -0.00171243       0.00218707      -0.00383504
C       -0.00055829       8.53919293       3.78416815       0.00259865      -0.00195018      -0.00174628
C        7.40371733      -0.00448529       3.70187117       0.00229468      -0.00535702       0.00241953
C        6.17849503       2.12327163       3.71775290      -0.00055407      -0.00255718      -0.00190289
C        4.95149871       4.24477740       3.88468758      -0.00000208      -0.00336224      -0.01658433
B        3.66140978       6.38498335       4.02505748       0.00003199       0.01087923       0.00108240
C        2.46087485       8.55322913       3.82117618       0.00115649       0.00515369       0.00072505
C        9.87080131      -0.00180394       3.64951883      -0.00011235      -0.00272827       0.00768629
C        8.64033734       2.13075047       3.61865515       0.00114773      -0.00199752       0.00161865
C        7.40909895       4.26302916       3.64078843       0.00489159       0.00164181      -0.00243567
C        6.17324148       6.40053600       3.69880260      -0.00483151      -0.00229481      -0.00621152
C        4.93665039       8.54418399       3.69585790       0.00352635      -0.00147270       0.00384074
C        0.00270378       1.41858091       3.69576167      -0.00063517      -0.00121831      -0.00125650
C       -1.23303082       3.56169895       3.69518193      -0.00203747       0.00154887       0.00108717
C       -2.46924493       5.69895266       3.63878619      -0.00109660       0.00061828       0.00033992
C       -3.70114437       7.83139427       3.61959865       0.00292550       0.00112377       0.00308499
C       -4.93175414       9.96417632       3.64954412       0.00037128       0.00243170       0.01072143
C        2.47837354       1.40891317       3.82047737       0.00016840      -0.00492369       0.00609838
B        1.27821124       3.57717678       4.03073854       0.01075833      -0.00333159      -0.00270829
C       -0.01095772       5.71687149       3.88456785      -0.00246207       0.00212113      -0.00451983
C       -1.23883720       7.83832145       3.71823786      -0.00253738       0.00417288      -0.00208930
C       -2.46474506       9.96637084       3.70008975       0.00170879       0.00282765       0.01216820
C        4.94013544       1.42225791       3.78193909      -0.00634477       0.00224818       0.00643766
C        3.72485040       3.56188807       4.05005679      -0.00108997       0.00404243       0.00285427
C        1.23888096       7.80538330       3.90039372       0.00433077       0.00112129      -0.00515838
C        0.00151386       9.96233088       3.73819653       0.00362386      -0.00350835      -0.00393821
C        7.41013589       1.41527598       3.66065456       0.00075265      -0.00454060       0.01139348
C        6.18728003       3.53968885       3.72034535       0.00598935      -0.00151722       0.00032198
C        4.96876016       5.66695679       3.86492678      -0.00689345      -0.00118241      -0.00328493
C        3.69371903       7.86461761       3.81839756       0.00042615       0.00852315       0.00055438
C        2.46584946       9.97385192       3.71028054       0.00133980      -0.00086395       0.00025467
C        9.87512068       1.42218334       3.62195353       0.00181652      -0.00301463       0.00878846
C        8.64193560       3.55637052       3.60959327       0.00229585      -0.00095491      -0.00058068
C        7.40977206       5.68877678       3.63382870       0.00004098       0.00135301      -0.00639892
C        6.16769009       7.82754527       3.66513915       0.00437462      -0.00196448       0.00045479
C        4.93778739       9.97072569       3.64753957      -0.00033428      -0.00431286      -0.00941882
V        2.47324678       4.98021065       4.93398693      -0.00179599      -0.00864974       0.00005921
O        2.46084027       4.97727104       6.60665363      -0.01308116       0.00448408      -0.01440013
O        2.30691037       5.00103443       8.01258913      -0.00199386       0.00337864       0.01627876
H        3.24097250       4.97786300       8.29915135      -0.00363345      -0.00531126      -0.00527169
