52
Lattice="12.336457 0.0 0.0 -6.168228499999997 10.683685154694365 0.0 0.0 0.0 15.0" Properties=species:S:1:pos:R:3:forces:R:3 energy=-454.1862791092505 free_energy=-454.1862791092505 stress="-0.003232142719492159 1.1992877335303515e-05 6.464185493587063e-06 1.1992877335303515e-05 -0.0029041639187764594 -1.7308521457854591e-06 6.464185493587063e-06 -1.7308521457854591e-06 3.213939772288476e-06" pbc="T T T"
C        0.04440886       0.00742194       3.70946317       0.00492396       0.00820634       0.00963550
C       -1.19103431       2.13241456       3.66603964      -0.00814411      -0.00104180       0.00336436
C       -2.42147234       4.26811175       3.59551385       0.00115536      -0.00373510       0.00263387
C       -3.65402121       6.40656719       3.59412487       0.00097526      -0.00247471      -0.00288132
C       -4.89128640       8.54577322       3.66211040      -0.00586468       0.00407518      -0.00057710
C        2.50562215      -0.00997358       3.73456427       0.00466797      -0.00108454      -0.00222377
C        1.28419301       2.16096014       3.86005923      -0.00233957      -0.00699852       0.00221036
C        0.03706100       4.26353521       3.80851011       0.00238724       0.00027437      -0.00131648
C       -1.19549721       6.41014260       3.65435644      -0.00513933       0.00137551       0.00044915
C       -2.42619780       8.54261464       3.64273839      -0.00428017       0.00514556       0.00110743
C        4.98074711      -0.01498283       3.71751153       0.00187546       0.00587537       0.00102117
C        3.73995580       2.09930051       3.90549246      -0.00554376      -0.00300624       0.00285615
C        1.25729900       6.38689107       3.97317447       0.00686162       0.00050782      -0.00749802
C        0.04581387       8.53022870       3.73436306       0.00292553      -0.00527698       0.00683946
C        7.44384989      -0.00653672       3.70022597      -0.00381959      -0.00033200      -0.00654870
C        6.21427788       2.12660681       3.71842933       0.00702657      -0.00413466       0.00286592
C        5.01382791       4.27692580       3.88772976       0.00766073       0.00222711       0.00989646
B        3.68605467       6.38023779       4.12850519      -0.00711251       0.00033184      -0.00029787
C        2.50451856       8.55029775       3.84676375      -0.00109168       0.00605337      -0.00631884
C        9.91038537      -0.00074380       3.69660524       0.00475289      -0.00599256      -0.00152981
C        8.67806174       2.13014510       3.62036038       0.00337640       0.00407421      -0.00139929
C        7.45623991       4.26825586       3.62671566      -0.00107177       0.00016928      -0.00936569
C        6.22155791       6.41355207       3.71849089       0.00538775      -0.00079143      -0.00077392
C        4.98160682       8.55019326       3.77741037      -0.00195551      -0.00492998      -0.00325027
C        0.04622874       1.43254302       3.73478975      -0.00552289       0.00468674       0.00050705
C       -1.19553660       3.55252312       3.65308307       0.00016701      -0.00249836       0.00417670
C       -2.42141612       5.69468748       3.59757211      -0.00083997      -0.00547935      -0.00881828
C       -3.65790265       7.83226296       3.62109738      -0.00497198       0.00006653      -0.00230244
C       -4.89281722       9.96901777       3.69917346       0.00428561       0.00462173      -0.00584687
C        2.50458970       1.41228671       3.84678418      -0.00341582      -0.00661863      -0.00145585
C        1.25811763       3.57647198       3.97286712      -0.00445174      -0.01106770      -0.00376598
C        0.03706963       5.69898901       3.80780493      -0.00020737       0.00422154       0.01135395
C       -1.19125180       7.83016825       3.66693961      -0.00321011       0.00327523      -0.00199737
C       -2.42608561       9.96346634       3.69536283       0.00455056       0.00494585       0.00378345
C        4.98140197       1.41231541       3.77909171      -0.00031476       0.00573772      -0.00511490
B        3.68550416       3.58232339       4.13029650       0.00128514      -0.00085622      -0.00575033
C        1.28373906       7.80202428       3.85929632       0.00593095       0.00189850       0.00828021
C        0.04462117       9.95513603       3.71077687      -0.00360283      -0.00365044       0.00091806
C        7.44449705       1.41673850       3.66244197       0.00810191      -0.00194382       0.00378979
C        6.22137626       3.54922385       3.71962236       0.00491511      -0.00512911      -0.00252542
C        5.01429132       5.68547180       3.88762159       0.00232799       0.00309352       0.00294133
C        3.74004339       7.86318552       3.90396287      -0.00529254       0.00210434       0.00403779
C        2.50586394       9.97251616       3.73514669      -0.00197477       0.00345255       0.00088636
C        9.91013152       1.42002941       3.64313146      -0.00312143      -0.00350045      -0.00326125
C        8.68233784       3.55592502       3.59224345      -0.00009754       0.00467362       0.00300291
C        7.45626147       5.69435611       3.62635781       0.00073932      -0.00116140      -0.00384124
C        6.21476072       7.83619003       3.71649676      -0.00211928      -0.00239268       0.00854180
C        4.98060379       9.97750002       3.71739712       0.00796665      -0.00154986      -0.00304689
V        2.36327372       4.98150070       4.95262630      -0.01013521       0.00492260      -0.00603481
O        1.94917139       4.98135849       6.57632180       0.00395016      -0.00092459       0.00556174
O        1.51628961       4.97706411       7.91729760      -0.00286285       0.00051910       0.00462507
H        2.37095951       4.98553794       8.39270714       0.00030660       0.00003560      -0.00754336
