51
Lattice="12.336457 0.0 0.0 -6.168228499999997 10.683685154694365 0.0 0.0 0.0 15.0" Properties=species:S:1:pos:R:3:initial_magmoms:R:1:forces:R:3 energy=-438.56841434518657 free_energy=-438.56841434518657 stress="-0.007035741772145792 0.0034576046622373973 7.888972617829401e-06 0.0034576046622373973 -0.007474899849659145 2.355003397498657e-06 7.888972617829401e-06 2.355003397498657e-06 2.0775757638313686e-05" pbc="T T T"
C        0.04214301      -0.07348685       3.69273411       0.00000000       0.00217903      -0.01056580       0.00435562
C       -1.16349691       2.08241160       3.52202925       0.00000000       0.00366591       0.00588104       0.00010984
C       -2.42776466       4.21585937       3.45983424       0.00000000      -0.00558728       0.00110435       0.00028266
C       -3.66854525       6.34637915       3.56128636       0.00000000       0.00503168      -0.00548071       0.00490339
C       -4.91617091       8.46466672       3.66446204       0.00000000      -0.01076114      -0.00329620      -0.00132105
C        2.50492769      -0.10431434       3.87391112       0.00000000      -0.00512808       0.01176309       0.00056473
C        1.31730984       1.99807235       3.77572363       0.00000000      -0.00639483      -0.00964141       0.01176604
C       -0.01966781       4.27298299       3.29036475       0.00000000      -0.00932075       0.01662716      -0.00243432
C       -1.24976775       6.38687111       3.33812895       0.00000000       0.00435576      -0.00437966      -0.00309745
C       -2.44946839       8.48963952       3.59484449       0.00000000      -0.00136666      -0.00167186      -0.01750887
C        4.97766661      -0.07269665       3.83240203       0.00000000      -0.00515635       0.00291437      -0.00316178
C        3.76132578       1.96224529       4.36742688       0.00000000       0.00552393       0.00777500      -0.00245569
C        1.18090799       6.40050346       3.58603166       0.00000000      -0.00099640      -0.00628056       0.00614255
C        0.01453411       8.50721426       3.51738607       0.00000000       0.00620239      -0.00056074      -0.00019232
C        7.44436885      -0.05488199       3.69607296       0.00000000      -0.00474039       0.00838740      -0.00081680
C        6.24327532       2.05364674       4.05745110       0.00000000      -0.00084495      -0.00847134      -0.00233493
C        5.13650487       4.21722882       4.44496461       0.00000000       0.01038275       0.00361519      -0.01460287
S        3.62707728       6.10795681       3.30686080       0.00000000      -0.00393830      -0.00518938      -0.00514591
C        2.49460938       8.50596487       3.55375030       0.00000000       0.00250660       0.00703638       0.00832084
C        9.92003567      -0.05666215       3.61516346       0.00000000       0.00530500      -0.00824869      -0.01495846
C        8.69718658       2.07492071       3.68115311       0.00000000       0.00422010      -0.00441488      -0.00645556
C        7.48236065       4.19986073       3.82941817       0.00000000      -0.00017296      -0.00298818      -0.00387167
C        6.23568664       6.33647138       3.81633651       0.00000000      -0.00488774       0.00733861      -0.00174207
C        4.96583175       8.46792462       3.61759098       0.00000000       0.00079491       0.00535805      -0.00207254
C        0.06109099       1.36390116       3.65405726       0.00000000      -0.00188394      -0.00954815      -0.01095196
C       -1.18595351       3.50160743       3.38928626       0.00000000      -0.00548336       0.01188032      -0.00222306
C       -2.44685985       5.64080669       3.42159667       0.00000000       0.00808939      -0.00548683       0.01712275
C       -3.67674035       7.76731314       3.59661968       0.00000000      -0.00590475      -0.00195981       0.00226034
C       -4.90444644       9.88957898       3.73468988       0.00000000      -0.00261714      -0.00219347       0.01176111
C        2.52287192       1.30237057       4.06262557       0.00000000       0.00171367       0.01125569       0.01589303
S        1.54772009       3.59768865       3.21425392       0.00000000       0.01036417      -0.00033533      -0.00661960
C       -0.00405210       5.69079821       3.34299509       0.00000000       0.00061193       0.00861123      -0.01013761
C       -1.22426897       7.79924677       3.45784379       0.00000000       0.00552847      -0.00775782       0.01117628
C       -2.42725923       9.89426531       3.77862300       0.00000000      -0.00816885       0.00431570      -0.00811865
C        4.99949259       1.33615559       4.09691656       0.00000000       0.00310963      -0.00552655       0.00849842
S        3.82846363       3.42999171       5.29259953       0.00000000       0.00320702      -0.00698028      -0.01382867
C        1.25110115       7.77983845       3.52816727       0.00000000       0.00664934      -0.00629516       0.00894309
C        0.03720297       9.91781638       3.67125479       0.00000000      -0.00185277       0.00372085      -0.00081344
C        7.45585514       1.36312342       3.80836149       0.00000000       0.00200643       0.00267944       0.00628407
C        6.28983034       3.47025623       4.13473618       0.00000000       0.00327634      -0.00680488       0.00001956
C        5.07269690       5.56853984       4.06431354       0.00000000      -0.00480915       0.00412718      -0.01438941
C        3.71647189       7.81840852       3.53314019       0.00000000       0.00316122       0.01262647       0.00206730
C        2.50986452       9.92764102       3.61084188       0.00000000      -0.00454570       0.00784892       0.01474529
C        9.93666553       1.37323249       3.59272924       0.00000000       0.00804604      -0.00747683       0.01536334
C        8.69970962       3.49402233       3.64769668       0.00000000      -0.00309812      -0.00484194      -0.00852035
C        7.46407629       5.62174093       3.73896936       0.00000000       0.00058015       0.00162963       0.01709334
C        6.19230782       7.74942552       3.66965106       0.00000000      -0.00805841      -0.00066813      -0.00923082
C        4.97360826       9.90499286       3.63124532       0.00000000       0.00784050      -0.00737901       0.00502413
V        2.22676764       5.16627186       5.02499896       0.00000000      -0.00553564      -0.00763024      -0.00376384
O        0.68390359       6.63797839       7.09285515       1.00000000      -0.01136487      -0.00037821      -0.00172111
O        1.45851415       5.87847631       6.36214202       1.00000000       0.00826615       0.00595597      -0.00020689
