51
Lattice="12.336457 0.0 0.0 -6.168228499999997 10.683685154694365 0.0 0.0 0.0 15.0" Properties=species:S:1:pos:R:3:initial_magmoms:R:1:forces:R:3 energy=-444.78946690631466 free_energy=-444.78946690631466 stress="-0.005042287660780057 -0.003157672633775555 3.2108112782482285e-05 -0.003157672633775555 -0.003416670822508069 -2.0219780181981398e-05 3.2108112782482285e-05 -2.0219780181981398e-05 -5.581720639425994e-06" pbc="T T T"
C       -0.02120939      -0.06147477       3.70803096       0.00000000       0.00133935      -0.00166119       0.00101491
C       -1.27369924       2.07318799       3.89244449       0.00000000      -0.00402190       0.00285437       0.00006554
C       -2.49023950       4.22092407       3.65046894       0.00000000      -0.01124406      -0.01035397       0.00215666
C       -3.69115780       6.36589380       3.40964392       0.00000000       0.00392908       0.01029985       0.00513456
C       -4.93217486       8.50962449       3.45067514       0.00000000       0.00162556      -0.00376180       0.01042707
C        2.45303517      -0.07729188       3.71245067       0.00000000      -0.00142641      -0.00618411       0.00104149
C        1.20430232       1.98965480       4.21358567       0.00000000      -0.00214425      -0.00696710      -0.00038112
C       -0.13668170       4.25849371       4.27290064       0.00000000       0.00228346       0.01278505       0.00571895
C       -1.27207045       6.36902446       3.74628364       0.00000000       0.00133811       0.00300947       0.00100299
C       -2.47087004       8.49642575       3.54705508       0.00000000      -0.00076468       0.00621981       0.00882815
C        4.92179164      -0.05338863       3.62680128       0.00000000      -0.00204610      -0.01420594      -0.00123107
C        3.64585825       2.02861194       3.68180400       0.00000000       0.00708743       0.00324126       0.00636657
C        1.12011105       6.39777572       4.30481454       0.00000000       0.00743277       0.00144162       0.01598050
C       -0.01021606       8.48974329       3.75480188       0.00000000      -0.00544420       0.00082565       0.00277301
C        7.38634345      -0.06336809       3.65348234       0.00000000      -0.00209321       0.01842238       0.00144915
C        6.13793303       2.09582872       3.49087110       0.00000000      -0.00458659      -0.00325090      -0.01308864
C        4.99536506       4.31687150       3.35326780       0.00000000       0.00969556       0.00393409      -0.00028884
N        3.82132912       6.38380926       3.75975254       0.00000000       0.00014646      -0.00426719      -0.00884349
C        2.46926460       8.45880072       3.82527300       0.00000000      -0.00304770      -0.00847512      -0.00403565
C        9.84434810      -0.06535027       3.68229715       0.00000000      -0.00116651      -0.00167887      -0.00330936
C        8.61126594       2.08193158       3.59040075       0.00000000       0.00589017      -0.00580627       0.00123091
C        7.40692951       4.23210796       3.37627724       0.00000000      -0.00199665      -0.00348084      -0.01161890
C        6.20700168       6.40511521       3.30386885       0.00000000      -0.00480661      -0.00372149      -0.00371699
C        4.93492639       8.49931677       3.53551175       0.00000000       0.01161967       0.00385877      -0.00193018
C       -0.03492903       1.34914112       3.95419721       0.00000000      -0.00642361      -0.00738496       0.00692602
C       -1.28883522       3.50417857       3.93463981       0.00000000      -0.00148782       0.00538856       0.00062669
C       -2.47768157       5.64715663       3.57841161       0.00000000       0.00037048      -0.00223340      -0.00224386
C       -3.69716225       7.78989114       3.44331310       0.00000000       0.00542119       0.00785979       0.00323469
C       -4.95149623       9.91637715       3.62108885       0.00000000       0.00154303      -0.00910661       0.01058978
C        2.43802304       1.32396407       3.92074354       0.00000000       0.00199438      -0.00426611       0.00181255
P        1.17929797       3.48988106       5.14807951       0.00000000      -0.00375238       0.00096850       0.00719768
C       -0.07337193       5.67618976       4.11604655       0.00000000       0.00604691       0.01147611       0.00468950
C       -1.24540046       7.78508144       3.66062515       0.00000000      -0.00480507       0.00482683      -0.00058661
C       -2.47434945       9.91558335       3.61487435       0.00000000      -0.00411807      -0.00238714      -0.00359035
C        4.90523652       1.38532900       3.59078103       0.00000000      -0.00185161      -0.01199602      -0.00616666
S        3.41997225       3.68856492       3.31112533       0.00000000       0.00861585       0.00991745      -0.01389442
C        1.21947965       7.75468959       3.96882769       0.00000000      -0.00681907      -0.00555668      -0.00206997
C       -0.01136387       9.91055215       3.66342914       0.00000000       0.00187146       0.00329867       0.00251999
C        7.37109573       1.37174325       3.56203669       0.00000000       0.00146987       0.01304866      -0.00774099
C        6.15984519       3.52525140       3.37492040       0.00000000       0.00051975      -0.00495223      -0.00200438
C        4.98789947       5.72340307       3.40850445       0.00000000      -0.00005451      -0.00353032       0.00155255
C        3.72807840       7.76051780       3.71021058       0.00000000       0.01262377      -0.00306464       0.00156007
C        2.45212644       9.89167685       3.70763076       0.00000000      -0.00595712       0.00020515      -0.01511166
C        9.84175920       1.36534056       3.71083058       0.00000000       0.00325663      -0.00100548       0.00104208
C        8.62510924       3.50922096       3.51677083       0.00000000      -0.00737617      -0.01363969       0.00011714
C        7.42014990       5.65675543       3.32134920       0.00000000      -0.00174952       0.00522616       0.00113029
C        6.17689828       7.81535670       3.39738764       0.00000000       0.00229228      -0.00281649      -0.00324533
C        4.91546129       9.91646840       3.63156449       0.00000000       0.00186503       0.00697262      -0.00130360
V        2.69845275       5.38425151       5.07385931       0.00000000       0.00630598       0.00089758       0.01468645
O        3.19167416       6.33773010       7.88398274       1.00000000      -0.00922818       0.00662847      -0.00152002
O        2.97978716       5.92538662       6.65232131       1.00000000      -0.00817223       0.00214768      -0.01295385
