52
Lattice="12.336457 0.0 0.0 -6.168228499999997 10.683685154694365 0.0 0.0 0.0 15.0" Properties=species:S:1:pos:R:3:forces:R:3 energy=-450.5685100391993 free_energy=-450.5685100391993 stress="0.0015275951686716384 -0.005269762199992992 -3.18688957171985e-05 -0.005269762199992992 -0.006799859915816737 -8.37192854509785e-05 -3.18688957171985e-05 -8.37192854509785e-05 9.104220690580072e-05" pbc="T T T"
C        0.05416105       0.01212487       3.76233831       0.02175694       0.00473675       0.02321942
C       -1.20552745       2.14547045       3.72641947       0.01965982       0.02544481      -0.01063128
C       -2.42616838       4.29554056       3.74437201      -0.02248530       0.01120263       0.00418902
C       -3.63804769       6.42572487       3.80310192      -0.00237118      -0.00068060       0.01310588
C       -4.86355718       8.55986929       3.81127164       0.00620683      -0.00648315       0.02110978
C        2.51788559      -0.00486614       3.78522183       0.00120218      -0.01294065      -0.01800596
C        1.24422987       2.08863731       3.78370751      -0.02463481      -0.02623053       0.01229534
C        0.00648856       4.23135551       3.80643267       0.04320290      -0.01009347       0.00755966
C       -1.11371141       6.38601359       3.81836047       0.00446949       0.02258467       0.01425481
C       -2.37568776       8.54357680       3.85394489      -0.01227270      -0.00779388      -0.00905708
C        4.99284242       0.02285360       3.84530254      -0.01069776      -0.00789008       0.03361686
C        3.71648397       2.14521788       3.63228570       0.01014567      -0.02060775      -0.00851042
P        1.79744305       6.23100447       4.15786136       0.03506370      -0.01162289      -0.04177630
C        0.09263761       8.55876668       4.04164222       0.00039155       0.02661096       0.00429856
C        7.44180376       0.05909949       3.92831847      -0.01616798       0.00564184       0.02437442
C        6.18936541       2.18440926       3.75830356      -0.00090146       0.00729063      -0.01654469
C        4.95635087       4.34914153       3.68822374       0.00131756      -0.02579033       0.00985602
C        3.66917193       6.51877513       3.89614996      -0.02506060      -0.04793583      -0.00907481
C        2.54684200       8.66048191       4.07340069      -0.01012759      -0.01029993      -0.02052327
C        9.92342362       0.05310961       3.85436262       0.00667834      -0.00241751       0.00139605
C        8.66309143       2.18078325       3.78445051       0.00917850      -0.02965788       0.01340721
C        7.42558832       4.31096326       3.77641038      -0.01907245       0.01701006       0.00632903
C        6.19441264       6.45633382       3.82079282       0.01644105       0.01036204       0.00683070
C        5.00627230       8.59723696       3.86100239       0.00603163       0.03037870       0.01542840
C        0.02830747       1.43068986       3.72118700      -0.02427554      -0.01760214       0.01308466
C       -1.20024364       3.55675743       3.72548191       0.00529828       0.02323761      -0.00386096
C       -2.38736373       5.70972647       3.77868162      -0.00597340       0.01346347      -0.00289194
C       -3.62316334       7.84574767       3.82361214      -0.01235279      -0.01096042      -0.02322640
C       -4.87731747       9.98102579       3.78839608       0.01301164      -0.00218248      -0.00647153
C        2.47376902       1.41799931       3.75265024      -0.00553289      -0.00432479       0.01286597
O        1.20693686       3.47645876       4.04697251       0.00192389      -0.01528379       0.01238222
C        0.11505198       5.60266865       3.81075702      -0.00421655      -0.00622504       0.02277774
C       -1.13045919       7.82186363       3.90879271       0.00656247       0.03296795       0.00445637
C       -2.40166211       9.97123723       3.82866411      -0.00567904      -0.01661845       0.03479165
C        4.97895810       1.44685079       3.75023011       0.01643715      -0.01359957       0.00764826
P        3.73050090       3.62451682       2.61433836      -0.01462311       0.00103688      -0.02251159
C        1.36020856       7.93312062       4.21561278      -0.01083600      -0.01714929      -0.01991252
C        0.06026501       9.99882819       3.95300189      -0.01145542       0.01605414       0.01628890
C        7.43130440       1.47503362       3.82149710      -0.00932738       0.00120527       0.02493889
C        6.19980937       3.60192879       3.74070079      -0.00121046       0.00786893       0.03044176
C        4.92162654       5.79102549       3.81689670       0.00373878      -0.02821961      -0.01475681
C        3.76565399       7.92473062       3.94601960       0.00066216      -0.00065044      -0.00914839
C        2.52158302      10.06222282       3.97203568      -0.01789110       0.00074043      -0.03525644
C        9.90679619       1.46526817       3.77761522       0.02994204      -0.00192294       0.00417757
C        8.66475471       3.59946590       3.76400666      -0.01797360      -0.02097659      -0.01369231
C        7.43896559       5.73746824       3.80290604       0.00322084       0.00816144      -0.04466244
C        6.23095005       7.86926034       3.82904729      -0.00193089       0.01099101       0.00058971
C        4.98929356      10.01068830       3.82595611       0.01284858       0.02099900      -0.00304716
V        3.03025380       3.89514683       4.84733989      -0.00864772       0.00581811       0.02932301
O        3.50778005       3.24709590       6.27308350       0.03972192       0.01199859      -0.05003679
O        1.84196767       5.51772516       5.74497892      -0.01615475       0.03228618      -0.02979358
H        2.30575813       6.11437812       6.35520280      -0.00324145       0.02806793      -0.01164518
