51
Lattice="12.336457 0.0 0.0 -6.168228499999997 10.683685154694365 0.0 0.0 0.0 15.0" Properties=species:S:1:pos:R:3:initial_magmoms:R:1:forces:R:3 energy=-440.1576347395741 free_energy=-440.1576347395741 stress="-0.004786571726733724 0.0007916988236246585 -5.821397675028635e-06 0.0007916988236246585 -0.008777690642263797 2.0760043564839216e-06 -5.821397675028635e-06 2.0760043564839216e-06 -7.810699173093707e-06" pbc="T T T"
C       -0.07525690      -0.11753756       3.69976623       0.00000000      -0.00971071      -0.01027530       0.00635277
C       -1.29726830       2.04321920       3.60141525       0.00000000       0.00689735      -0.00360381       0.00604085
C       -2.52018847       4.18031955       3.69129301       0.00000000       0.00855979       0.00471998      -0.00353477
C       -3.75699534       6.30927506       3.68769423       0.00000000       0.00503386       0.00259612       0.00217446
C       -5.01487195       8.42910167       3.68947684       0.00000000      -0.00064693       0.00607020      -0.00126785
C        2.38378692      -0.15282931       3.87849925       0.00000000       0.01139865      -0.00419898       0.00400571
C        1.18130479       1.94803034       3.50455278       0.00000000      -0.00570022       0.00148461      -0.00772761
C       -0.07292258       4.22495787       3.53746292       0.00000000       0.00303474      -0.00452218       0.00749671
C       -1.30432583       6.32164678       3.85042972       0.00000000       0.00619909       0.00714235       0.00781940
C       -2.54829959       8.43793784       3.88943365       0.00000000       0.00216763      -0.00249156       0.00178468
C        4.85472343      -0.09966911       3.96797391       0.00000000       0.00268727       0.00507025      -0.00621579
C        3.59926073       1.97109810       3.97192895       0.00000000      -0.00053678      -0.00256671      -0.00655791
C        1.14786320       6.35937450       3.97681694       0.00000000      -0.00116558       0.00285290      -0.00254334
C       -0.09418611       8.46927484       3.93391669       0.00000000      -0.01009050       0.00157355      -0.00784367
C        7.32147863      -0.07463640       3.89168473       0.00000000      -0.00958877      -0.00420861       0.00721517
C        6.09198024       2.05202753       3.82658329       0.00000000      -0.00484903      -0.00387230      -0.01789340
C        4.91302942       4.20018957       3.34435104       0.00000000      -0.00881167      -0.00198316       0.00346170
S        3.54613327       6.39541399       2.43240993       0.00000000      -0.00899932       0.00550860       0.00305228
C        2.37349970       8.48695641       3.81047896       0.00000000       0.00454418       0.00672884      -0.00024093
C        9.79792825      -0.08451803       3.75253698       0.00000000       0.00037873       0.00546067      -0.00256173
C        8.56973894       2.04795983       3.74636003       0.00000000       0.00112224      -0.00458555      -0.00180190
C        7.35145351       4.17539929       3.59145401       0.00000000      -0.00890087      -0.00485791       0.00137186
C        6.14211934       6.32488403       3.32536902       0.00000000      -0.00451583       0.00588368       0.01151131
C        4.87169895       8.44717848       3.59741732       0.00000000       0.00005838      -0.00156819       0.01595784
C       -0.07313138       1.30737405       3.59302227       0.00000000      -0.00336660      -0.01004457       0.01049449
C       -1.27856185       3.47519123       3.60808760       0.00000000       0.00702366      -0.00187668      -0.00680031
C       -2.52339043       5.60232015       3.75295647       0.00000000       0.01131647       0.00718672       0.00392363
C       -3.77403098       7.72602696       3.75924943       0.00000000       0.00078774       0.00211156      -0.00530517
C       -5.01993860       9.84182913       3.76835469       0.00000000       0.00245090       0.00200347      -0.00259200
C        2.38148507       1.25289525       3.82146758       0.00000000       0.00074972      -0.00223196      -0.01274002
P        1.38743474       3.53856644       2.76583985       0.00000000       0.00114315      -0.00539480       0.00190702
C       -0.04538809       5.62736898       3.81001246       0.00000000       0.00111029       0.00303183      -0.00326126
C       -1.31365138       7.73918400       3.91190601       0.00000000      -0.00272829       0.00217339       0.01541622
C       -2.54255579       9.85255383       3.94154493       0.00000000       0.01349665      -0.00352642      -0.00259464
C        4.85897526       1.32859585       3.95035723       0.00000000      -0.00015568       0.00271119      -0.00548889
P        3.35656139       3.69764641       4.02949005       0.00000000       0.00983924       0.00987843      -0.00241478
C        1.14645789       7.75265814       3.91827135       0.00000000      -0.00237829       0.00896155       0.00589934
C       -0.08031320       9.88723058       3.94189844       0.00000000      -0.00903478      -0.00133796       0.00593637
C        7.32547279       1.34540831       3.83741648       0.00000000      -0.00602112      -0.00644792      -0.00882311
C        6.11072204       3.46187455       3.59200035       0.00000000      -0.00907499      -0.01045206      -0.01159395
C        4.97781279       5.58972377       3.05782833       0.00000000       0.00009909      -0.00534926       0.00117868
C        3.60313430       7.77963964       3.54925416       0.00000000       0.01162874      -0.00221907       0.00359522
C        2.38920449       9.90304886       3.82856036       0.00000000       0.00001326       0.00746428      -0.00041013
C        9.80636966       1.33971020       3.71165778       0.00000000       0.00641187       0.00250968      -0.01580382
C        8.58191143       3.46862645       3.68375550       0.00000000       0.00205960      -0.00045568       0.00735414
C        7.36166637       5.59782662       3.52527957       0.00000000      -0.00061743       0.00120233      -0.00875597
C        6.09143419       7.73593400       3.50628660       0.00000000      -0.00126121       0.00897722       0.00456425
C        4.85991178       9.86661735       3.70341138       0.00000000      -0.01132502      -0.00309642      -0.00685435
V        3.05230462       5.97171499       4.85354901       0.00000000      -0.00066698      -0.01086596       0.00756493
O        2.54622226       6.22424342       7.82228556       1.00000000      -0.00424058       0.00212447       0.00747022
O        2.77773434       6.16017333       6.53003148       1.00000000       0.00417486      -0.00339485      -0.00192197
