52
Lattice="12.336457 0.0 0.0 -6.168228499999997 10.683685154694365 0.0 0.0 0.0 15.0" Properties=species:S:1:pos:R:3:forces:R:3 energy=-447.6088340147735 free_energy=-447.6088340147735 stress="-0.0026483963423843846 0.0005774107179725561 6.9353940190466395e-06 0.0005774107179725561 -0.0017786406009629105 4.9509492858377286e-06 6.9353940190466395e-06 4.9509492858377286e-06 9.011186729875319e-06" pbc="T T T"
C       -0.02458992       0.07611662       3.90442693       0.00353818      -0.01890287      -0.00115936
C       -1.26899359       2.20865528       3.70964175       0.00444514      -0.00317506      -0.00658142
C       -2.51060919       4.35126318       3.75229752       0.00421476      -0.00384081       0.00618477
C       -3.73004990       6.49082895       3.89730988      -0.00054973       0.00071756      -0.00230578
C       -4.95405816       8.62820047       3.97606355      -0.00466917       0.00579396       0.01849385
C        2.45357497       0.08933449       3.94817012       0.00468398       0.00236569      -0.00203182
C        1.22017181       2.16961927       3.54064278       0.01181763      -0.00485403       0.00398340
C       -0.12409033       4.34434043       3.23991533       0.00269860       0.01771732       0.00352283
C       -1.29724054       6.50955155       3.55994643      -0.00383702      -0.00621644       0.00092805
C       -2.48908906       8.62809900       3.87956640      -0.01095595       0.00362140      -0.00447251
C        4.90964070       0.08159374       3.97938072       0.00185069      -0.00976370      -0.00030716
C        3.70195209       2.19324829       3.94423936       0.00770485      -0.00528024      -0.00675060
P        1.34089822       6.52306038       2.55504253       0.00459884      -0.00830113       0.00862783
C       -0.02967189       8.64357832       3.71193987      -0.00284033      -0.00447534      -0.02075229
C        7.37954059       0.07913596       3.98168268       0.00674644       0.00169424      -0.00990707
C        6.14972648       2.21256931       4.04522759       0.00021074       0.00796245       0.00553621
C        4.95522428       4.34787836       4.01638655      -0.00224029       0.00112277      -0.00987754
C        3.67631424       6.46671549       3.87119328      -0.01189406       0.00289313       0.00496615
C        2.44962122       8.63893889       3.81200114      -0.00624115      -0.00066338       0.00200106
C        9.84923145       0.07829540       3.95958885      -0.00451893      -0.00203336       0.00626409
C        8.61357382       2.21698045       3.95624612       0.00138401       0.00394441       0.01453357
C        7.37514013       4.35625422       3.99236784       0.01432035      -0.00163146      -0.00609873
C        6.14234411       6.48303242       3.99098754       0.00165766       0.00567285       0.00787989
C        4.91162497       8.61430998       3.96750188      -0.01989409      -0.00118686      -0.00091372
C       -0.02465312       1.49401824       3.71722276       0.00998273      -0.01233681       0.01258690
C       -1.30770196       3.62017109       3.56163823       0.00672771       0.00529555       0.00857641
C       -2.51014280       5.78349506       3.74630448      -0.00216857      -0.00831830       0.00472454
C       -3.72465299       7.91549505       3.92797267      -0.00914954       0.00461672      -0.00989139
C       -4.95297692      10.05390889       3.95332546       0.00779325       0.00020172      -0.00111759
C        2.46762095       1.52395348       3.83511157       0.00924259      -0.00420180       0.01117005
P        1.21023652       3.53185775       2.38623468       0.00413643       0.01252315      -0.01098785
C       -0.11289100       5.78195212       3.25600721       0.00743093       0.01621259      -0.01420550
C       -1.26870896       7.92511951       3.70110616      -0.01164649      -0.00845810       0.00413716
C       -2.49007299      10.05806795       3.95770296      -0.00333782       0.00278376      -0.01203050
C        4.91072436       1.51384867       4.02024756       0.00369391      -0.00723415      -0.00030053
O        3.74760395       3.61209151       3.95230002      -0.00151143       0.00989428       0.00789420
C        1.22103711       8.00012526       3.51841813      -0.00104006      -0.00152789       0.00136638
C       -0.02563924      10.05550844       3.91863591       0.00744658      -0.00652252       0.01238953
C        7.37583129       1.50656027       4.02118439       0.00011706       0.00809250      -0.00773474
C        6.14148589       3.63524762       4.04231352       0.00686133       0.00637332      -0.00529607
C        4.88654637       5.75665890       3.97715193      -0.00514698       0.00357814      -0.01277108
C        3.67413515       7.87172729       3.88412031      -0.01598217       0.00160708       0.00332849
C        2.44865731      10.05409389       3.95717762      -0.00022638      -0.00366619      -0.01065342
C        9.84758834       1.50195597       3.89617704      -0.00245087      -0.00208270      -0.00018324
C        8.60562034       3.64279373       3.91930385       0.00820146      -0.00306745      -0.00070361
C        7.36764637       5.77623407       3.97171838       0.00826209      -0.00081189       0.00408854
C        6.14586833       7.90887570       3.98698489      -0.00958444       0.00843952       0.00276930
C        4.91239518      10.04163925       3.95462255      -0.00841014      -0.00744872       0.00791677
V        2.17195335       4.85484305       4.17742501      -0.01819390      -0.00301829       0.00846214
O        1.48371765       4.71153431       5.81896808       0.00595682       0.01175272      -0.01401412
O        2.88078050       4.82359172       6.50758110       0.00093043      -0.00683079      -0.01499708
H        2.90055834       3.93837190       6.91967954      -0.00016569       0.00097341       0.01371261
