52
Lattice="12.336457 0.0 0.0 -6.168228499999997 10.683685154694365 0.0 0.0 0.0 15.0" Properties=species:S:1:pos:R:3:forces:R:3 energy=-444.39531494050664 free_energy=-444.39531494050664 stress="-0.0031251124914760207 3.70471772792952e-05 -3.722648119532352e-05 3.70471772792952e-05 -0.008994773052414124 -8.721471609781113e-05 -3.722648119532352e-05 -8.721471609781113e-05 -3.143716835538034e-05" pbc="T T T"
C        0.01699988      -0.04413448       3.59525835       0.00294587      -0.00361568       0.00251787
C       -1.20319466       2.11977549       3.64860088       0.01141217       0.00047425      -0.00841815
C       -2.42754195       4.24522997       3.78214019      -0.00610432       0.00091899       0.00324561
C       -3.67749692       6.37748334       3.69718110       0.00256366      -0.00020507       0.00192003
C       -4.92855080       8.49619823       3.58425527       0.00909285      -0.00502095       0.00321856
C        2.47951966      -0.08406736       3.74736160       0.00304418      -0.00405513      -0.01145897
C        1.27245954       2.01850498       3.42533777       0.00612118       0.00155542       0.00013933
C        0.04869263       4.28201440       3.77693238      -0.00571519      -0.00770574      -0.00759043
C       -1.23340440       6.40205418       3.87141736       0.00440555       0.00208643      -0.00364459
C       -2.45694501       8.50965262       3.82560403      -0.00036779       0.00341193      -0.00527840
C        4.95186242      -0.03716201       3.92212868       0.00330086       0.00243684       0.01295592
C        3.68846716       2.03829761       3.93797655      -0.00848203      -0.00658005      -0.00833526
C        1.24173796       6.43006466       3.98536891       0.00802900      -0.01542634      -0.00077448
C        0.02334840       8.52571894       3.90541413      -0.00099833       0.00615316       0.00565357
C        7.42203681      -0.01150431       3.88212191      -0.00333412       0.00590349       0.01620225
C        6.18540338       2.11799273       3.90862738      -0.00504404      -0.00069784      -0.00392225
C        4.99124783       4.28970368       3.60874766       0.00647911      -0.00467506       0.01591164
S        3.58628123       6.34774329       2.57381272      -0.00085221      -0.00620899      -0.00653054
C        2.48988197       8.55272629       3.66843281      -0.01193611      -0.00828669       0.01068266
C        9.89357070      -0.01197199       3.69593769      -0.01434735       0.00089853       0.00163098
C        8.66236491       2.11685627       3.80657380      -0.00172384       0.00024348       0.00511807
C        7.43567771       4.24536615       3.70631661      -0.00243420       0.00774342       0.00221189
C        6.21194932       6.38532667       3.37097242       0.00338392       0.00298529      -0.00698304
C        4.94947636       8.52548376       3.43070052      -0.00002978       0.00092713       0.00733520
C        0.02103158       1.38343933       3.54933559       0.01278422      -0.00081112      -0.00370595
C       -1.18366071       3.53967883       3.73760633      -0.00251831       0.00227389      -0.01334785
C       -2.44521657       5.67172798       3.79780468       0.00183244       0.00076429      -0.00313196
C       -3.68634034       7.79594932       3.69985627       0.00610851      -0.00372261      -0.00673566
C       -4.92618450       9.91305292       3.63472516       0.00346577      -0.00641009       0.00813256
C        2.48043929       1.32333246       3.70798983      -0.00222837      -0.00681686      -0.00645550
P        1.46712246       3.66801751       2.82822740      -0.00524127      -0.00446166       0.00637912
C        0.01654299       5.72118253       3.90546207       0.00217338      -0.01071711      -0.01403250
C       -1.22009394       7.81515304       3.89002780      -0.00024016       0.00698580      -0.01006344
C       -2.44887515       9.92160308       3.85040492       0.00521789       0.00295356      -0.01334180
C        4.94854974       1.39244053       3.95165578      -0.00619226      -0.00063983      -0.00802566
P        3.42816697       3.74855953       4.20859653      -0.00289183      -0.00622187      -0.00606857
C        1.27044747       7.80677486       3.85103071      -0.01086367      -0.01045179       0.00198339
C        0.02063569       9.94878482       3.91498149       0.00339385       0.00817680      -0.00410702
C        7.42035833       1.41007357       3.88168650      -0.00495091       0.00383005       0.00134523
C        6.19702255       3.53717128       3.76174083       0.00542660      -0.00021532       0.01131984
C        5.03322082       5.64040937       3.21176553       0.00430188      -0.00576183       0.00904740
C        3.69203617       7.89608976       3.30644019      -0.00400163      -0.00221156       0.00585668
C        2.49165810       9.96854493       3.77105575      -0.01501771      -0.00352000       0.00522218
C        9.89890078       1.41224940       3.73023027       0.00373686       0.00278564      -0.00863222
C        8.67128405       3.53730581       3.77413979      -0.00808234       0.00135180       0.00989536
C        7.43694685       5.66532251       3.58760691      -0.00006992       0.00760922       0.00322351
C        6.18115948       7.80134038       3.41515874       0.00743011       0.00287366      -0.00096443
C        4.95078958       9.94744386       3.58864511      -0.00736690       0.00417379      -0.00190793
V        1.64768377       4.93510422       5.46933898      -0.00156485       0.01468426      -0.00845714
O        1.50631448       4.97395526       7.13456564      -0.00003165       0.00915543       0.00814426
O        1.05214484       4.96070000       8.73365134      -0.00152012       0.01489811       0.00835286
H        1.97904446       4.84951464       9.03742783       0.01750135       0.00618450       0.00426776
