52
Lattice="12.336457 0.0 0.0 -6.168228499999997 10.683685154694365 0.0 0.0 0.0 15.0" Properties=species:S:1:pos:R:3:forces:R:3 energy=-444.6816123120906 free_energy=-444.6816123120906 stress="-0.0026999603042858816 -0.003622617775599452 -3.7243173015297395e-06 -0.003622617775599452 -0.007896137341729859 -4.9375284272458045e-05 -3.7243173015297395e-06 -4.9375284272458045e-05 -6.434721802584747e-06" pbc="T T T"
C       -0.02936786      -0.05325268       4.00844917       0.00450687      -0.00313646       0.00555874
C       -1.28900716       2.09097602       4.15231607      -0.00092577       0.00339256      -0.00401559
C       -2.51652334       4.23081006       3.85130570      -0.00136719      -0.00026852       0.01086250
C       -3.71716550       6.36664183       3.63202577      -0.00506111       0.00225671      -0.00330702
C       -4.94604246       8.50299167       3.74113707      -0.00052218       0.00342966       0.00600822
C        2.44915095      -0.09376648       4.01114178       0.00020189      -0.00422894      -0.01104428
C        1.20105055       1.99339931       4.45625981      -0.00582219       0.00337021      -0.00441686
C       -0.11552553       4.25709986       4.29064029       0.00758091       0.00364174       0.01532613
C       -1.24522788       6.35140508       3.70376657       0.00258673      -0.00181845      -0.00536043
C       -2.47152269       8.48386147       3.71925269      -0.00079564       0.00212944      -0.00552561
C        4.91028874      -0.05654517       3.77447718       0.00295209      -0.00287109       0.00611709
C        3.63039618       2.00542007       3.83875175      -0.00722849      -0.01589232      -0.00470589
P        1.53247012       6.15271677       3.16781818      -0.00947166       0.00996058      -0.00437823
C       -0.00701055       8.49764093       3.61557984       0.00680303       0.00050816      -0.00281555
C        7.36218713      -0.01552793       3.72320554      -0.00386701       0.00395150      -0.00009181
C        6.10725468       2.11505239       3.61851578      -0.00200950      -0.00281687       0.00139900
C        4.94633291       4.29480791       3.32387093       0.00926400       0.00048566       0.00309011
C        3.66236056       6.44338515       3.43071239      -0.00835799      -0.00148293       0.00948137
C        2.46116018       8.57207315       3.62631560       0.00188512       0.00220240      -0.00438431
C        9.84032078      -0.01336063       3.85577989       0.00143899      -0.00341255       0.00379774
C        8.58793909       2.11205961       3.79861249      -0.00606366      -0.00092601       0.00879659
C        7.36742623       4.24565820       3.55791349      -0.00005641      -0.00185705       0.00833362
C        6.15966730       6.40493415       3.44981359       0.00262764       0.00207750       0.01461890
C        4.92879331       8.54016972       3.67741325       0.00594318      -0.00350680      -0.00338036
C       -0.04636493       1.35817933       4.23519879      -0.00264528      -0.00053151       0.00196568
C       -1.31408041       3.51163646       4.12772911       0.00667765       0.00382923      -0.00227552
C       -2.49131198       5.65019928       3.72594670      -0.00249700      -0.00070166      -0.01026114
C       -3.71186301       7.78653879       3.68887781      -0.00465932       0.00400966      -0.00038220
C       -4.96075365       9.90619391       3.93913287       0.00228085      -0.00085959       0.00388429
C        2.43602027       1.31221622       4.18229651      -0.00980545      -0.00739033      -0.01102131
P        1.18148291       3.55589233       5.26344332       0.00117340       0.00703559       0.00750911
C       -0.03854945       5.59828688       3.83712195       0.00297695      -0.00462852      -0.00431687
C       -1.23680903       7.77456346       3.64261403       0.00513406       0.00174232      -0.00204162
C       -2.48246208       9.90256265       3.83243278       0.00212219      -0.00023237      -0.00017102
C        4.89005216       1.38012094       3.73996444      -0.00033764      -0.00646804       0.00255830
S        3.39676507       3.57700347       3.18906690      -0.00328268      -0.00483211      -0.00779081
C        1.25340069       7.84654151       3.51856501       0.00260728       0.00093408      -0.00754059
C       -0.02252390       9.92860419       3.69613489       0.00279431       0.00000321       0.00082441
C        7.34517594       1.41071014       3.71228946      -0.00528451       0.00145358      -0.00434138
C        6.12254143       3.53418224       3.47745169       0.00326574      -0.00240692       0.00922871
C        4.91153256       5.71588520       3.33723862       0.00064306       0.00237095       0.00183572
C        3.69324924       7.84842823       3.58984797       0.00058395       0.00193954      -0.01169379
C        2.43987919       9.97936767       3.73985205      -0.00373894       0.00158926       0.00249149
C        9.82572624       1.40036798       3.94542556      -0.00202859      -0.00037725      -0.00612722
C        8.58947918       3.53004854       3.73618184      -0.00174406      -0.00272087      -0.00410142
C        7.37820912       5.66960934       3.52939629      -0.00141829      -0.00154665       0.00163416
C        6.15858432       7.81713191       3.61429054       0.00565999       0.00043008       0.00622345
C        4.91090981       9.94898892       3.85086594       0.00715940      -0.00405010      -0.00519789
V        3.01126470       5.21830681       5.08015978      -0.00335177      -0.01450053       0.00130165
O        3.70326089       5.85652601       6.56346211       0.00549675       0.01400130      -0.00905405
O        3.11146630       5.32550485       7.87118318      -0.01167576       0.00430299       0.00355949
H        3.84170976       4.73485774       8.13576590       0.00965208       0.01241653       0.00333626
