51
Lattice="12.336457 0.0 0.0 -6.168228499999997 10.683685154694365 0.0 0.0 0.0 15.0" Properties=species:S:1:pos:R:3:initial_magmoms:R:1:forces:R:3 energy=-440.74671568210596 free_energy=-440.74671568210596 stress="-0.0028001369028961844 -0.0023165583377074586 -8.191774969941969e-06 -0.0023165583377074586 -0.0056276617168916744 -5.492813708165066e-06 -8.191774969941969e-06 -5.492813708165066e-06 3.2296067354395287e-06" pbc="T T T"
C       -0.11651131      -0.06452137       3.81479872       0.00000000      -0.00211700       0.00069384       0.00776496
C       -1.36713674       2.06837391       4.06223095       0.00000000       0.00111203       0.00478720      -0.00028589
C       -2.61809159       4.20753953       3.88527279       0.00000000       0.00576733       0.00151845      -0.00730013
C       -3.81703011       6.34403235       3.62089733       0.00000000      -0.00449070      -0.00499236       0.01311100
C       -5.03917213       8.48564298       3.61587702       0.00000000       0.00459590       0.00564368      -0.01297671
C        2.35456972      -0.09056558       3.69371789       0.00000000      -0.00099597       0.00120530       0.00249189
C        1.13637298       1.98488646       4.15739486       0.00000000      -0.00446124      -0.00304447       0.00081543
C       -0.21948951       4.24748768       4.30082964       0.00000000      -0.00024969      -0.00886802      -0.00895825
C       -1.35656692       6.33196136       3.68197599       0.00000000       0.00423492       0.00246913      -0.00115888
C       -2.56693994       8.46654749       3.56514747       0.00000000      -0.00749273       0.00668199       0.00528762
C        4.81952348      -0.07172055       3.51924155       0.00000000      -0.00255174      -0.00033002      -0.00846421
C        3.54387178       2.02973109       3.42771922       0.00000000      -0.00547661      -0.00350705       0.00459006
P        1.35810494       6.08121312       3.05724462       0.00000000       0.00689234       0.00702662       0.00255912
C       -0.10132283       8.47080113       3.44954266       0.00000000      -0.00027837      -0.00144231      -0.00357385
C        7.27859172      -0.04681216       3.56268855       0.00000000      -0.00545416      -0.00167342      -0.00210421
C        6.03543205       2.08534882       3.45267215       0.00000000       0.00119378      -0.00210754      -0.00515320
C        4.84666666       4.25534240       3.14723908       0.00000000       0.00002133       0.00065404       0.00306605
C        3.62936138       6.42531587       3.17813318       0.00000000      -0.00070805       0.00167956      -0.00602003
C        2.36700197       8.53478023       3.42029931       0.00000000      -0.00092755      -0.00195030       0.01770517
C        9.75292321      -0.04343663       3.72291364       0.00000000      -0.00147766       0.00293249      -0.00967180
C        8.49975877       2.08063453       3.75006101       0.00000000       0.00567669      -0.00002491      -0.00113126
C        7.26891927       4.21360469       3.55802626       0.00000000       0.00488173      -0.00695061       0.00176809
C        6.08003897       6.37965826       3.39876907       0.00000000       0.00190224      -0.00042397       0.00514538
C        4.83296973       8.51353111       3.52180130       0.00000000       0.00129526      -0.00333331      -0.00092714
C       -0.12274956       1.35015849       4.02952536       0.00000000      -0.00310806       0.00209863       0.00857655
C       -1.39937137       3.48918050       4.12981183       0.00000000      -0.00044061      -0.00084852      -0.00914531
C       -2.59648768       5.62819960       3.74387055       0.00000000       0.00232343       0.00069026      -0.00620511
C       -3.80724813       7.76718866       3.59578519       0.00000000      -0.00260900      -0.00203238       0.01038242
C       -5.04835147       9.90040970       3.72279859       0.00000000       0.00001582       0.00571430      -0.00582858
C        2.34121494       1.32945638       3.75783191       0.00000000      -0.00179699      -0.00430714       0.01048797
S        1.20679249       3.50771087       4.97639066       0.00000000      -0.00950709       0.00390311      -0.00584100
C       -0.15659552       5.57404393       3.82807883       0.00000000       0.00702654      -0.00416139       0.00571229
C       -1.33469598       7.75135190       3.52961316       0.00000000      -0.00471171       0.00800422       0.00002970
C       -2.57580142       9.88936516       3.57391851       0.00000000      -0.00307685       0.00461693       0.01305604
C        4.80217383       1.35811876       3.44625134       0.00000000      -0.00147252      -0.00102193      -0.00137939
P        3.38801169       3.48701682       2.41244057       0.00000000      -0.00880153       0.00039693       0.00757670
C        1.15266525       7.81102683       3.33023442       0.00000000       0.00253526      -0.00451953       0.00354673
C       -0.11295259       9.90585045       3.50225205       0.00000000      -0.00394290      -0.00373420      -0.00595030
C        7.26870498       1.37621341       3.59422814       0.00000000       0.00185535      -0.00105776      -0.00001050
C        6.04750544       3.50199527       3.38505297       0.00000000       0.00073506      -0.00132630       0.00589372
C        4.85994189       5.70010142       3.21526772       0.00000000       0.00137900       0.00064648      -0.00218963
C        3.60378520       7.82040574       3.36186724       0.00000000      -0.00097860       0.00126873      -0.00350936
C        2.35284897       9.94234021       3.57630850       0.00000000      -0.00481259       0.00119041       0.00235056
C        9.74484198       1.37257608       3.86432983       0.00000000       0.00669020       0.00451199      -0.01609719
C        8.49018881       3.50086123       3.74723957       0.00000000       0.00946916      -0.00128730      -0.00641789
C        7.28735815       5.64282885       3.53199639       0.00000000      -0.00075865      -0.00781592      -0.00424390
C        6.06591767       7.79281867       3.51776085       0.00000000       0.00672565       0.00097730       0.00098662
C        4.82060847       9.92388943       3.69698751       0.00000000      -0.00141312      -0.00199489      -0.00568584
V        3.08678326       4.82425336       4.18643113       0.00000000       0.00647565       0.00266880       0.00398921
O        5.22761081       6.10966476       9.15440368       1.00000000      -0.00990817      -0.00755581      -0.00572159
O        6.05349866       6.72119479       9.84179011       1.00000000       0.01121521       0.00833098       0.00905787
