51
Lattice="12.336457 0.0 0.0 -6.168228499999997 10.683685154694365 0.0 0.0 0.0 15.0" Properties=species:S:1:pos:R:3:initial_magmoms:R:1:forces:R:3 energy=-445.7542648770724 free_energy=-445.7542648770724 stress="-0.0030141500463796668 -0.0030768922696954547 2.3324651431929062e-05 -0.0030768922696954547 -0.001869691249301688 4.036175699132239e-06 2.3324651431929062e-05 4.036175699132239e-06 -1.676679840100424e-05" pbc="T T T"
C        0.03393491      -0.00771180       3.98283795       0.00000000      -0.00188931      -0.00112381      -0.00237962
C       -1.22874130       2.11207640       3.97479244       0.00000000       0.00871012      -0.00816251      -0.00427510
C       -2.45323544       4.26187534       3.83582414       0.00000000       0.00332559      -0.00976504      -0.00024253
C       -3.65127126       6.40731686       3.79572147       0.00000000      -0.00063683      -0.00291857      -0.01230109
C       -4.88288819       8.54948339       3.89577720       0.00000000       0.00337458       0.00282748       0.00238272
C        2.49582678       0.01291133       3.86116089       0.00000000      -0.00109983       0.00145140      -0.00765819
C        1.22125121       2.11403986       3.97147363       0.00000000      -0.00040627       0.00250485      -0.01314614
C       -0.03764276       4.21361050       3.85505148       0.00000000      -0.00240929       0.00702245       0.01657361
C       -1.18398373       6.37620989       3.67627269       0.00000000      -0.00182247       0.00186682       0.00460349
C       -2.41581622       8.53711755       3.75337476       0.00000000      -0.00696614       0.00105735      -0.00963177
C        4.96178399      -0.00403673       3.65475008       0.00000000       0.00708963      -0.00203539       0.00901312
C        3.69306504       2.10639475       3.44225768       0.00000000      -0.00400288      -0.00041641      -0.00470416
P        1.47926549       6.22800213       2.81603466       0.00000000       0.00303650       0.00623987      -0.00309697
C        0.04322610       8.53451732       3.57126182       0.00000000       0.00305734      -0.00146702       0.00579259
C        7.42595053      -0.00210375       3.71166176       0.00000000       0.00103537       0.00349696       0.01928827
C        6.18922637       2.13732839       3.53489693       0.00000000      -0.00124071       0.00133665      -0.00432017
C        5.02556249       4.31849938       3.36451131       0.00000000       0.00778375       0.00289338      -0.00190674
C        3.77774519       6.41613942       3.77797286       0.00000000      -0.00560927       0.01074296      -0.00504581
C        2.50580089       8.55210688       3.73008828       0.00000000      -0.00473394      -0.00202897      -0.00099120
C        9.89181816      -0.01148214       3.91409031       0.00000000      -0.00971579       0.00027868       0.00149010
C        8.64906425       2.12788973       3.79895080       0.00000000      -0.00574652       0.00399748       0.00270270
C        7.43843477       4.27522445       3.68044690       0.00000000       0.00136293       0.00021388       0.00935994
C        6.23522875       6.42781669       3.75836665       0.00000000       0.01087957      -0.00302892      -0.00117222
C        4.97715705       8.54412509       3.90945761       0.00000000       0.00906472      -0.00276334       0.00796923
C        0.02020700       1.42051188       4.00472613       0.00000000       0.00696150      -0.00483982       0.00157114
C       -1.23616703       3.52260433       3.90790807       0.00000000       0.00625202      -0.00739370       0.00121908
C       -2.42473815       5.68277577       3.77908426       0.00000000      -0.00199042      -0.00751163      -0.00281799
C       -3.65104391       7.83311311       3.82328281       0.00000000      -0.00383939      -0.00112982       0.00494708
C       -4.89371185       9.97646354       3.93922407       0.00000000      -0.00127084       0.00318418      -0.00061660
C        2.46874579       1.45047937       3.79527413       0.00000000      -0.00123995      -0.00018665      -0.00260819
O        1.15358633       3.51552956       4.11674275       0.00000000      -0.00836446      -0.00568566      -0.00601484
C        0.02253790       5.59788109       3.63509376       0.00000000       0.00390024       0.00722524       0.00249317
C       -1.18524321       7.81105974       3.63921785       0.00000000      -0.00349633       0.00402667      -0.00963756
C       -2.43532792       9.97058104       3.75892451       0.00000000       0.00012385       0.00035846      -0.01119870
C        4.94459127       1.42722027       3.53127927       0.00000000      -0.00114156      -0.00164071       0.00068692
P        3.58389891       3.66289977       2.62384926       0.00000000      -0.00366897      -0.00111034      -0.00365403
C        1.29606699       7.86834321       3.46051823       0.00000000      -0.00259365      -0.00827290       0.00044144
C        0.02860626       9.96657503       3.64705187       0.00000000       0.00947077       0.00011150      -0.00260722
C        7.41593372       1.42344156       3.68762144       0.00000000      -0.00195176       0.00284209      -0.00512200
C        6.21452600       3.56406754       3.50293224       0.00000000       0.00640904       0.00252197      -0.00599672
C        5.00314304       5.72147677       3.64435715       0.00000000       0.00697192       0.00644172       0.00923843
C        3.74274841       7.82598372       3.83780719       0.00000000       0.00080376       0.00784609       0.00115770
C        2.49311758       9.97323934       3.80834179       0.00000000      -0.00668107      -0.00302181      -0.00329659
C        9.88554137       1.41249796       3.91366621       0.00000000      -0.00316190       0.00189037       0.00248817
C        8.65308943       3.55383718       3.78371758       0.00000000      -0.00129524       0.00022198      -0.00779723
C        7.45288312       5.70175882       3.74917771       0.00000000       0.00500275      -0.00362461      -0.00379468
C        6.22164777       7.84209054       3.87809289       0.00000000       0.01202598      -0.00693920       0.01371510
C        4.96684171       9.96304655       3.95508114       0.00000000      -0.00468962      -0.00107629       0.00730869
V        2.57755168       5.11229488       4.90704715       0.00000000      -0.00928320       0.00431086      -0.00149744
O        1.68230666       6.05960201       5.92181220       1.00000000      -0.00167505      -0.00109579       0.00688210
O        3.48750715       4.02783053       5.76152384       1.00000000      -0.01401925       0.00032757       0.00620673
