52
Lattice="12.336457 0.0 0.0 -6.168228499999997 10.683685154694365 0.0 0.0 0.0 15.0" Properties=species:S:1:pos:R:3:forces:R:3 energy=-450.52861034282216 free_energy=-450.52861034282216 stress="-0.005846550741915889 -0.001735052522238845 1.0720528339933304e-05 -0.001735052522238845 -0.007311176087879677 1.0192216492124595e-05 1.0720528339933304e-05 1.0192216492124595e-05 3.901099178946442e-06" pbc="T T T"
C       -0.04239410      -0.03677895       3.80067183      -0.00471859       0.00193273      -0.00238086
C       -1.28010586       2.10541562       3.63776543      -0.00155105      -0.00227277       0.00631433
C       -2.50978376       4.24657328       3.74916892       0.00674820       0.00374851       0.00930021
C       -3.72872161       6.38391728       3.81959389       0.00245673       0.00355037       0.00198122
C       -4.96761154       8.51504808       3.88048702       0.00246305      -0.00609310       0.00417556
C        2.42564330      -0.08180365       3.88931378      -0.00642762       0.00034715       0.00192795
C        1.20682041       2.01712656       3.46755521       0.00232330      -0.00027305       0.00453857
C       -0.06647360       4.28983233       3.60784570       0.00696925      -0.00014119      -0.00002078
C       -1.28564227       6.38752852       3.94025642      -0.00073509       0.00191464       0.00147177
C       -2.50193160       8.51051044       3.96912574       0.00203130       0.00592690      -0.00415763
C        4.89858972      -0.03654273       3.99362513       0.00140773       0.00344147      -0.00914775
C        3.62624036       2.01570163       3.96679791       0.00123363       0.00768156      -0.00439618
C        1.13152639       6.40280402       4.16744171       0.00019177       0.00402754      -0.00346807
C       -0.04363481       8.52859769       4.06661072      -0.00612023      -0.00332327      -0.00776654
C        7.36450426      -0.02015187       3.96740719       0.00231440       0.00175185      -0.00500900
C        6.11480662       2.13181287       3.84654170      -0.00574086       0.00115344      -0.00894524
C        4.91056599       4.36256934       3.59582996      -0.00856370      -0.00203646      -0.00147099
O        3.75688093       6.44067399       3.80713668       0.00632750       0.00469919      -0.00180263
C        2.45001049       8.51368026       4.14028922      -0.00067271       0.00519066      -0.00185047
C        9.82513643      -0.02505772       3.89301516       0.00550450      -0.00252636      -0.00251602
C        8.58880649       2.11389233       3.78772011       0.00285868      -0.00442863      -0.00943857
C        7.35897424       4.25850593       3.70688457      -0.00231574      -0.00505367      -0.00798560
C        6.16760561       6.42693434       3.67858550       0.00022968      -0.00491342      -0.00022598
C        4.91908275       8.53610696       3.99645879      -0.00050937      -0.00343832       0.00279160
C       -0.04551792       1.37904081       3.61442769      -0.00164582       0.00235285       0.00362027
C       -1.26887953       3.53819474       3.65058316       0.00607635      -0.00063643       0.00331117
C       -2.50369357       5.66920272       3.83587852       0.00193141       0.00558575       0.00620537
C       -3.73051938       7.80291653       3.88983342       0.00649519       0.00059330       0.00803510
C       -4.98030993       9.92735149       3.86894733      -0.00654118      -0.00426688      -0.00247368
C        2.41283347       1.31869212       3.77778271       0.00048122       0.00317526       0.00201269
P        1.39361979       3.65323518       2.79969485      -0.00028443      -0.00028204       0.01035613
C       -0.04582580       5.68307200       3.92334354       0.00024653       0.00529873      -0.00739545
C       -1.27094494       7.80799276       4.00630882      -0.00536233      -0.00037206       0.00365733
C       -2.49841503       9.92429828       3.97706745      -0.00149990       0.00557523       0.00502223
C        4.89092719       1.39268276       3.95312926      -0.00276073       0.00793009      -0.00716731
P        3.33663540       3.71411297       3.93978693       0.00346841      -0.00103656      -0.00116208
C        1.19240996       7.79575107       4.17206633      -0.00288456       0.00446314      -0.00084129
C       -0.03591304       9.94534379       4.01800743       0.00031973      -0.00173614       0.00163793
C        7.35046897       1.40892889       3.86748607      -0.00027168       0.00205492       0.00357983
C        6.11306364       3.56360430       3.69764813      -0.00979206      -0.00435589       0.00048109
C        4.97699439       5.75003805       3.59270298      -0.00107341      -0.00226396      -0.00175255
C        3.70534391       7.83890831       4.12820953      -0.00275837      -0.00734482       0.00080418
C        2.43264477       9.94378785       3.99558884       0.00489060       0.00506973      -0.00152886
C        9.82653101       1.40154316       3.77060723       0.00178280      -0.00639283      -0.00325234
C        8.59369228       3.53814146       3.74349370       0.00527459      -0.00110210      -0.00599766
C        7.38299515       5.67914836       3.71609164       0.00154989      -0.00236509      -0.00200049
C        6.14583949       7.83170266       3.85700388       0.00132066      -0.00431030       0.00387069
C        4.89470641       9.95365912       3.91109557       0.00067185      -0.00199452       0.00708232
V        2.70562682       6.28886979       5.53672102       0.00093590      -0.00428849       0.00733427
O        2.70932808       6.95067280       7.03678512      -0.00077607      -0.00043496      -0.00347931
O        3.15054550       4.39095422       5.56284437       0.00583339      -0.00425217       0.01542229
H        2.88264170       3.76963261       6.26909566      -0.01133273      -0.00552954      -0.00730077
