52
Lattice="12.336457 0.0 0.0 -6.168228499999997 10.683685154694365 0.0 0.0 0.0 15.0" Properties=species:S:1:pos:R:3:forces:R:3 energy=-459.49966265536335 free_energy=-459.49966265536335 stress="-0.004712437225708477 -0.0004149121926920502 2.9043857325602586e-05 -0.0004149121926920502 0.005069669697514946 1.007774143437998e-05 2.9043857325602586e-05 1.007774143437998e-05 -9.621724121607565e-06" pbc="T T T"
C        0.00739076       0.00675695       3.74711181      -0.00315926      -0.00296588       0.00658046
C       -1.24329113       2.11685556       3.72362861      -0.00100111      -0.00247475      -0.00602432
C       -2.47332729       4.26077148       3.64507241       0.00035712       0.00347084      -0.00144383
C       -3.69680558       6.41505047       3.62126753       0.00226105       0.01099941       0.00250173
C       -4.92168079       8.56730530       3.68675034      -0.00276587      -0.00432832      -0.00015557
C        2.47393561       0.05625559       3.76220531      -0.00503773       0.00069837      -0.00512489
C        1.21663111       2.19054446       3.85962388      -0.00364534       0.00781710      -0.00130423
C       -0.03575618       4.23922974       3.84062808       0.00063976       0.00155868       0.00234296
C       -1.26039846       6.40963966       3.71918325       0.00205705      -0.00206477      -0.00463763
C       -2.46926717       8.56743580       3.69877598       0.00112637      -0.00336691      -0.00988014
C        4.93785892       0.01043385       3.73888994       0.00540088      -0.00514170      -0.00132386
C        3.72736047       2.19642883       3.83681146       0.00945435      -0.00250505      -0.00260593
C        1.16356265       6.38175851       3.96842188      -0.00790390       0.00032048      -0.00018500
C        0.00025496       8.53128796       3.77574390      -0.00567253       0.00497665      -0.00190202
C        7.41380660      -0.03761178       3.73578669       0.00421696       0.00183558      -0.00310738
C        6.18479115       2.12132480       3.68884855       0.00027992      -0.00449050      -0.00547025
C        4.97866524       4.26130269       3.78157057       0.00164102       0.01006405       0.00325175
N        3.79476926       6.37995794       3.93886429      -0.00702111      -0.00056084      -0.00342876
C        2.48798972       8.47902468       3.84537602      -0.00117108       0.00044249      -0.00005023
C        9.87161780      -0.03890369       3.74161396       0.00199116       0.00239686       0.00019038
C        8.64044430       2.11196757       3.65950785      -0.00244957      -0.00713446      -0.00401243
C        7.41588835       4.26529860       3.61032268      -0.00158662      -0.00077121       0.00511107
C        6.19255131       6.41567446       3.67051276       0.00285647      -0.00141789       0.00153939
C        4.94813219       8.51927225       3.76097557       0.00827673       0.00363629       0.00312759
C        0.00194111       1.43621510       3.77188334      -0.00211984      -0.00398611       0.00441033
C       -1.25257115       3.53583903       3.71490087       0.00302264       0.00096917      -0.00152467
C       -2.47504002       5.69318857       3.64554267       0.00018908       0.00847715       0.00078367
C       -3.69432147       7.84722972       3.66078032      -0.00005041       0.00202055      -0.00616812
C       -4.92102362      10.00077331       3.73358350      -0.00455173      -0.00965949       0.00179584
C        2.47406330       1.49722742       3.83355351      -0.00240285       0.00583178       0.00495498
N        1.14901790       3.56796693       3.96497875      -0.00002242       0.00547275       0.00392316
C       -0.02915400       5.67857537       3.84706310      -0.00256928      -0.00368909       0.00409853
C       -1.24315064       7.83843210       3.72436909       0.00117114      -0.00182549      -0.00411962
C       -2.46792530      10.00029523       3.73345078       0.00135845      -0.00255244       0.00548788
C        4.94095357       1.44140698       3.74655432       0.00667629      -0.00555166       0.00522158
N        3.79355894       3.57805635       3.92639011       0.00392177       0.00004101      -0.00366509
C        1.23656650       7.77451119       3.86793173      -0.00791997       0.00194209       0.00272874
C        0.00401250       9.95498238       3.74580597       0.00446736       0.00325670       0.00649617
C        7.41136986       1.39374112       3.68377141      -0.00117220      -0.00607964       0.00255122
C        6.19054599       3.54630341       3.66377496      -0.00380737      -0.00094784       0.00375340
C        4.97703481       5.70156175       3.78663653      -0.00217508       0.00557078      -0.00009418
C        3.73450629       7.75988658       3.85308038       0.00544423       0.00034537      -0.00269872
C        2.47828231       9.91146588       3.77078015       0.00405042       0.00274489      -0.00541989
C        9.86837192       1.39267259       3.70040948      -0.00150961       0.00185536      -0.00829592
C        8.63993913       3.54269454       3.61893797       0.00066324      -0.00275065       0.00518312
C        7.41558899       5.69469974       3.61250927       0.00227818       0.00368288       0.00552967
C        6.18838350       7.83999541       3.69847210       0.00106508      -0.00213542      -0.00378558
C        4.94129214       9.94883199       3.74846057      -0.00216791       0.00622744       0.00193954
V        2.47872333       4.94798409       4.52156821       0.00783010      -0.01641594       0.00062960
O        2.43900149       5.07070019       6.19309069       0.01091891      -0.00255571      -0.00351405
O        2.23599656       4.93868473       7.62054004      -0.01259125      -0.00605943      -0.00967658
H        3.16476704       4.99745094       7.92704427      -0.00914171       0.00477646       0.01548612
