52
Lattice="12.336457 0.0 0.0 -6.168228499999997 10.683685154694365 0.0 0.0 0.0 15.0" Properties=species:S:1:pos:R:3:forces:R:3 energy=-444.7693372329081 free_energy=-444.7693372329081 stress="-0.001409124827164974 -0.0024886118706444822 2.5914360604015845e-05 -0.0024886118706444822 -0.006068026266481596 6.6109458964046185e-06 2.5914360604015845e-05 6.6109458964046185e-06 9.87541000586195e-06" pbc="T T T"
C       -0.02544225      -0.02168827       3.97897811       0.00457722       0.00101173       0.00272855
C       -1.27266061       2.11894442       4.19242506       0.00071002      -0.00422712       0.00420273
C       -2.52083487       4.25578454       3.99993267       0.00330888      -0.00587623      -0.01176631
C       -3.72363105       6.38897322       3.76029308      -0.00152685      -0.00101630      -0.00093369
C       -4.94717762       8.52785440       3.77738659      -0.00250053       0.00297302       0.00053100
C        2.44710171      -0.05345657       3.87455204      -0.00164561       0.00376350       0.00842311
C        1.22501754       2.02505886       4.32103561      -0.00138358      -0.00123270       0.00034588
C       -0.11616547       4.29462534       4.39527690      -0.01260272      -0.00043595       0.00053786
C       -1.25309192       6.37597059       3.79344483      -0.00157293      -0.00250295       0.00269547
C       -2.47264084       8.50943474       3.72056299       0.00363951       0.00489812       0.00149619
C        4.91063471      -0.02640185       3.68003940      -0.00225072      -0.00342388       0.00126196
C        3.62944680       2.06766570       3.62647113       0.00366326      -0.00298639       0.00703604
P        1.50925783       6.13863020       3.23182563      -0.00718721       0.00470504       0.00445585
C       -0.00570021       8.51835078       3.59594391       0.00409313       0.00070631      -0.00730593
C        7.36882555       0.00568078       3.70619321       0.00079227      -0.00226567       0.00400667
C        6.12164872       2.13605333       3.61650827       0.00186448      -0.00149242       0.00989832
C        4.92396931       4.30708944       3.35377974       0.00298534       0.00033964      -0.00197157
C        3.68964303       6.47125900       3.34509737       0.00176251       0.00019840       0.00075623
C        2.46154715       8.59120363       3.57958914       0.00261535      -0.00328627       0.00280992
C        9.84565246       0.00892524       3.86583367       0.00310417       0.00082863       0.00271735
C        8.59213700       2.13160767       3.88269960      -0.00016311       0.00412595      -0.00076362
C        7.35535568       4.26094273       3.70866445       0.00635879      -0.00147250       0.00184668
C        6.16666710       6.42723963       3.55864088      -0.00087634       0.00151077      -0.00253349
C        4.92203914       8.55980096       3.68814830      -0.00340172       0.00060879      -0.00952649
C       -0.03134815       1.39470614       4.18622015       0.00102275       0.00080355      -0.00251125
C       -1.29994625       3.53863963       4.23761353      -0.00369851      -0.00544333      -0.00233549
C       -2.49773946       5.67492609       3.86003376      -0.00233490      -0.00578983       0.00616165
C       -3.71415442       7.81058111       3.75106797       0.00073430       0.00499626      -0.01280873
C       -4.95748520       9.94041940       3.89327089       0.00092802       0.00335038      -0.00059716
C        2.43435372       1.36344016       3.94727966       0.00019904       0.00054419       0.00010594
S        1.30022168       3.56715909       5.08133557      -0.00490391      -0.00511560      -0.00247475
C       -0.04770514       5.62077224       3.92451235      -0.00251247      -0.00266153      -0.00128478
C       -1.23826310       7.79773251       3.66793279       0.00446713      -0.00100470      -0.00595405
C       -2.48185472       9.93111312       3.74517185      -0.00495862       0.00410393      -0.00710469
C        4.88742716       1.40670887       3.61945760       0.00154072      -0.00854144      -0.00842541
P        3.40518449       3.59384732       2.72919309       0.00100191       0.00768927      -0.00400893
C        1.25229897       7.85958492       3.48739543       0.00132047       0.00311338       0.00347701
C       -0.02106176       9.95398289       3.65013483       0.00007974      -0.00097532       0.00065233
C        7.35837456       1.42760370       3.73837115       0.00113016       0.00123456       0.00193487
C        6.13269743       3.55010920       3.56228792       0.00672973      -0.00050897      -0.00100291
C        4.93553907       5.74882306       3.38049471       0.00170309       0.00121467       0.00357192
C        3.69262509       7.87706246       3.53211189      -0.00185133      -0.00550947       0.00662147
C        2.44440105       9.99854199       3.72379041       0.00270290      -0.00452280       0.00072063
C        9.83884188       1.42491126       3.99454444      -0.00171458       0.00157248       0.00605598
C        8.58328093       3.55029193       3.87874663       0.00587323       0.00051755      -0.01076869
C        7.37429495       5.69021047       3.68039807      -0.00085391      -0.00232127       0.00741796
C        6.15603278       7.83614312       3.68004533      -0.00471395       0.00106097       0.00337130
C        4.91142410       9.97223843       3.85421747       0.00465562       0.00074567      -0.00200107
V        3.37981969       4.96003080       4.55882144       0.00010487       0.01841383       0.00167733
O        3.59518947       5.86263005       6.93975686      -0.01153118      -0.00062895       0.00915849
O        3.10470613       4.93156056       7.87794251      -0.00196522      -0.00842568      -0.00547609
H        3.92997904       4.46679736       8.11872830       0.00248132       0.00663668      -0.00512155
