51
Lattice="12.336457 0.0 0.0 -6.168228499999997 10.683685154694365 0.0 0.0 0.0 15.0" Properties=species:S:1:pos:R:3:initial_magmoms:R:1:forces:R:3 energy=-447.2958429647221 free_energy=-447.2958429647221 stress="-0.00453528549459198 -0.0011933637688774045 3.272663886250731e-06 -0.0011933637688774045 -0.008346258021961601 -3.0973566269592174e-05 3.272663886250731e-06 -3.0973566269592174e-05 6.793994374143153e-06" pbc="T T T"
C       -0.03585401      -0.05356921       3.59287012       0.00000000       0.00040253      -0.01182475       0.00504758
C       -1.27113272       2.09137026       3.48175200       0.00000000       0.00174588      -0.00845118       0.00693141
C       -2.50347395       4.22697332       3.61605275       0.00000000      -0.00348607       0.01173561      -0.00281171
C       -3.72617616       6.36217711       3.67723470       0.00000000       0.00087010       0.00332456      -0.00363922
C       -4.96617306       8.49188579       3.68084420       0.00000000       0.00367672       0.00328167      -0.00138224
C        2.43314494      -0.10770626       3.68847106       0.00000000      -0.00500798      -0.00554489      -0.00070425
C        1.22330062       2.00769269       3.35107636       0.00000000       0.00527308       0.00941005       0.00396582
C       -0.05585998       4.27368742       3.48911755       0.00000000       0.00164498       0.00776891       0.00320481
C       -1.28495725       6.37074610       3.78511953       0.00000000      -0.00011260      -0.00397348       0.00217048
C       -2.49592761       8.48801177       3.77868597       0.00000000       0.00121557      -0.00912638       0.00867372
C        4.90433074      -0.06242184       3.84900185       0.00000000      -0.00312700       0.00541117      -0.00161788
C        3.62610636       1.98129880       3.92256144       0.00000000      -0.00292637      -0.00577439      -0.00035729
C        1.13594643       6.38893409       4.01973770       0.00000000       0.00730991      -0.00111079       0.00315897
C       -0.03249804       8.50598065       3.92304025       0.00000000      -0.00602564      -0.00630901      -0.00694316
C        7.37162404      -0.03911543       3.83873992       0.00000000       0.00618700       0.00309529       0.01375669
C        6.11830156       2.10828911       3.80124417       0.00000000      -0.00608772       0.00761411       0.00542414
C        4.90364816       4.33230619       3.73058147       0.00000000      -0.00058524      -0.00393144      -0.01058046
O        3.77039124       6.43409509       3.92520906       0.00000000      -0.01276038      -0.00635908      -0.00419554
C        2.46174226       8.50168901       4.01581101       0.00000000       0.00021017       0.00481847       0.00472138
C        9.83225575      -0.03939363       3.72863748       0.00000000       0.00508843      -0.00496277      -0.00854881
C        8.59518221       2.09571882       3.66891112       0.00000000      -0.00795170       0.00053817      -0.00989135
C        7.35960321       4.23550366       3.65477027       0.00000000      -0.00257994      -0.00872539       0.00148683
C        6.16652309       6.39795862       3.64532716       0.00000000       0.00240423       0.00309315      -0.01479417
C        4.91704381       8.52164142       3.81751391       0.00000000      -0.00130921       0.00364166      -0.00399687
C       -0.03413879       1.36807646       3.44474012       0.00000000       0.00855289      -0.01070192       0.00421896
C       -1.25993822       3.52196513       3.51099711       0.00000000       0.00139849       0.00577833       0.00320068
C       -2.50069972       5.64898877       3.69078036       0.00000000      -0.00102289       0.00872255      -0.00497614
C       -3.72678634       7.78096990       3.70682128       0.00000000       0.00079457      -0.00007733       0.00201805
C       -4.97519802       9.90488134       3.64758425       0.00000000      -0.00278402      -0.00426577      -0.00434356
C        2.42485898       1.29534339       3.64761524       0.00000000      -0.00395579      -0.00437521       0.00881955
P        1.46872048       3.66729790       2.78049534       0.00000000       0.00555955      -0.00309989       0.00066971
C       -0.04862056       5.66787679       3.78665915       0.00000000       0.00065417       0.00854389      -0.00113655
C       -1.26467891       7.78947138       3.84321085       0.00000000      -0.00309304      -0.01315779      -0.00095271
C       -2.49179664       9.89962863       3.78777253       0.00000000      -0.00258524      -0.00501138       0.00640677
C        4.89104245       1.36772189       3.87786370       0.00000000       0.00066145       0.00695921       0.00514373
P        3.31827889       3.67882314       4.14326438       0.00000000       0.01127434      -0.00269707      -0.00301499
C        1.20440651       7.77807545       4.04759901       0.00000000      -0.00050531      -0.00038191      -0.00416800
C       -0.02837554       9.92258072       3.87803039       0.00000000      -0.00075949       0.00108310       0.00428094
C        7.35626200       1.39005236       3.76642900       0.00000000      -0.00652037       0.00475645       0.00773075
C        6.11106136       3.54206207       3.71673098       0.00000000      -0.00550879      -0.00360963       0.00525261
C        4.97717045       5.71363296       3.72199192       0.00000000       0.00109751      -0.00342337      -0.01043726
C        3.71054228       7.84791562       4.01405241       0.00000000      -0.00311881       0.00654600       0.00323207
C        2.44134752       9.93024957       3.85598614       0.00000000       0.00954537       0.00040234       0.00017229
C        9.83439873       1.38727666       3.61642978       0.00000000      -0.00561963      -0.00528636       0.00400263
C        8.59819352       3.51867840       3.63771237       0.00000000      -0.00132881       0.00163806      -0.00138529
C        7.38338754       5.65436567       3.63872289       0.00000000       0.00473692      -0.00662994      -0.00503891
C        6.14747120       7.80959639       3.70542369       0.00000000       0.00297023       0.00955074       0.00374930
C        4.90003176       9.93970237       3.71605557       0.00000000      -0.00070183      -0.00428245      -0.00437597
V        2.56500835       6.01469644       5.45824319       0.00000000       0.00694004       0.00847924      -0.01262194
O        2.95878531       4.16363449       5.60967862       1.00000000       0.00718898       0.00702782       0.00221339
O        2.69154529       6.86911984       6.83986641       1.00000000      -0.00793925       0.00987301       0.00226100
