52
Lattice="12.336457 0.0 0.0 -6.168228499999997 10.683685154694365 0.0 0.0 0.0 15.0" Properties=species:S:1:pos:R:3:forces:R:3 energy=-454.4593437104351 free_energy=-454.4593437104351 stress="-0.0017551133954804058 -8.084606192906043e-06 8.927728774202992e-06 -8.084606192906043e-06 0.0017756084241244733 -3.0789710260605395e-05 8.927728774202992e-06 -3.0789710260605395e-05 2.9707632758259782e-05" pbc="T T T"
C       -0.00215436       0.00758725       3.68404919      -0.00088632       0.00143640      -0.00108436
C       -1.24226805       2.13776238       3.60351645      -0.00065669      -0.00498382      -0.00187850
C       -2.49369956       4.27413349       3.72615865       0.00361347       0.00246511       0.00438362
C       -3.72346065       6.41365367       3.78052260      -0.00417316       0.00208584       0.00164316
C       -4.94539618       8.55117398       3.75607482       0.00017188       0.00673240       0.00488455
C        2.46462718       0.00196773       3.83377973       0.00100039      -0.00076471       0.00819717
C        1.25702771       2.10651522       3.51639653       0.00056641       0.00033848      -0.00036880
C       -0.04888475       4.32061613       3.66109980       0.00260222      -0.00199708      -0.00704530
C       -1.28711315       6.42750225       3.91294575      -0.00079906      -0.00145904       0.00293646
C       -2.48044434       8.55734863       3.90334071       0.00111945      -0.00272998       0.00466427
C        4.93377738       0.00414408       3.94301789      -0.00161509       0.00007022       0.00088174
C        3.69576483       2.17331278       3.90519078      -0.00059895      -0.00064165      -0.00033504
C        1.16596007       6.38689432       4.15438364      -0.00325291       0.00102530       0.00227711
C        0.00222424       8.53370916       4.00695994      -0.00041593      -0.00195631      -0.00326177
C        7.40665180      -0.01771099       3.89808855      -0.00212787      -0.00130158       0.00297807
C        6.16443510       2.14176147       3.85400501       0.00157693      -0.00444208       0.00089345
C        4.89617343       4.30652036       3.80955115       0.00179819      -0.00379606       0.00456038
O        3.76813309       6.44715581       3.68933316       0.00485170      -0.00339368      -0.00024420
C        2.49241948       8.49943654       3.93818830       0.00055756       0.00015824      -0.00564626
C        9.86262470      -0.01437869       3.75743500      -0.00495901       0.00256892       0.00113102
C        8.62727864       2.12898560       3.74908961      -0.00181527       0.00581306       0.00017665
C        7.37832332       4.27384579       3.74073755      -0.00249819      -0.00580690       0.00682190
C        6.15999516       6.42091717       3.68482481       0.00610360      -0.00168712      -0.00044257
C        4.93474449       8.54338628       3.73252941       0.00171007       0.00180896      -0.00000672
C        0.00193427       1.43381249       3.58341045       0.00052459      -0.00167639       0.00456491
C       -1.25276815       3.56764887       3.64033644       0.00387477      -0.00382635      -0.00487728
C       -2.49906432       5.70099983       3.80503411      -0.00297825       0.00299063       0.00409690
C       -3.71043460       7.84083746       3.81447406      -0.00188960       0.00344533       0.00521394
C       -4.93849440       9.97952730       3.75758797      -0.00005103       0.00491866       0.00285143
C        2.46913979       1.42428145       3.78065210      -0.00000110      -0.00190834      -0.00246282
P        1.48505760       3.77107899       2.96619486       0.00028313      -0.00275992      -0.00437359
C       -0.04960120       5.71973408       3.93922803       0.00006622      -0.00061332      -0.00403213
C       -1.25233343       7.84374513       3.96191568       0.00137346      -0.00323245      -0.00384138
C       -2.47215366       9.97812557       3.91362504       0.00095992      -0.00290381      -0.00010657
C        4.93126697       1.43405040       3.91938507       0.00014423      -0.00004313       0.00346463
C        3.67616323       3.59804653       3.94909960       0.00231660      -0.00332852       0.00275969
C        1.24029805       7.77486010       4.06205552      -0.00003154      -0.00038211      -0.00359585
C        0.00090952       9.95958644       3.96122903      -0.00282852      -0.00169299      -0.00764596
C        7.39982917       1.41368737       3.83364801       0.00227837      -0.00047317       0.00573893
C        6.14935939       3.57113217       3.78060883      -0.00103865      -0.00694186       0.00189229
C        4.95354378       5.72707368       3.71224213       0.00420981      -0.00228987      -0.00468068
C        3.73102197       7.83713112       3.80442482       0.00187109      -0.00016667      -0.00532742
C        2.47406540       9.93459853       3.86816077      -0.00296685       0.00014974      -0.00247737
C        9.86598826       1.42025262       3.69868352      -0.00531394       0.00195469      -0.00004481
C        8.61910095       3.55788137       3.73140659       0.00086303       0.00495561       0.00402295
C        7.38643394       5.69648737       3.72721201       0.00152641      -0.00656966      -0.00277495
C        6.16787827       7.84276857       3.70397108       0.00375315       0.00166408       0.00273947
C        4.93023885       9.97337334       3.72437865      -0.00279652       0.00368816      -0.00212726
V        2.46059671       4.97709265       5.11580170      -0.00348887       0.00362300       0.01444517
O        3.36272092       5.80439786       6.18632065       0.01493328       0.01542741       0.00170097
O        1.45278967       3.78589983       6.09869380      -0.01259938       0.00290981      -0.01796557
H        1.55190771       3.60339146       7.05148443      -0.00486724       0.00353852      -0.01327368
