51
Lattice="12.336457 0.0 0.0 -6.168228499999997 10.683685154694365 0.0 0.0 0.0 15.0" Properties=species:S:1:pos:R:3:initial_magmoms:R:1:forces:R:3 energy=-448.29681313489823 free_energy=-448.29681313489823 stress="-0.005916673081816283 0.0007293282700776764 -1.513251833976957e-05 0.0007293282700776764 -0.0028616435532629794 1.8197244932640466e-06 -1.513251833976957e-05 1.8197244932640466e-06 8.520951835752916e-07" pbc="T T T"
C       -0.02882239      -0.02606810       3.66782322       0.00000000      -0.00065664      -0.00344985      -0.00535556
C       -1.26577742       2.10504449       3.54140565       0.00000000      -0.00423527       0.00222928       0.00036838
C       -2.51306541       4.24182158       3.67108938       0.00000000       0.00068851      -0.00075711      -0.00582522
C       -3.74845444       6.38164163       3.78097004       0.00000000       0.00086890      -0.00395339       0.00567460
C       -4.97398908       8.51843203       3.79557414       0.00000000      -0.00428932       0.00078518       0.00009136
C        2.43736276      -0.03299676       3.74561542       0.00000000       0.00221204       0.00185204       0.00062581
C        1.22478876       2.05789528       3.39474541       0.00000000      -0.00405032      -0.00092153       0.00766768
C       -0.06954207       4.28204394       3.52832057       0.00000000      -0.00096781      -0.00175726       0.00065943
C       -1.31796487       6.40162043       3.76703269       0.00000000       0.00089018       0.00112845       0.00262448
C       -2.51119730       8.52835229       3.82021434       0.00000000      -0.00515913      -0.00341643      -0.00175316
C        4.90684782      -0.02576936       3.79207106       0.00000000      -0.00502754      -0.00219955       0.00184700
C        3.67674188       2.12795644       3.70683052       0.00000000       0.00577050      -0.00369178       0.00085481
C        1.11586545       6.40137487       3.77712624       0.00000000       0.00267723      -0.00093264      -0.00249397
C       -0.03851476       8.52126815       3.81647294       0.00000000       0.00225003       0.00157425      -0.00213390
C        7.38114587      -0.04271127       3.76603131       0.00000000      -0.00190326       0.00221326       0.00172843
C        6.14654836       2.10327062       3.73618221       0.00000000       0.00335890       0.00036328      -0.00432343
C        4.89104153       4.25715264       3.76158455       0.00000000      -0.00412834       0.00349138      -0.00416526
O        3.76373499       6.42256684       3.74522443       0.00000000       0.00343097       0.00379931      -0.00176441
C        2.46215740       8.48509280       3.82574015       0.00000000       0.00641895       0.00106740      -0.00022111
C        9.83997693      -0.03998729       3.70781675       0.00000000       0.00043113       0.00522098       0.00238121
C        8.60812564       2.09938593       3.67872444       0.00000000       0.00100062       0.00529825       0.00162085
C        7.36422743       4.23976950       3.73131739       0.00000000      -0.00329724      -0.00141324      -0.00346976
C        6.13895221       6.38412507       3.81123912       0.00000000      -0.00204651      -0.00258537       0.00472106
C        4.90992296       8.51840375       3.79920923       0.00000000      -0.00128524      -0.00279187      -0.00568410
C       -0.02745530       1.39439595       3.51852872       0.00000000      -0.00480992      -0.00188308       0.01021832
C       -1.27617908       3.53215207       3.56195622       0.00000000      -0.00102620      -0.00034390      -0.00352526
C       -2.52540994       5.67014670       3.74029841       0.00000000       0.00301450      -0.00148570       0.00588599
C       -3.73992093       7.80842180       3.80951329       0.00000000      -0.00579732      -0.00313255      -0.00987161
C       -4.96736194       9.94482743       3.74137853       0.00000000       0.00247653       0.00144164       0.00268969
C        2.44452567       1.38008739       3.63110789       0.00000000       0.00190389       0.00116852      -0.00188794
P        1.41629374       3.69406215       2.78852243       0.00000000      -0.00187734       0.00219938       0.00018481
C       -0.08344945       5.69893930       3.71520170       0.00000000       0.00068198       0.00036064      -0.00771486
C       -1.28567511       7.81836159       3.81330591       0.00000000      -0.00091979       0.00169003      -0.00270208
C       -2.49912402       9.94661265       3.80495494       0.00000000      -0.00360811      -0.00343023      -0.00355159
C        4.91317839       1.39559312       3.75541060       0.00000000       0.00463020      -0.00311311       0.00180278
C        3.68198170       3.53077308       3.73015790       0.00000000       0.00804083      -0.00706646       0.00595683
C        1.19807170       7.77755994       3.82385317       0.00000000       0.00714997       0.00117301       0.00263803
C       -0.02899800       9.93882154       3.80110731       0.00000000      -0.00422887       0.00147923      -0.00532755
C        7.38074544       1.38248447       3.72719037       0.00000000       0.00369072       0.00240795       0.00559312
C        6.14421656       3.52892762       3.72597691       0.00000000      -0.00360691       0.00074117      -0.00316458
C        4.95544770       5.67046344       3.82651303       0.00000000      -0.00510726       0.00426317      -0.00200234
C        3.70166106       7.83462727       3.82926170       0.00000000       0.00304588      -0.00393979       0.00059223
C        2.44897664       9.91865181       3.77027416       0.00000000       0.00111336       0.00333801      -0.00249647
C        9.84367867       1.39157321       3.63725489       0.00000000      -0.00133818       0.00626536       0.00683917
C        8.60320119       3.52636917       3.68920334       0.00000000      -0.00057887       0.00221165       0.00553982
C        7.36697533       5.66090581       3.77477138       0.00000000      -0.00102666      -0.00265725       0.01034784
C        6.14157393       7.80989312       3.80813761       0.00000000      -0.00342649      -0.00254207      -0.00051072
C        4.90538522       9.94649806       3.72961712       0.00000000      -0.00163540      -0.00146643      -0.00228698
V        2.56418656       5.15728594       4.71063601       0.00000000       0.00043531       0.00196735      -0.01427832
O        2.63974490       5.72640218       6.36673176       1.00000000       0.00793255      -0.00221573       0.00153357
O        2.17392903       4.22482677       6.13659096       1.00000000       0.00192027       0.00141618       0.00582290
