52
Lattice="12.336457 0.0 0.0 -6.168228499999997 10.683685154694365 0.0 0.0 0.0 15.0" Properties=species:S:1:pos:R:3:forces:R:3 energy=-459.57670113062386 free_energy=-459.57670113062386 stress="-0.004602348122892664 -1.638467144391102e-05 1.665715995709034e-05 -1.638467144391102e-05 0.0034818932033498194 4.317708997591026e-05 1.665715995709034e-05 4.317708997591026e-05 9.544287469796982e-06" pbc="T T T"
C        0.00061500       0.00903112       3.73955205       0.00866488      -0.00831146      -0.01137429
C       -1.24394617       2.12567714       3.71339454       0.00032400      -0.00819479       0.00347470
C       -2.47353944       4.26775308       3.63421308       0.00333727      -0.00245383      -0.00133566
C       -3.69791425       6.41677011       3.60629204      -0.00555952       0.01718684      -0.00584397
C       -4.92715669       8.56554425       3.66555498      -0.00109652      -0.00158799       0.00719041
C        2.47014218       0.03468514       3.75329833      -0.00178454      -0.00010185       0.01577076
C        1.23140844       2.18098096       3.87487369      -0.00583593       0.00986814       0.00105406
C       -0.02079251       4.27959540       3.84339339       0.00614486       0.01166697      -0.00030771
C       -1.25188697       6.42344336       3.68445384      -0.00000077      -0.00807031       0.00212714
C       -2.46922628       8.56526692       3.66503826       0.00176628      -0.00260520       0.00667308
C        4.93921556       0.00827255       3.73779657      -0.00672189       0.00301414      -0.00607909
C        3.70873462       2.18152078       3.87376474       0.00596207       0.00000309       0.00356668
N        1.14131784       6.40187070       3.97617735       0.01463443      -0.00766204      -0.00253653
C       -0.00023318       8.52730521       3.74928414      -0.00582636       0.00621686      -0.00762713
C        7.41107278      -0.03375425       3.71923779       0.00437483       0.00915815       0.00391609
C        6.18375106       2.12527461       3.71156707       0.00001334      -0.00022684       0.00645985
C        4.96112501       4.27980945       3.84063254      -0.00972765       0.01595635      -0.00500764
N        3.79940277       6.40206271       3.97700555      -0.01226610      -0.00996956      -0.00300699
C        2.47022829       8.47235014       3.83014489      -0.00077004      -0.00927589       0.01473489
C        9.86521170      -0.03369559       3.71910724      -0.00155204       0.01048128       0.00597787
C        8.63818197       2.11666879       3.65170506      -0.00191297       0.00053835       0.00201158
C        7.41333638       4.26823154       3.63362738      -0.00186426      -0.01167101      -0.00420162
C        6.19181136       6.42360518       3.68277250       0.00560325      -0.00509327       0.00236475
C        4.94045868       8.52770605       3.74954358       0.00403057       0.00335814      -0.00611839
C       -0.00397820       1.43231295       3.77261005       0.00032701      -0.01189523      -0.00305723
C       -1.25444240       3.55332694       3.70771320       0.01119401      -0.00088973      -0.00240988
C       -2.47371195       5.69849293       3.62413380      -0.00970625       0.00549766       0.00281558
C       -3.69814343       7.84695052       3.63348230      -0.00109232       0.01160674       0.00227046
C       -4.92864876       9.99396213       3.71844048       0.00709814      -0.01100671       0.00251570
C        2.47042589       1.45929705       3.84938615      -0.00407554       0.00771603       0.00251966
C        1.18031984       3.58672673       3.98218229       0.00462701       0.01065333       0.00028753
C       -0.03772455       5.72130545       3.82929310       0.00987805       0.00275271      -0.01013666
C       -1.24333937       7.84336326       3.68893660      -0.00008377      -0.00645765       0.00355400
C       -2.46790613       9.99342111       3.71734107      -0.00358088      -0.00309434       0.00371738
C        4.94360365       1.43175908       3.77106853       0.00321951       0.00055610      -0.00569503
C        3.75928408       3.58775997       3.98189554       0.00019825      -0.00080276       0.00330841
C        1.21361969       7.77723558       3.85210873      -0.00469034      -0.00542647       0.00320598
C        0.00462543       9.95603764       3.73226140      -0.00380902       0.01362791      -0.01225660
C        7.41177446       1.39752146       3.68172264       0.00250686       0.00372143       0.00320332
C        6.19426245       3.55331421       3.70529101      -0.01271030       0.00173232      -0.00170163
C        4.97811765       5.72090984       3.82630256      -0.00431791       0.00846350      -0.01198804
C        3.72687911       7.77773008       3.85255491       0.00208806      -0.01012165      -0.00179239
C        2.46989060       9.91211790       3.74582054       0.00373801      -0.00065973       0.01786752
C        9.86461993       1.39753668       3.68189144      -0.00596494       0.00847914       0.00653494
C        8.63800702       3.54871681       3.62206104       0.00312330      -0.00761751      -0.00593685
C        7.41398817       5.69909560       3.62380251       0.00408125      -0.00598579      -0.00012574
C        6.18346450       7.84352075       3.68915364       0.00197129      -0.00285920       0.00071851
C        4.93544983       9.95648283       3.73271749       0.00033716       0.01099728      -0.01005445
V        2.47152171       5.06075189       4.61343557       0.00216923      -0.01616045      -0.00499603
O        2.47217010       4.88096892       6.28673347       0.00657875       0.00760928      -0.00274790
O        2.29688596       5.00044452       7.72024640      -0.00691379      -0.01790192      -0.00199343
H        3.23455607       5.02447730       8.00073699      -0.00612801      -0.00475857       0.00049006
