51
Lattice="12.336457 0.0 0.0 -6.168228499999997 10.683685154694365 0.0 0.0 0.0 15.0" Properties=species:S:1:pos:R:3:initial_magmoms:R:1:forces:R:3 energy=-454.8315693848348 free_energy=-454.8315693848348 stress="-0.006060737239467697 -9.582209504807758e-06 -5.841160605981075e-06 -9.582209504807758e-06 0.003941888050640412 9.00634748056459e-06 -5.841160605981075e-06 9.00634748056459e-06 -7.431342755487648e-07" pbc="T T T"
C        0.00926493       0.00609523       3.67590909       0.00000000       0.00085819      -0.00179952       0.00118253
C       -1.24267588       2.11700188       3.64676375       0.00000000      -0.00435604      -0.00166060       0.00645439
C       -2.48034741       4.26245476       3.57814134       0.00000000       0.00324746       0.00064621      -0.01235453
C       -3.69844603       6.41673371       3.55351171       0.00000000       0.00015321       0.00449554      -0.00294316
C       -4.92052136       8.56747828       3.61371033       0.00000000       0.00553523       0.00838239       0.00186469
C        2.48201115       0.04815956       3.69573111       0.00000000       0.00223612      -0.00135859       0.00027445
C        1.23910495       2.18256634       3.81961372       0.00000000       0.00104633       0.00143338      -0.00797312
C       -0.04592133       4.26219035       3.80088139       0.00000000       0.00483499       0.00026957       0.00311592
C       -1.26764398       6.41964789       3.64649811       0.00000000       0.00106403       0.00104996       0.00390643
C       -2.46748076       8.56852463       3.61296684       0.00000000      -0.00339305      -0.00203258       0.01082907
C        4.94417269       0.00942661       3.67388480       0.00000000      -0.00251000       0.00177083      -0.00222152
C        3.73954332       2.19632484       3.81121048       0.00000000      -0.01017696       0.00181880       0.00583257
C        1.16059578       6.38620805       3.93157391       0.00000000      -0.00113269       0.00173842       0.00459754
C        0.00381391       8.53153775       3.70245302       0.00000000      -0.00340990       0.00017258       0.00171481
C        7.41843634      -0.03822389       3.65814995       0.00000000       0.00526998      -0.00470991       0.01413607
C        6.18934649       2.11973553       3.64168675       0.00000000       0.00662937      -0.00412763      -0.01574324
C        4.98199123       4.25883948       3.76693853       0.00000000      -0.00621486      -0.00284141      -0.00395043
N        3.80599994       6.38822948       3.92682982       0.00000000       0.00023896       0.00207407       0.00841598
C        2.49116271       8.47985657       3.78491799       0.00000000      -0.00757446      -0.00323998       0.00754638
C        9.87442249      -0.03765820       3.65834817       0.00000000      -0.00014327       0.00230156       0.00137793
C        8.64323991       2.11100329       3.58300153       0.00000000      -0.00310036       0.00223786      -0.00278034
C        7.41514546       4.26530513       3.56172774       0.00000000       0.00734432       0.00034543      -0.00341966
C        6.19354262       6.41524908       3.62883199       0.00000000       0.00377277       0.00072409      -0.01833594
C        4.95175046       8.52228296       3.69758211       0.00000000      -0.00012877      -0.00646158       0.01143040
C        0.00364877       1.42849185       3.70892740       0.00000000      -0.00088670      -0.00189007      -0.00459791
C       -1.26768946       3.54025704       3.64854623       0.00000000       0.00183899      -0.00098684       0.00541081
C       -2.48020019       5.69711760       3.57749575       0.00000000       0.00030536       0.00318105      -0.01054981
C       -3.69325075       7.84873584       3.58298329       0.00000000      -0.00117188       0.00281032      -0.00567081
C       -4.91787473       9.99842651       3.66068674       0.00000000       0.00507781       0.00380926       0.01163826
C        2.49095233       1.48079344       3.79017786       0.00000000      -0.00350790      -0.00302455       0.01291970
C        1.15948533       3.57367159       3.94187045       0.00000000       0.00355083      -0.00011997      -0.00238903
C       -0.04577494       5.69777923       3.79870488       0.00000000       0.00458579       0.00034762      -0.00642063
C       -1.24271677       7.84301404       3.64309256       0.00000000      -0.00243360       0.00083526       0.00458009
C       -2.46212197       9.99792677       3.65858974       0.00000000      -0.00169074      -0.00324440       0.00633494
C        4.95176562       1.43794680       3.70109637       0.00000000      -0.00175086       0.00483440       0.00649581
N        3.80746361       3.57175345       3.93453765       0.00000000      -0.01641151       0.00332181      -0.00411152
C        1.23962008       7.77740028       3.81076925       0.00000000      -0.00531269      -0.00164735      -0.00181725
C        0.00920550       9.95404537       3.67363555       0.00000000      -0.00002614       0.00008477      -0.00519739
C        7.41582197       1.39258674       3.61384927       0.00000000       0.00601122      -0.00685558       0.00428112
C        6.19348284       3.54483756       3.62837612       0.00000000       0.00399952      -0.00148862      -0.00670722
C        4.98171205       5.70139203       3.76602316       0.00000000      -0.00132340       0.00093676      -0.00882596
C        3.73939182       7.76408270       3.80754455       0.00000000      -0.00904086      -0.00277639      -0.00928633
C        2.48198800       9.91234216       3.69172135       0.00000000       0.00339775      -0.00229224       0.00849158
C        9.86916210       1.39151607       3.61443741       0.00000000      -0.00721892       0.00470538       0.00842292
C        8.63782774       3.54287679       3.55371230       0.00000000       0.00418280       0.00046499      -0.00435014
C        7.41524532       5.69453556       3.56240298       0.00000000       0.00411567       0.00105781      -0.00704180
C        6.18934025       7.84044104       3.63819979       0.00000000       0.00722837       0.00286106       0.00116753
C        4.94422181       9.95081655       3.67332831       0.00000000      -0.00119626      -0.00439396      -0.00302944
V        2.48013317       4.98130092       4.53288642       0.00000000       0.00297987       0.00462610      -0.00417581
O        2.16746925       5.02011946       7.50662923       1.00000000       0.00578928      -0.00354414      -0.00283341
O        2.32688622       4.99870085       6.20313422       1.00000000      -0.00118240      -0.00284140       0.00430447
