52
Lattice="12.336457 0.0 0.0 -6.168228499999997 10.683685154694365 0.0 0.0 0.0 15.0" Properties=species:S:1:pos:R:3:forces:R:3 energy=-454.4005906460708 free_energy=-454.4005906460708 stress="-0.0028442137611486796 -0.002432342555695368 -1.9984635935856347e-05 -0.002432342555695368 0.0005499563713904114 2.8381940777833865e-05 -1.9984635935856347e-05 2.8381940777833865e-05 2.3870982948565343e-05" pbc="T T T"
C        0.01420493      -0.03048455       3.94761564      -0.00481020       0.00781768      -0.00297274
C       -1.23548722       2.08832844       3.89881058      -0.00888899       0.00299787      -0.00451904
C       -2.45986400       4.22239471       3.79438521       0.00163362      -0.00349807       0.00498793
C       -3.67968234       6.37124863       3.79392760       0.00961177      -0.00051720       0.00996527
C       -4.91294335       8.51567179       3.90010276      -0.00792930      -0.00133871       0.00352989
C        2.48280217      -0.04146729       3.82725716      -0.00180582       0.00326002       0.00539070
C        1.24471619       2.12178347       3.90422256       0.00176730       0.00247945      -0.00339859
C        0.01398345       4.21973870       3.92044406       0.00063605       0.00185944      -0.00254721
C       -1.23953691       6.37085082       3.78282741       0.00114140       0.00212308       0.00631169
C       -2.45026073       8.50906992       3.78244804      -0.00420462       0.00243768      -0.00240553
C        4.94933594      -0.04458673       3.66812561       0.00338541      -0.00240345      -0.00927010
C        3.67796537       2.05414217       3.45318453       0.00596409       0.00724429       0.00327536
C        1.19391720       6.34905889       3.94710807      -0.00580839       0.00388081      -0.00084079
C        0.02484540       8.48742946       3.76668590       0.00287074      -0.00447570       0.00171951
C        7.41791427      -0.05727344       3.73921758       0.00669059      -0.00895567      -0.00743770
C        6.17153692       2.10383784       3.56589658       0.00154124      -0.00273584       0.00731930
C        4.96428554       4.31933348       3.54682567      -0.00139755       0.01153247       0.00931579
O        3.80617587       6.39986608       3.91923423      -0.00641015      -0.00701006       0.00436891
C        2.50920193       8.45846041       3.89145171       0.00563029       0.00230412      -0.00431792
C        9.87466030      -0.05733162       3.88385183      -0.00007979       0.00449735       0.00505903
C        8.63831153       2.08643884       3.75246214      -0.00742156      -0.00384801       0.01034229
C        7.41232268       4.23674483       3.69682082       0.00340213      -0.00291433       0.01235820
C        6.21535705       6.39958904       3.83206314       0.00429500      -0.00396972      -0.00370227
C        4.96041471       8.50748970       3.95581344      -0.00440769      -0.00030026      -0.00321676
C        0.00851050       1.39326408       3.94038257      -0.00473857       0.00851885       0.00036979
C       -1.23535973       3.50706458       3.86266459      -0.00002383       0.00053627      -0.00441607
C       -2.45640143       5.65261940       3.77887547       0.00702398      -0.00301210       0.01052329
C       -3.67782044       7.79784119       3.83003299      -0.00488360       0.00226824      -0.00904541
C       -4.91578649       9.94057863       3.91648661      -0.00736070       0.00300359      -0.00525270
C        2.47291482       1.37802584       3.75074987       0.00696018       0.00516628       0.00901097
C        1.23592745       3.53604547       3.96617099      -0.00096187       0.00280242      -0.00422142
C       -0.00196721       5.65735429       3.87939284      -0.00424357       0.00173484       0.00547904
C       -1.21948105       7.79070974       3.76168253      -0.00239380       0.00108178       0.00201995
C       -2.44986713       9.93101519       3.75765281      -0.00064362       0.00262622       0.00384262
C        4.93534072       1.38502717       3.54146233       0.00380283       0.00010281      -0.00280958
P        3.41822292       3.71664021       2.90079264      -0.00637615      -0.00618868      -0.00106461
C        1.25972101       7.72989371       3.85977360       0.00582306      -0.00065183       0.00253618
C        0.01669565       9.91561556       3.71776592       0.00554245      -0.00605485      -0.00618776
C        7.40252509       1.37730415       3.67970765      -0.00142187      -0.00896923       0.00543861
C        6.17385492       3.53953832       3.57875684      -0.00368163       0.00475196       0.00810120
C        5.01985156       5.70295873       3.75582743      -0.00464669       0.00878669      -0.00514926
C        3.75251383       7.81279294       3.94692326       0.00030357      -0.00011129      -0.00996726
C        2.48428410       9.89624075       3.83784206       0.00702088       0.00084426      -0.00108193
C        9.86776048       1.37278521       3.84976874      -0.00722446       0.00101638      -0.01070273
C        8.64192331       3.51481436       3.74389069       0.00124888      -0.00499833      -0.00153167
C        7.43238303       5.65897575       3.77773672       0.01109075      -0.00101995      -0.00837873
C        6.20452178       7.81299964       3.92051242      -0.00469130      -0.00600954       0.00191241
C        4.94675256       9.93347476       3.94632568      -0.00201406       0.00418774      -0.00493291
V        2.58547701       5.02398642       4.94706248      -0.01238102       0.00575854      -0.00293200
O        3.25243490       3.84180928       5.87643844       0.00472468      -0.01836678      -0.00195989
O        2.48763631       6.37758393       6.30213406       0.01676216       0.00305885      -0.00204273
H        2.46729806       6.04320115       7.21704889       0.00197772      -0.01133036      -0.00687263
