52
Lattice="12.336457 0.0 0.0 -6.168228499999997 10.683685154694365 0.0 0.0 0.0 15.0" Properties=species:S:1:pos:R:3:initial_magmoms:R:1:forces:R:3 energy=-457.6415008970199 free_energy=-457.6415008970199 stress="9.39820427440385e-05 0.002139693819719942 1.696636925525557e-05 0.002139693819719942 -0.00401605178894048 -5.946488716014192e-06 1.696636925525557e-05 -5.946488716014192e-06 -6.138726064098315e-06" pbc="T T T"
C       -0.04365549      -0.01856087       3.86805032       0.00000000      -0.00004373       0.00369701       0.00166640
C       -1.25964502       2.13404757       3.91001763       0.00000000      -0.00198816       0.01085109      -0.00043186
C       -2.48844893       4.26159271       3.82938850       0.00000000       0.00575080       0.00776016       0.00362480
C       -3.73706340       6.38951878       3.76754924       0.00000000      -0.00227233      -0.00041252       0.00078706
C       -4.99281639       8.51673984       3.78133506       0.00000000       0.00143237      -0.00468355      -0.00202791
C        2.41964307      -0.03246165       3.83480091       0.00000000       0.00173338      -0.00113726       0.00771942
C        1.20548518       2.11700075       3.93681819       0.00000000       0.00639696       0.00479244       0.01104057
C        0.00306113       4.27565079       3.75684485       0.00000000       0.00299434       0.00267210      -0.01017003
C       -1.26989674       6.38677217       3.51322210       0.00000000       0.00223582      -0.00506262       0.00479130
C       -2.51176281       8.52196403       3.65222046       0.00000000       0.00052995      -0.00147386      -0.00115809
C        4.88689122      -0.01955689       3.73477610       0.00000000      -0.00141233       0.00317512       0.00563532
C        3.65308207       2.09238494       3.91323681       0.00000000       0.00237220      -0.00018411       0.00991506
N        2.45678511       4.16205555       4.18942184       0.00000000      -0.01089290      -0.00237115       0.00248750
P        1.11749074       6.39655221       2.22322575       0.00000000       0.00888950      -0.00517646      -0.00388474
C       -0.05975412       8.56376372       3.36798545       0.00000000      -0.00169449       0.00296031      -0.00162614
C        7.35142735       0.00923301       3.69038890       0.00000000      -0.00175841       0.00178084      -0.00711759
C        6.12732074       2.11393470       3.86501106       0.00000000      -0.00213768      -0.00809166       0.01030716
C        4.88655870       4.21950719       3.89805911       0.00000000      -0.00182948      -0.00549518      -0.00156770
S        3.63130655       6.33717483       2.71760930       0.00000000      -0.00445840       0.00544583       0.00627165
C        2.39839372       8.59661431       3.39651304       0.00000000      -0.00124458      -0.00034139       0.00424562
C        9.82655207       0.00235001       3.79219036       0.00000000      -0.00135013      -0.00295101       0.00305918
C        8.60260410       2.12976928       3.86809073       0.00000000      -0.00192279      -0.00000564      -0.00018562
C        7.36859190       4.25351654       3.86249303       0.00000000       0.00526699      -0.00170050       0.01644735
C        6.12306364       6.38681134       3.76266859       0.00000000      -0.00034474       0.00303084       0.00230499
C        4.88144586       8.53253441       3.73023789       0.00000000      -0.00131475      -0.00690011      -0.00634898
C       -0.03318431       1.41062625       3.91157563       0.00000000       0.00230857       0.01151526      -0.00723777
C       -1.24299597       3.55794389       3.86065814       0.00000000       0.00392764       0.01058017       0.00077156
C       -2.49839667       5.68106098       3.72913760       0.00000000      -0.00221653       0.00202812      -0.00837777
C       -3.74971289       7.81087365       3.73603995       0.00000000       0.00093446      -0.00252328      -0.00735174
C       -4.98702939       9.94260850       3.83135181       0.00000000       0.00039216      -0.00262331      -0.00082892
C        2.42268312       1.38811392       3.91036738       0.00000000       0.00539881       0.00107063      -0.00341013
C        1.24340867       3.54313069       3.96997252       0.00000000      -0.00409073       0.00031753      -0.00160391
C       -0.05500259       5.64518068       3.35698775       0.00000000       0.00791091       0.00282068       0.00091292
C       -1.28150124       7.82040916       3.47223911       0.00000000      -0.00121053      -0.00390493      -0.00282773
C       -2.51477522       9.94551253       3.73622232       0.00000000       0.00093247       0.00024478       0.00198058
C        4.89203945       1.39880705       3.84461910       0.00000000      -0.00102627      -0.00090087      -0.00029317
C        3.64329302       3.50623858       3.99596993       0.00000000      -0.00851993      -0.00154768      -0.00242296
C        1.18305229       7.92432521       3.09481662       0.00000000      -0.00086805      -0.00014761      -0.00375954
C       -0.05071151       9.97490607       3.60462219       0.00000000      -0.00232349       0.00624250      -0.00626686
C        7.36271031       1.41887798       3.82220080       0.00000000      -0.00257964      -0.00210279       0.00161976
C        6.13188581       3.53096516       3.89270272       0.00000000       0.00182127      -0.00829056       0.00156755
C        4.92043333       5.62707211       3.69915747       0.00000000       0.00520710      -0.00347446      -0.00646968
C        3.62042040       7.87851137       3.55900932       0.00000000       0.00004279      -0.00665558       0.00145524
C        2.41918971       9.99841096       3.63668549       0.00000000      -0.00200477      -0.00074891      -0.00208217
C        9.83796388       1.42271533       3.87288858       0.00000000      -0.00268287       0.00115909      -0.00478951
C        8.60808518       3.55062244       3.87191963       0.00000000       0.00873233       0.00166613       0.00296866
C        7.36242097       5.67824721       3.81810345       0.00000000      -0.00073809       0.00086868       0.00506330
C        6.10078331       7.80515416       3.74756368       0.00000000       0.00077318      -0.00083955      -0.00353167
C        4.88774145       9.95698461       3.80850015       0.00000000      -0.00071635      -0.00489241      -0.00110454
V        2.90221894       6.00258730       5.04393212       0.00000000      -0.00824286      -0.00555306      -0.01654298
O        1.47237792       6.59969948       5.63589390       1.00000000      -0.00227876      -0.00002080      -0.01207854
O        3.99663532       5.90743346       6.27292400       1.00000000      -0.00182023       0.00553350       0.01885529
