53
Lattice="12.336457 0.0 0.0 -6.168228499999997 10.683685154694365 0.0 0.0 0.0 15.0" Properties=species:S:1:pos:R:3:forces:R:3 energy=-459.16556357264847 free_energy=-459.16556357264847 stress="-0.0004406025155434006 2.3296289788018934e-05 5.96027037402807e-07 2.3296289788018934e-05 -0.0055512492922575925 2.2482059790154536e-05 5.96027037402807e-07 2.2482059790154536e-05 1.0485278416317728e-05" pbc="T T T"
C        0.02073464      -0.03197291       3.82391903      -0.01292824       0.00974734      -0.00257388
C       -1.20621272       2.11162669       3.93291593       0.00523911       0.00458546      -0.00687060
C       -2.43819520       4.24995521       3.94392810      -0.00090603       0.00359391       0.00238253
C       -3.67701314       6.38166466       3.86952115       0.00346558      -0.00816106      -0.00579766
C       -4.92916597       8.50605383       3.76171539       0.00239330       0.00003217       0.00825646
C        2.48436580      -0.04619623       3.91405039      -0.00470111      -0.00456538       0.00592730
C        1.26089849       2.07776402       3.97566525       0.00430960      -0.00185391      -0.00653816
C        0.04698208       4.22140750       3.88202681      -0.00103046      -0.00119789      -0.00431835
C       -1.20396740       6.38724299       3.75783242       0.00664063       0.00049261      -0.00474332
C       -2.44851083       8.51317424       3.81644091       0.00529890       0.00445452       0.00954857
C        4.95126140      -0.02770064       3.89907085       0.01114833      -0.00065442      -0.01042574
C        3.70899365       2.09585865       4.01755071      -0.00932356       0.00536851      -0.00338172
N        2.46952489       4.15848657       4.14560625      -0.00308861       0.00012555      -0.00181003
P        1.07819133       6.39968776       2.29397533      -0.00656231       0.01218536       0.00222751
C        0.00481994       8.54684268       3.59776487      -0.00386238      -0.01446835      -0.00475210
C        7.41723660       0.00389533       3.77279939      -0.00053640      -0.00436160      -0.00498451
C        6.18244195       2.11476125       4.00021975      -0.00987278       0.00223823      -0.00489283
C        4.92661206       4.24056233       3.91705147       0.00569014      -0.00195906       0.00455077
S        3.68965369       6.29695871       2.61918982      -0.00478114       0.00285674      -0.00015964
C        2.49599723       8.62001499       3.30030232       0.00240701       0.00659570       0.00318141
C        9.89356269       0.00299484       3.72574115       0.00307625      -0.00356644      -0.00144982
C        8.65698316       2.12341154       3.94131585       0.00573182      -0.00209582       0.00576342
C        7.41675183       4.25131969       3.96480971      -0.00349831      -0.00032292      -0.00573449
C        6.18114799       6.37604864       3.69094467      -0.00226490      -0.00223942      -0.00953218
C        4.96392657       8.54368391       3.49105034       0.00480325       0.00083796       0.00355080
C        0.02144956       1.38774020       3.91859283       0.00219957       0.00853704       0.00196652
C       -1.19826732       3.53220163       3.94150870      -0.00249309       0.00361601       0.00151774
C       -2.43134202       5.67662923       3.88699627       0.00862528      -0.00071432      -0.00203031
C       -3.68441315       7.80122951       3.82094310       0.00818496      -0.00432929       0.00464403
C       -4.92026858       9.93154143       3.83009168      -0.01376406       0.00400491       0.00280175
C        2.48569823       1.37195888       3.98472633      -0.00216721      -0.00642342       0.00631243
C        1.27531444       3.49354642       3.99815728      -0.00007121      -0.00246076      -0.00970373
C        0.04535862       5.64862141       3.63682416       0.00750723       0.00163620      -0.00097026
C       -1.20494913       7.80814926       3.71395514      -0.00261023      -0.00476743       0.00098507
C       -2.44767055       9.93345189       3.88247602       0.00742701       0.00676693      -0.00625095
C        4.95093717       1.39467978       3.98461755      -0.00975405       0.00373611       0.00253746
C        3.67959556       3.51599552       4.02606654       0.00022866       0.00589480       0.00737200
C        1.25124160       7.88361529       3.27202337       0.00154911       0.00268607       0.00356652
C        0.01510418       9.95684090       3.76498186       0.00552814      -0.01672229      -0.00159099
C        7.41924796       1.41258649       3.92579927      -0.00421020       0.00060406      -0.00703863
C        6.17735817       3.53707808       3.99860991       0.00061711      -0.00087482       0.00248133
C        4.98852377       5.61743755       3.58218311       0.00176661      -0.00578889       0.00530146
C        3.72243367       7.93292593       3.19873063       0.00268239       0.00788779       0.00083279
C        2.48770563      10.00684332       3.59855577       0.00212127       0.00183286       0.00622712
C        9.89337858       1.41430990       3.88277477       0.01020054      -0.00485790       0.00768287
C        8.66029053       3.54426076       3.97493392      -0.00181115       0.00218467       0.00116152
C        7.42135276       5.67082564       3.87135937      -0.00506950      -0.00236119      -0.00353988
C        6.17489077       7.80216968       3.61765139       0.00335558      -0.00018979       0.00074140
C        4.95714710       9.96154225       3.68293333      -0.00354880      -0.00100903       0.00530864
V        2.06943296       6.13413959       4.49645543      -0.00894899      -0.00096494       0.00879662
O        1.66941122       6.87198194       6.03621530      -0.01008240       0.00275753      -0.01028809
O        1.93190451       5.74766242       7.12467498      -0.00163665      -0.01010800       0.01157264
H        2.59472476       6.24770631       7.63747142       0.00732640       0.00175928      -0.00782080
