52
Lattice="12.336457 0.0 0.0 -6.168228499999997 10.683685154694365 0.0 0.0 0.0 15.0" Properties=species:S:1:pos:R:3:forces:R:3 energy=-453.8642377291205 free_energy=-453.8642377291205 stress="0.0020098088963631483 0.0005102545802176365 -3.505869360448139e-05 0.0005102545802176365 0.008836897830325582 1.564702415807004e-05 -3.505869360448139e-05 1.564702415807004e-05 -5.512526954703115e-05" pbc="T T T"
C        0.00089985      -0.06875529       3.72854803      -0.01345838       0.00309620       0.00335162
C       -1.23851712       2.05663953       3.73918850       0.00710796       0.00461447      -0.00535843
C       -2.46555477       4.19523669       3.73438178       0.01726841      -0.00017469      -0.00359434
C       -3.70446044       6.33462042       3.71501102      -0.00456539       0.00116467      -0.01630975
C       -4.94583281       8.47456795       3.72472931      -0.00719430       0.00405425      -0.00867469
C        2.46173999      -0.01041089       3.70007988      -0.00198253      -0.00196820      -0.00686053
C        1.19836470       2.10405998       3.71529437       0.00295072       0.00393845       0.00085603
C       -0.01379329       4.17895751       3.83715144       0.00102225       0.00212413       0.01391653
C       -1.23456058       6.32659746       3.76996656      -0.00203349      -0.00499508      -0.00080060
C       -2.47783638       8.48292364       3.71184779       0.00222514       0.00275214      -0.00390711
C        4.92447777      -0.06611991       3.70237298       0.00299399       0.00897533       0.00214560
C        3.72851341       2.11126909       3.66440778      -0.00039001      -0.00706254      -0.00602426
N        1.15147470       6.33935591       4.14112687      -0.00158982      -0.00291736       0.00875488
C       -0.00789906       8.44954432       3.78228970      -0.00228615       0.00036339      -0.00963590
C        7.40387183      -0.10595853       3.74067001      -0.00303540      -0.00480659      -0.01677198
C        6.17219822       2.05603313       3.69050335      -0.00435685       0.00159349      -0.00014662
C        4.95547048       4.18199033       3.73018906      -0.00195862       0.00078670      -0.00852011
O        3.74380777       6.31172961       3.84749439      -0.00548131       0.00482486      -0.00194371
C        2.47120592       8.39519210       3.86731011       0.00439152       0.00042269       0.00630847
C        9.86234087      -0.10696016       3.75041465      -0.00317937       0.00127881      -0.00736693
C        8.63571585       2.04598282       3.71247596      -0.00055509      -0.00014929       0.00564859
C        7.40298791       4.19241031       3.70550548       0.00721783      -0.00202692       0.00115892
C        6.15736885       6.31462638       3.75858600      -0.00377002      -0.00265645      -0.00607496
C        4.92182713       8.44298800       3.78698247       0.00022605      -0.00636238      -0.01054949
C        0.00614882       1.37105860       3.72601845       0.00322984       0.00446794       0.01044501
C       -1.22871297       3.48096593       3.76485025       0.01162681       0.00050557      -0.00114738
C       -2.46529458       5.61748518       3.72798059       0.00023573      -0.00130618       0.00017600
C       -3.70759548       7.76436329       3.71186311      -0.00358561       0.00487318       0.00895008
C       -4.93047698       9.92260616       3.71635195      -0.01246544       0.00466089       0.00877821
C        2.46157294       1.44494621       3.68957723       0.00047025      -0.00260307      -0.00696279
O        1.16933488       3.48406146       3.77801638      -0.00807814       0.00444158      -0.00098348
C       -0.00261882       5.61623401       3.91511220      -0.00322362      -0.00195095       0.00495873
C       -1.24802019       7.75564261       3.74799243      -0.00092960      -0.00357093       0.00534200
C       -2.48234956       9.92563719       3.70067972       0.00557521       0.00610116       0.00919031
C        4.92295886       1.37098004       3.68437005      -0.00142355       0.00268412      -0.00380312
O        3.76193081       3.48618340       3.65649183       0.00148618      -0.00824606       0.00180953
C        1.19872088       7.70023102       3.92741672       0.00070351      -0.00257683      -0.01057607
C       -0.00604975       9.88200888       3.73771865      -0.00264392       0.00172347      -0.01470521
C        7.39814480       1.33174223       3.70882640      -0.00738555      -0.00293555      -0.00029766
C        6.17290365       3.47705318       3.69675572       0.00134220       0.00170968      -0.00211366
C        4.97252080       5.58438548       3.82570467      -0.00310186       0.00138203      -0.00299923
C        3.71352627       7.74766574       3.86381812       0.00378780      -0.00339987       0.00380713
C        2.46553909       9.84443288       3.77360952      -0.00070851      -0.00084406       0.00885135
C        9.87205545       1.33420121       3.72844104       0.00327197       0.00361382       0.00818459
C        8.63940350       3.47558436       3.70886809       0.01448124       0.00119191       0.00752684
C        7.40104748       5.61242087       3.72026101      -0.00336430      -0.00125226      -0.00716519
C        6.16705004       7.74912099       3.75744067      -0.00128623      -0.00225492      -0.00237090
C        4.93035610       9.88288766       3.75574074      -0.00916755      -0.00602561       0.00652071
V        2.59750199       5.69963419       5.37215705      -0.00421628       0.00740139       0.01359069
O        2.60615449       4.15994544       5.87860371       0.00407065      -0.00738986       0.00371660
O        2.97034249       6.94412302       6.61708149       0.01474219      -0.00243169       0.00811867
H        2.59188796       6.97689810       7.51507395       0.00698946      -0.00483897       0.01355701
