52
Lattice="12.336457 0.0 0.0 -6.168228499999997 10.683685154694365 0.0 0.0 0.0 15.0" Properties=species:S:1:pos:R:3:forces:R:3 energy=-453.5051729180097 free_energy=-453.5051729180097 stress="-0.0016763900420887754 0.0010228870424524145 -9.486879250664944e-05 0.0010228870424524145 0.004443440162879571 -0.00011028955088333183 -9.486879250664944e-05 -0.00011028955088333183 -9.49636740547263e-05" pbc="T T T"
C        0.02136587       0.01616164       3.70607850       0.04327109       0.04704704       0.02736252
C       -1.20404137       2.15939226       3.69720909      -0.03803258      -0.01052330      -0.03170072
C       -2.45582359       4.29231204       3.85122874       0.02220077      -0.03938702      -0.00267088
C       -3.70242944       6.43574706       3.87802687       0.01524047      -0.04836416      -0.03057003
C       -4.92253662       8.57012747       3.82017163      -0.04823789       0.01395947      -0.00834430
C        2.49314320       0.04770396       3.77234163      -0.02298236      -0.02206375       0.01044536
C        1.27188748       2.11485197       3.43206143      -0.00204420      -0.02566703       0.02034033
C       -0.01546890       4.34392555       3.75056537      -0.06373976       0.09702759       0.01289217
C       -1.27058549       6.46767177       3.79599154      -0.00681075       0.00080496       0.02584293
C       -2.46246591       8.58898825       3.82308324       0.02653073       0.00769056       0.01948619
C        4.95883659       0.03091525       3.80841538      -0.03210545       0.01955684       0.02779812
C        3.74136267       2.22233578       3.83412351      -0.00637846       0.06103871       0.03036052
N        1.15735746       6.40718605       3.71310807       0.09463328      -0.05619404      -0.00748846
C        0.01731588       8.55152433       3.75906478       0.05601646      -0.06571267       0.05177396
C        7.43666514      -0.01273961       3.80620685      -0.00012321      -0.01793994      -0.02494539
C        6.19944775       2.15444961       3.85687472       0.04659730      -0.00350248       0.03219781
C        4.93973711       4.28918474       3.95148645       0.01206559      -0.05563235       0.03483184
O        3.80071933       6.43388273       3.79403454       0.02216583       0.03927942      -0.00448905
C        2.50582225       8.47665139       3.75676894      -0.07392371       0.01214491       0.04402974
C        9.88647919      -0.01011356       3.75288525       0.04202717      -0.04564943       0.03123820
C        8.66480895       2.14021106       3.83170826      -0.02960723       0.07430255      -0.01321554
C        7.41615590       4.28662372       3.89036238      -0.04152761       0.01108300       0.01130244
C        6.18111607       6.42617236       3.88140015      -0.01249630      -0.01617050       0.00652513
C        4.95495311       8.54362692       3.78037071      -0.06388323      -0.01683479       0.00138702
C        0.03028537       1.44669979       3.60431081      -0.02462365       0.06351223      -0.02330734
C       -1.21845781       3.58056655       3.77821543       0.02159818       0.00026627      -0.00841210
C       -2.47290206       5.72589374       3.85203992       0.01692293      -0.07461103       0.00558063
C       -3.69068188       7.86334002       3.84928924      -0.00543586       0.00458685      -0.01021122
C       -4.90942734      10.00354195       3.76158581      -0.04037078       0.02720153       0.00197922
C        2.50071345       1.48304460       3.69509194       0.02993945      -0.02511446      -0.02463479
S        1.31045807       3.74138903       2.78989349       0.02197098      -0.03805622      -0.01412185
C       -0.03289579       5.78261473       3.75312323      -0.03604973       0.08121755      -0.01390872
C       -1.23890920       7.87776085       3.79436773       0.04204049      -0.02069387      -0.02745551
C       -2.44737595      10.01402397       3.81495580      -0.02924381       0.00058148      -0.02333482
C        4.95942009       1.46387709       3.83017506       0.01093766       0.04913240      -0.00235929
N        3.75958743       3.58540749       4.02203058       0.03305159       0.07821599       0.01205535
C        1.23044616       7.77778535       3.73912794       0.05089271      -0.06659345      -0.00683295
C        0.02662155       9.97843407       3.79632844      -0.01806851      -0.01486799      -0.02972594
C        7.43158419       1.42344213       3.83952087       0.02895377       0.01933334      -0.03007384
C        6.18805646       3.57919394       3.89385149       0.00279127      -0.04910269      -0.03000537
C        4.97823590       5.72172031       3.91633628      -0.00424401      -0.00417229       0.01022380
C        3.75659120       7.82635537       3.77519293      -0.07532909      -0.01794832      -0.00626870
C        2.49646838       9.92443406       3.77407539      -0.01497798       0.01163610      -0.00630231
C        9.90176823       1.43354013       3.76511658      -0.02161302      -0.04441062      -0.00530344
C        8.65723219       3.56795357       3.86486751      -0.04580467       0.05801016      -0.00251653
C        7.41174098       5.70874409       3.89596064       0.00825067       0.00842022      -0.01195365
C        6.19132235       7.85024751       3.82591920      -0.04860349       0.00194052       0.01135658
C        4.94935375       9.97779816       3.74645644       0.09098746      -0.02331823      -0.01167391
V        2.16272190       4.73348796       4.92127583      -0.14251519      -0.12979878      -0.23048220
O        2.20418300       5.98061644       5.95511885       0.32862212       0.25368697       0.30968401
O        2.09626838       3.31881446       6.10201662      -0.04957415      -0.13109855      -0.07958352
H        2.00584473       3.51816513       7.05352621      -0.06936130       0.02175129      -0.01680147
