51
Lattice="12.336457 0.0 0.0 -6.168228499999997 10.683685154694365 0.0 0.0 0.0 15.0" Properties=species:S:1:pos:R:3:initial_magmoms:R:1:forces:R:3 energy=-449.4519046313344 free_energy=-449.4519046313344 stress="-0.0014900357188172612 -0.0030786639382225705 -3.1157564660281796e-05 -0.0030786639382225705 0.005797505549549772 -1.8636311711176377e-05 -3.1157564660281796e-05 -1.8636311711176377e-05 -6.280014531266229e-05" pbc="T T T"
C       -0.01237429       0.00169866       3.85661208       0.00000000       0.01010677      -0.02024443       0.00357797
C       -1.27009968       2.11506706       3.87614324       0.00000000       0.03123655       0.01397028      -0.01043806
C       -2.47631836       4.25584698       3.72798941       0.00000000      -0.01610361       0.01693365      -0.01029299
C       -3.68415976       6.41029001       3.62995773       0.00000000      -0.02444394      -0.01424734       0.01263880
C       -4.92986642       8.55809312       3.71807633       0.00000000       0.00337816      -0.02158951       0.01110271
C        2.45716448       0.02018081       3.85643098       0.00000000      -0.00137460       0.00661329      -0.01160779
C        1.18710577       2.17497101       4.03596716       0.00000000      -0.00067018       0.00392861      -0.01615365
C       -0.03154068       4.23409236       4.02910912       0.00000000      -0.02209109       0.00929143      -0.01796040
C       -1.24009877       6.39761384       3.76326022       0.00000000      -0.00911126      -0.00284936      -0.00533214
C       -2.46398253       8.54746294       3.74558285       0.00000000      -0.00833524       0.00211505      -0.00201501
C        4.92713074      -0.00764498       3.69313171       0.00000000       0.00992692       0.01109288      -0.00686773
C        3.64897179       2.09627786       3.48720059       0.00000000      -0.01933068       0.01000049      -0.03005135
N        1.16322718       6.36413572       3.91698961       0.00000000       0.01944168       0.00754236       0.02940582
C        0.00925937       8.50126447       3.73815339       0.00000000      -0.01144845       0.01273591       0.00072294
C        7.39485733      -0.04035295       3.67897312       0.00000000       0.00540570      -0.00906145      -0.01458685
C        6.14498923       2.13597830       3.47961297       0.00000000      -0.01360951       0.00550877      -0.00125585
C        5.01058384       4.36417753       3.21410175       0.00000000       0.02642165       0.00575643      -0.00543533
O        3.81189414       6.41186369       3.63348258       0.00000000      -0.00734853       0.00292446      -0.01506313
C        2.48204791       8.44512685       3.75080610       0.00000000      -0.00897636      -0.00709035       0.00862486
C        9.84540555      -0.04277593       3.76323170       0.00000000      -0.00199359      -0.00421453      -0.00027621
C        8.61153600       2.11518796       3.66342763       0.00000000       0.01008434      -0.00679865       0.00270309
C        7.41084437       4.27352822       3.49852175       0.00000000      -0.01087298      -0.01113170       0.01790109
C        6.21262036       6.44093243       3.47099096       0.00000000       0.00382103       0.00650550       0.03885572
C        4.93770398       8.52989308       3.68500833       0.00000000      -0.00687496       0.00183935       0.02323527
C       -0.02345848       1.43092816       3.94088255       0.00000000       0.00405162      -0.01751889      -0.00101755
C       -1.26134318       3.53550626       3.86770698       0.00000000      -0.01760481       0.01379133      -0.01279895
C       -2.46163990       5.68361300       3.70312060       0.00000000      -0.02519081       0.00645052       0.00143979
C       -3.69201097       7.83834337       3.69544462       0.00000000      -0.00335927      -0.01757946       0.01627006
C       -4.93901300       9.98410847       3.83982791       0.00000000       0.00584256      -0.02099635      -0.00392438
C        2.43899179       1.45602389       3.85155378       0.00000000      -0.01401067       0.01375081      -0.01706642
N        1.11118732       3.53647771       4.26462110       0.00000000       0.00157678      -0.00590295      -0.03556820
C       -0.00788433       5.69271385       3.90237305       0.00000000      -0.01100889      -0.00189039       0.00041716
C       -1.23392855       7.81923245       3.73963111       0.00000000      -0.00592477      -0.00134352       0.00027638
C       -2.47370634       9.97940868       3.77703720       0.00000000       0.00733106       0.01134424      -0.01521253
C        4.90821687       1.42736470       3.54805802       0.00000000      -0.01077219       0.00812732      -0.01638792
S        3.48998925       3.68214020       2.79565264       0.00000000       0.03176301      -0.01402411      -0.00508773
C        1.22164861       7.72793211       3.78800865       0.00000000      -0.00729171       0.02052297       0.02913210
C       -0.00225923       9.93820771       3.70154076       0.00000000       0.00830598       0.00703529      -0.01828893
C        7.37346316       1.40437337       3.60371914       0.00000000      -0.00065739      -0.00495829      -0.00713826
C        6.17056007       3.57117474       3.38069569       0.00000000      -0.00104166       0.00868486      -0.00955272
C        5.02054471       5.75202545       3.37896999       0.00000000       0.01394195       0.00993292       0.02164513
C        3.74143733       7.80980241       3.70247871       0.00000000      -0.00155871      -0.00432235       0.00838477
C        2.45850735       9.89574348       3.72636031       0.00000000      -0.00051819      -0.01085920      -0.00056538
C        9.83882648       1.39573844       3.77343174       0.00000000       0.02023971      -0.00329333      -0.00926243
C        8.62815755       3.54412082       3.62813773       0.00000000      -0.00017930      -0.00287329      -0.00351492
C        7.43051770       5.69748105       3.51610404       0.00000000      -0.02825464      -0.01545562       0.01793955
C        6.19073581       7.85243774       3.61930559       0.00000000      -0.01331345      -0.00405106       0.02405419
C        4.92077390       9.95769275       3.77736161       0.00000000      -0.00355084      -0.00875066       0.00254653
V        2.39630034       4.96193522       5.08681103       0.00000000       0.05861176       0.02178514      -0.01479702
O        1.95265027       5.96268292       6.30294467       1.00000000      -0.11208444       0.02697427       0.15573366
O        3.56419325       4.00716762       5.74970207       1.00000000       0.14741946      -0.03411136      -0.10908780
