51
Lattice="12.336457 0.0 0.0 -6.168228499999997 10.683685154694365 0.0 0.0 0.0 15.0" Properties=species:S:1:pos:R:3:initial_magmoms:R:1:forces:R:3 energy=-446.4181601964436 free_energy=-446.4181601964436 stress="-0.003406808836106532 0.0020014477616896865 1.9194794579851e-05 0.0020014477616896865 0.0020799770912719316 -1.7935863540625678e-05 1.9194794579851e-05 -1.7935863540625678e-05 5.804344345514431e-06" pbc="T T T"
C        0.00461673      -0.00531758       3.68651202       0.00000000       0.00061879      -0.00507942       0.00035909
C       -1.22320999       2.13397534       3.55085449       0.00000000      -0.00499349       0.00062972      -0.00939931
C       -2.47122037       4.27183025       3.70779045       0.00000000       0.00200830      -0.00014841       0.00036562
C       -3.71505250       6.40992608       3.83093030       0.00000000      -0.00134113      -0.00237921      -0.00166945
C       -4.94524164       8.54440831       3.83307402       0.00000000       0.00234538       0.00405778      -0.00274332
C        2.47397662       0.01821848       3.74739742       0.00000000      -0.00300735      -0.00189511      -0.00695929
C        1.25682811       2.08216278       3.32881719       0.00000000       0.00346464       0.00113690      -0.00480075
C       -0.05834558       4.33591832       3.39980660       0.00000000       0.00059020       0.00401416       0.00734188
C       -1.27890088       6.44257960       3.69721020       0.00000000       0.00343521      -0.00601609      -0.00165257
C       -2.47940328       8.56235008       3.80648383       0.00000000       0.00865137      -0.00156715      -0.00108834
C        4.94200897       0.00432297       3.76415893       0.00000000      -0.01241101       0.00676599       0.00779122
C        3.73553855       2.17687552       3.70787205       0.00000000       0.00530809      -0.00294292      -0.00809522
N        1.14205220       6.41676774       3.61698080       0.00000000       0.00705403      -0.00482407      -0.00230412
C       -0.00386085       8.53438235       3.73371302       0.00000000       0.00162135      -0.00806602       0.00671924
C        7.42136798      -0.03307041       3.74248164       0.00000000      -0.00627008       0.00357495      -0.00285306
C        6.19341767       2.12159399       3.78221308       0.00000000       0.00154606       0.00269280      -0.00152333
C        4.96063145       4.25666993       3.85629632       0.00000000      -0.00198542       0.00125369       0.00288060
O        3.77923975       6.40509079       3.86542513       0.00000000       0.00978003      -0.00182595       0.00054581
C        2.48361515       8.46677429       3.75182803       0.00000000      -0.00279750      -0.00176454       0.00590437
C        9.87458274      -0.03239229       3.70454951       0.00000000       0.00916317       0.00374153       0.00660409
C        8.65283200       2.12132818       3.72706213       0.00000000       0.00105069       0.00463908       0.00177953
C        7.40843569       4.26311361       3.82677315       0.00000000      -0.00127272      -0.00765372       0.00105857
C        6.16325131       6.39772522       3.89429341       0.00000000      -0.00056173       0.00689467      -0.00670927
C        4.92960518       8.51890484       3.80690053       0.00000000      -0.00768171      -0.00242281       0.00519762
C        0.01321719       1.42213585       3.51780993       0.00000000      -0.00226426      -0.00632650      -0.00941272
C       -1.23963207       3.56273382       3.55609245       0.00000000      -0.00024561       0.00315075      -0.00032777
C       -2.48711112       5.70073192       3.75212147       0.00000000       0.00154369      -0.00079034      -0.00017335
C       -3.70938864       7.83783041       3.83634209       0.00000000       0.00614699      -0.00005779      -0.00400600
C       -4.92993299       9.97891043       3.76276900       0.00000000       0.00199243      -0.00148591      -0.00262622
C        2.48560205       1.45035483       3.61213477       0.00000000       0.00175025      -0.00284158      -0.00801724
S        1.25218072       3.62361466       2.48264273       0.00000000      -0.00010671       0.00427472       0.00301377
C       -0.05891540       5.75115685       3.55968464       0.00000000       0.00344192       0.00047972      -0.00080462
C       -1.25448339       7.85337233       3.75597653       0.00000000       0.00637371      -0.00877927      -0.00130421
C       -2.46603974       9.98750517       3.78979519       0.00000000      -0.00578254       0.00096412       0.00414699
C        4.95101511       1.43286911       3.75636726       0.00000000       0.00129617       0.00666469       0.00311712
N        3.77200921       3.54690616       3.79476681       0.00000000       0.00252239      -0.00684916       0.00435157
C        1.20776741       7.78578949       3.70631283       0.00000000       0.00311742      -0.00743040       0.00517735
C        0.00868904       9.95967536       3.75256021       0.00000000      -0.01347333      -0.00055956       0.00741128
C        7.42304067       1.39996006       3.75547129       0.00000000       0.00051584       0.00513470       0.00218851
C        6.19242233       3.54082591       3.82335325       0.00000000      -0.00347153      -0.00237073      -0.00268415
C        4.98723491       5.66824610       3.91048830       0.00000000       0.00475681       0.00201780       0.00011204
C        3.72395325       7.82781509       3.81015887       0.00000000      -0.00493697      -0.00538745       0.00987984
C        2.48115596       9.91636494       3.73338109       0.00000000       0.00479845       0.00500336       0.00138429
C        9.88864002       1.41140705       3.66369620       0.00000000      -0.00097355       0.00615240      -0.00451470
C        8.64553100       3.54814073       3.76090031       0.00000000       0.00408076      -0.00049690       0.00078783
C        7.39928604       5.68439614       3.86253371       0.00000000      -0.00633889      -0.00390015      -0.00627811
C        6.16933135       7.82517949       3.85571506       0.00000000      -0.00409393       0.00894708      -0.00013858
C        4.93566448       9.95405262       3.73368362       0.00000000       0.00253419      -0.00384915       0.00405038
V        2.38324404       4.96314932       4.08911259       0.00000000      -0.00441301      -0.00159547      -0.00024938
O        1.82958028       4.45701723       6.95618394       1.00000000      -0.00651175       0.00567523      -0.00672906
O        2.12611327       4.76036441       5.72357529       1.00000000      -0.00657409       0.01143996       0.00489552
