51
Lattice="12.336457 0.0 0.0 -6.168228499999997 10.683685154694365 0.0 0.0 0.0 15.0" Properties=species:S:1:pos:R:3:initial_magmoms:R:1:forces:R:3 energy=-450.40775417759903 free_energy=-450.40775417759903 stress="-0.0014739804310995046 0.0005914131224062129 5.564268211772131e-06 0.0005914131224062129 0.005176774709412632 -2.702476843788457e-06 5.564268211772131e-06 -2.702476843788457e-06 -1.0697412625133095e-05" pbc="T T T"
C       -0.01642088      -0.00663968       3.62162313       0.00000000       0.00522222       0.00273347       0.00526210
C       -1.25547114       2.12292172       3.52693076       0.00000000      -0.00003703      -0.00120739       0.00607855
C       -2.50246290       4.26276042       3.66522918       0.00000000       0.00075320      -0.00442979      -0.00567526
C       -3.73443177       6.40434104       3.74017058       0.00000000      -0.00171133      -0.00015619       0.00420349
C       -4.96042759       8.54317435       3.71932785       0.00000000      -0.00038655       0.00463424      -0.00061243
C        2.45658295       0.01587824       3.76227860       0.00000000       0.00283317      -0.00318611      -0.00166271
C        1.24010523       2.10188272       3.40590799       0.00000000       0.00311416      -0.00233880      -0.00307858
C       -0.07069645       4.32055967       3.50077191       0.00000000      -0.00356258       0.00106209      -0.00172059
C       -1.29116788       6.42567119       3.76997264       0.00000000       0.00194587      -0.00040993      -0.00309249
C       -2.49385513       8.55237268       3.81972975       0.00000000       0.00467867       0.00497476      -0.00072623
C        4.92264022      -0.00293748       3.84734167       0.00000000      -0.00174266      -0.00177377       0.00548835
C        3.70637887       2.18932207       3.84712254       0.00000000      -0.00434619       0.00164611       0.00047602
N        1.12662091       6.36282618       3.99341440       0.00000000       0.00198702       0.00623280      -0.00062461
C       -0.00882678       8.50918023       3.86495969       0.00000000       0.00011688      -0.00017636       0.00380303
C        7.39828791      -0.04606881       3.80161638       0.00000000      -0.00438796      -0.00125932       0.00629295
C        6.16125507       2.12231250       3.80273075       0.00000000      -0.00335924      -0.00614327       0.00087541
C        4.90689883       4.26846342       3.79873671       0.00000000       0.00200396       0.00523726       0.00387420
O        3.77307245       6.41827736       3.53156588       0.00000000       0.00315127       0.00037865      -0.00506550
C        2.46518512       8.44530376       3.79320173       0.00000000       0.00091665      -0.00141474       0.00570710
C        9.84618350      -0.04191268       3.67724968       0.00000000       0.00348581       0.00096843      -0.00026164
C        8.62047673       2.11038646       3.69968849       0.00000000      -0.00404603       0.00297132       0.00122667
C        7.37463745       4.25817986       3.72387355       0.00000000      -0.00265649      -0.00326754      -0.00205719
C        6.14616656       6.39684839       3.67839518       0.00000000       0.00063785       0.00131514       0.00183866
C        4.91596234       8.51973536       3.66302230       0.00000000      -0.00172317      -0.00486746       0.00024114
C       -0.01261740       1.41919388       3.50239186       0.00000000       0.00187569       0.00118850      -0.00037402
C       -1.26843071       3.55753897       3.54764261       0.00000000       0.00097955      -0.00408678      -0.00192259
C       -2.50692784       5.69212475       3.72837000       0.00000000      -0.00025827      -0.00328962      -0.01093233
C       -3.72539256       7.83286459       3.76490365       0.00000000       0.00278811       0.00541991       0.00080885
C       -4.94868774       9.97653175       3.70291565       0.00000000       0.00383608       0.00243327      -0.00262150
C        2.46560727       1.44624975       3.69210736       0.00000000       0.00028022      -0.00528490       0.00209959
P        1.38136864       3.72286048       2.72946832       0.00000000       0.00101548       0.00110884      -0.00037923
C       -0.05884301       5.73557466       3.75004221       0.00000000       0.00220052       0.00263085       0.00617246
C       -1.26708512       7.83469272       3.83569712       0.00000000       0.00301255       0.00025035       0.00290119
C       -2.48554367       9.97929301       3.83096955       0.00000000       0.00218427       0.00168426       0.00053578
C        4.92377787       1.43102536       3.84196655       0.00000000      -0.00410414      -0.00347094      -0.00534374
N        3.73193031       3.57202908       3.97940105       0.00000000      -0.00529350       0.00602548      -0.00172114
C        1.20297682       7.74030491       3.90522665       0.00000000       0.00045316       0.00358064       0.00149687
C       -0.00871126       9.94084472       3.84757315       0.00000000      -0.00437051      -0.00171651      -0.00331535
C        7.39280338       1.39263026       3.77230688       0.00000000      -0.00313248      -0.00183047      -0.00501309
C        6.14761384       3.54957296       3.75872304       0.00000000      -0.00132139      -0.00407304       0.00395867
C        4.94235940       5.69477029       3.67006167       0.00000000       0.00168276       0.00537125       0.00729706
C        3.71623905       7.79979233       3.66745712       0.00000000      -0.00085525      -0.00611023       0.00090817
C        2.45713163       9.89363684       3.76147207       0.00000000      -0.00016538      -0.00000050      -0.00186043
C        9.85443895       1.39844307       3.63351863       0.00000000      -0.00255288       0.00343302       0.00169889
C        8.61350656       3.54140111       3.69801351       0.00000000      -0.00172429       0.00059423      -0.00954558
C        7.37716419       5.68099082       3.71576563       0.00000000      -0.00372331      -0.00356950      -0.00131858
C        6.15363130       7.82431064       3.67371561       0.00000000      -0.00077079      -0.00048991      -0.00407323
C        4.91570516       9.95286054       3.65496181       0.00000000       0.00554915      -0.00120100      -0.00248755
V        2.30609742       4.86214509       4.93135008       0.00000000       0.00618091      -0.00175211      -0.01324173
O        1.44703837       3.81950469       5.87261165       1.00000000      -0.01463044      -0.00253198       0.00460096
O        3.15939967       5.80192954       5.95920585       1.00000000       0.00797667       0.00416330       0.01088116
