51
Lattice="12.336457 0.0 0.0 -6.168228499999997 10.683685154694365 0.0 0.0 0.0 15.0" Properties=species:S:1:pos:R:3:initial_magmoms:R:1:forces:R:3 energy=-450.3468527806227 free_energy=-450.3468527806227 stress="-0.0015972576561701858 -0.0030276909384659503 -2.0741972990773333e-05 -0.0030276909384659503 0.005064549817102755 -4.730201223340199e-06 -2.0741972990773333e-05 -4.730201223340199e-06 -4.333927411149826e-06" pbc="T T T"
C        0.00092516       0.00435563       3.85541481       0.00000000       0.00289947       0.00294369      -0.00568548
C       -1.25226184       2.12019056       3.82847777       0.00000000      -0.00625860      -0.00123527      -0.00060114
C       -2.46748622       4.26411472       3.69399667       0.00000000      -0.00271798      -0.00466720       0.01255971
C       -3.67899378       6.41403016       3.65057573       0.00000000      -0.00155663      -0.00063529       0.00036578
C       -4.91859864       8.55974100       3.75495814       0.00000000       0.00124883       0.00365443      -0.00201390
C        2.47074731       0.02522758       3.82302526       0.00000000      -0.00183932      -0.00103776      -0.00400753
C        1.20282725       2.17150395       3.97520545       0.00000000      -0.00444216      -0.00057269      -0.00152279
C       -0.02743874       4.24648881       3.98413739       0.00000000       0.00598458      -0.00346163       0.00564594
C       -1.22874917       6.40646687       3.76824294       0.00000000       0.00275117       0.00269280       0.00122248
C       -2.45202668       8.55501737       3.74644797       0.00000000      -0.00052203       0.00084837       0.00365627
C        4.94408778       0.00003281       3.66001018       0.00000000      -0.00543526       0.00190105       0.00622261
C        3.67227116       2.12034254       3.45986214       0.00000000       0.00501293      -0.00219867      -0.00024719
N        1.16543736       6.38924242       4.06740948       0.00000000       0.00469186      -0.00801817       0.00638807
C        0.02109708       8.51429964       3.77812949       0.00000000       0.00143127       0.00390340      -0.00146095
C        7.41173133      -0.03140336       3.67663025       0.00000000      -0.00420017       0.00194267       0.00113031
C        6.16556895       2.14222194       3.44789961       0.00000000       0.00377411      -0.00145236      -0.00134145
C        4.99491284       4.37020898       3.20977680       0.00000000       0.00108246       0.00304769       0.00227626
O        3.81585607       6.43142595       3.61844583       0.00000000      -0.00621420      -0.00618512      -0.01236443
C        2.49391667       8.45841850       3.81891398       0.00000000      -0.00067942      -0.00487123      -0.00285000
C        9.86068509      -0.03600748       3.77123937       0.00000000       0.00470413       0.00072915       0.00184074
C        8.62861920       2.12039930       3.63440316       0.00000000      -0.00074979       0.00085873       0.00155777
C        7.41780578       4.27801561       3.49374758       0.00000000      -0.00605972       0.00005622      -0.00833605
C        6.21365952       6.44602547       3.51116264       0.00000000       0.00164552       0.00542113       0.00196826
C        4.94896675       8.53457190       3.75198196       0.00000000       0.00435221       0.00070559       0.00200465
C       -0.01135209       1.43151174       3.89900121       0.00000000      -0.00728446       0.00005663       0.00275716
C       -1.24826519       3.54451690       3.81425082       0.00000000       0.00025709      -0.00301351       0.00373990
C       -2.45400972       5.69089509       3.69482414       0.00000000       0.00165764      -0.00175640       0.00139166
C       -3.68164664       7.84204273       3.71989460       0.00000000      -0.00127511       0.00153104      -0.00542292
C       -4.92378399       9.98766158       3.84039245       0.00000000       0.00016143       0.00140593      -0.00288307
C        2.45521414       1.45640311       3.79324883       0.00000000      -0.00256167       0.00024405      -0.00290735
N        1.13022125       3.53968638       4.19420931       0.00000000       0.01155348       0.00062408      -0.01229281
C       -0.00279549       5.70414665       3.92806378       0.00000000       0.00244325      -0.00596614       0.01283776
C       -1.22178066       7.82913264       3.75742019       0.00000000       0.00242250       0.00561933      -0.00805823
C       -2.45878703       9.98545897       3.74931972       0.00000000      -0.00319412      -0.00128841       0.00797590
C        4.92932124       1.43049522       3.50903256       0.00000000       0.00468784      -0.00052890       0.00267306
P        3.46824144       3.69471115       2.72252808       0.00000000      -0.00983441      -0.00523156       0.00187972
C        1.23231582       7.75042868       3.88935948       0.00000000      -0.00033893      -0.00809257       0.00062024
C        0.01170364       9.94927097       3.69903445       0.00000000      -0.00617702       0.00489390      -0.00297613
C        7.39515561       1.40907672       3.57939182       0.00000000       0.00110331       0.00087099       0.00003549
C        6.17872240       3.58090711       3.35637841       0.00000000      -0.00206454      -0.00093436       0.00024372
C        5.01517548       5.76923638       3.36326944       0.00000000       0.00274570       0.00187515       0.00177379
C        3.75360477       7.81288077       3.75581668       0.00000000       0.00226932      -0.00268459      -0.00045445
C        2.47286666       9.90417260       3.75377549       0.00000000      -0.00004984       0.00096326      -0.00527712
C        9.85669872       1.40218345       3.74574781       0.00000000      -0.00089910       0.00060569      -0.00087550
C        8.63743673       3.55149776       3.60185365       0.00000000      -0.00714204      -0.00073002      -0.00261043
C        7.43480936       5.70283064       3.54310802       0.00000000      -0.00269484      -0.00014713       0.00541329
C        6.19906273       7.85214434       3.68159506       0.00000000       0.00443825       0.00471238      -0.00418024
C        4.93340999       9.96155642       3.80821133       0.00000000       0.00792158       0.00295445      -0.00475856
V        2.26255742       4.91241285       5.15397789       0.00000000      -0.01051950       0.00483445       0.00407113
O        1.48385068       5.31586883       6.53121057       1.00000000       0.01523863      -0.00500064       0.00557451
O        3.72483509       4.29304733       5.61105518       1.00000000      -0.00176771       0.00981339      -0.00469842
