52
Lattice="12.336457 0.0 0.0 -6.168228499999997 10.683685154694365 0.0 0.0 0.0 15.0" Properties=species:S:1:pos:R:3:forces:R:3 energy=-454.66114058864287 free_energy=-454.66114058864287 stress="-0.0027966320736936517 0.0025259533303181704 9.875828014732494e-06 0.0025259533303181704 0.002942605386737922 -4.871930548202703e-05 9.875828014732494e-06 -4.871930548202703e-05 3.6652418753421906e-05" pbc="T T T"
C        0.02287719       0.06571504       3.76162030       0.00366848       0.00798731      -0.00022036
C       -1.20695697       2.19638045       3.80579290       0.00552053       0.00372838       0.00350264
C       -2.43212901       4.32989534       3.79672940       0.00533276       0.00074158      -0.00400507
C       -3.68162612       6.46569167       3.76355814       0.00497756       0.00105091       0.00499767
C       -4.92076107       8.60996131       3.71092661      -0.00217594       0.00425465      -0.00415877
C        2.48363175       0.09536702       3.85442762       0.00256611      -0.00394206      -0.00324898
C        1.23805650       2.24247731       4.00189960       0.00649566      -0.00442581       0.00784852
C        0.02059076       4.34346254       3.97904530       0.00135257      -0.00456491       0.00425675
C       -1.21889700       6.47002612       3.83537634      -0.00463258       0.00747789       0.00163221
C       -2.45242336       8.61120328       3.79771560      -0.00612470       0.00316600       0.00452050
C        4.95576255       0.05599226       3.82833800      -0.00472604      -0.00294796      -0.00961887
C        3.75617608       2.21249107       3.97042067      -0.00059807      -0.00065761       0.01172328
O        1.16102037       6.48887765       3.74050614      -0.00418975      -0.00439720      -0.00257638
C        0.01122431       8.58687620       3.75509445      -0.00125151      -0.00677536       0.00312991
C        7.42897480       0.02870883       3.76373622      -0.00360682       0.00011671       0.00532394
C        6.21514296       2.16914853       3.82320503       0.00426055       0.00189243      -0.01027904
C        5.00452853       4.27490857       3.80251836      -0.00253350      -0.00468421       0.00726484
P        3.65852258       6.31787953       2.64271052      -0.00935288      -0.01749601      -0.00205541
C        2.45775507       8.55610138       3.58647786       0.00074678       0.00041101      -0.00043103
C        9.88861354       0.03559156       3.71207968       0.00358105       0.00523197       0.00052000
C        8.67040987       2.17896578       3.77253609       0.00896158       0.00119971      -0.00033266
C        7.44777867       4.31701965       3.76283731       0.00687981       0.00010651       0.00087794
C        6.19630503       6.45192140       3.62142358      -0.00014115      -0.00393729      -0.00318642
C        4.94953467       8.59212211       3.54494425      -0.00638199       0.00035385      -0.00417813
C        0.02632441       1.49736375       3.83965475       0.00400154       0.00439802       0.00249807
C       -1.20036647       3.62674907       3.83671727       0.00009669      -0.00047864       0.00383777
C       -2.44676224       5.75022877       3.80738544       0.00450321       0.00209709       0.00196489
C       -3.68863105       7.89633006       3.75950270      -0.00302171       0.00380030       0.01047962
C       -4.91301519      10.04480788       3.77508684       0.00023144       0.00473144      -0.00117250
C        2.49057388       1.53196299       3.96942429       0.00558284      -0.00919054       0.00394376
N        1.17607786       3.61209381       4.19285000       0.00492657      -0.00097019      -0.00655834
C       -0.01123820       5.77350085       3.89337498      -0.00380778       0.00331962       0.00292201
C       -1.22879474       7.89430536       3.80092261      -0.00614830       0.00437649      -0.00543452
C       -2.45528796      10.04654077       3.82781153      -0.00330451      -0.00331916      -0.00452198
C        4.96840742       1.47854308       3.85904823       0.00117822       0.00012463      -0.00236959
N        3.84011468       3.58986642       4.06206632      -0.00570428      -0.00268589      -0.02713109
C        1.20551548       7.87489608       3.66002987      -0.00081416      -0.01044989       0.00560260
C        0.02260106      10.01764780       3.78021704      -0.00447877      -0.00553223      -0.00634275
C        7.43918103       1.45882355       3.78599318       0.00513991       0.00372249       0.00959787
C        6.22859274       3.58515265       3.79360486       0.00405619       0.00159625      -0.01016725
C        4.98645226       5.69229975       3.56270770       0.00374420      -0.00762843       0.00999077
C        3.71087357       7.89690137       3.38041999      -0.00532100      -0.01128686       0.00338805
C        2.48092343       9.98761753       3.70110070      -0.00040649       0.00376233       0.00388092
C        9.90023445       1.46824213       3.76119348       0.00704415       0.00208590      -0.00034545
C        8.67460818       3.60528749       3.77548032       0.00664384      -0.00088048       0.00081743
C        7.43190294       5.74581714       3.73095545       0.00973379      -0.00114891      -0.00823037
C        6.18751597       7.88356036       3.59795958      -0.00279691      -0.00010832       0.00139861
C        4.95693468      10.02269088       3.67616206       0.00228994       0.00480832      -0.00701013
V        2.59617116       4.37129406       5.33162658      -0.03662442       0.02563160       0.08994825
O        2.70169303       5.91275997       5.83489071       0.01414039      -0.00577793      -0.04991203
O        2.73274475       3.23024648       6.69942088      -0.03406732      -0.00553140      -0.02061604
H        2.20884670       3.26349420       7.52121661       0.02455422       0.01664390      -0.01176567
