51
Lattice="12.336457 0.0 0.0 -6.168228499999997 10.683685154694365 0.0 0.0 0.0 15.0" Properties=species:S:1:pos:R:3:initial_magmoms:R:1:forces:R:3 energy=-450.3160638440221 free_energy=-450.3160638440221 stress="-0.002919242132632072 0.0025154508762013014 2.4819907603103354e-07 0.0025154508762013014 0.003666719380248597 1.0713011191144478e-05 2.4819907603103354e-07 1.0713011191144478e-05 -6.083325647464835e-06" pbc="T T T"
C       -0.00358297       0.02889218       3.69926890       0.00000000       0.00735348       0.00065228      -0.00305520
C       -1.23354499       2.15774880       3.73164459       0.00000000      -0.00060474      -0.00725173       0.00039280
C       -2.45943501       4.29190778       3.71463983       0.00000000       0.00299789       0.00077322       0.00459905
C       -3.70771206       6.42903614       3.69024080       0.00000000       0.00518121      -0.00226224      -0.00130424
C       -4.94679750       8.57425560       3.64312829       0.00000000      -0.00370054       0.00509932       0.00775985
C        2.45722389       0.06430601       3.80776936       0.00000000      -0.00153666      -0.00071322       0.00103151
C        1.20828044       2.21335681       3.95368298       0.00000000       0.00241220      -0.00661961       0.00626186
C       -0.00922434       4.30133137       3.92006282       0.00000000      -0.00263503       0.00901442       0.00349420
C       -1.24682888       6.43224821       3.78420963       0.00000000       0.00242981      -0.00835439      -0.00316579
C       -2.47990849       8.57600321       3.74908429       0.00000000       0.00377994      -0.00379555      -0.00910923
C        4.93039085       0.01865810       3.77480073       0.00000000      -0.00082525       0.00319276       0.00425046
C        3.73418042       2.18306362       3.92498038       0.00000000       0.00052742       0.00130550      -0.00627655
O        1.13313686       6.44429328       3.71056326       0.00000000       0.00094374       0.00178119      -0.00139598
C       -0.01354276       8.54587707       3.71391627       0.00000000       0.00452913      -0.00911859       0.00296914
C        7.40418241      -0.01364177       3.70589118       0.00000000       0.00325592       0.00685730      -0.00676801
C        6.19175755       2.12946721       3.74260764       0.00000000      -0.00548897      -0.00008208      -0.00173084
C        4.97983986       4.23454826       3.72549781       0.00000000      -0.00317754      -0.00122773       0.00571145
P        3.63239530       6.28083698       2.56001136       0.00000000      -0.00556756       0.01010488      -0.00462682
C        2.43270680       8.51035905       3.53410806       0.00000000      -0.00325560       0.00224984      -0.00527868
C        9.86239959      -0.00527515       3.64128616       0.00000000       0.00462117      -0.00964116       0.01370536
C        8.64536288       2.13859424       3.69133298       0.00000000       0.00286123       0.00476040      -0.00469697
C        7.42373723       4.27833477       3.66894340       0.00000000      -0.00680459      -0.00994914      -0.00263854
C        6.17118628       6.41245084       3.53254287       0.00000000       0.00362080       0.00464785       0.00302592
C        4.92393828       8.55254030       3.46862519       0.00000000      -0.00876480       0.01083805      -0.00144296
C       -0.00116827       1.45994067       3.77873634       0.00000000       0.00214530      -0.00423188       0.00028084
C       -1.23082966       3.58774547       3.76088460       0.00000000       0.00126478      -0.00053001       0.00090792
C       -2.47397531       5.71283519       3.73733796       0.00000000       0.00284319      -0.00215222       0.00259859
C       -3.71527307       7.86050164       3.69707529       0.00000000      -0.00089142       0.00130947       0.01110513
C       -4.93877694      10.00977026       3.71914518       0.00000000       0.00122520       0.00155617      -0.01029199
C        2.46462171       1.50059348       3.92598412       0.00000000       0.00346498      -0.00251412      -0.00346351
N        1.13224679       3.57439946       4.14514465       0.00000000      -0.00667726      -0.00361171       0.00292079
C       -0.04038347       5.73370387       3.84777497       0.00000000       0.00335324       0.00577303      -0.00837121
C       -1.25651327       7.85738037       3.75587242       0.00000000       0.00404501      -0.01258369      -0.00057099
C       -2.48239601      10.01178430       3.77991414       0.00000000      -0.00068472      -0.00015001       0.00309837
C        4.94504033       1.44043842       3.79910966       0.00000000      -0.00348972       0.00378339      -0.00556998
N        3.82946905       3.55339668       4.01432614       0.00000000      -0.00008097       0.00261979      -0.00500310
C        1.18055585       7.83036961       3.62322861       0.00000000       0.00133105      -0.00110324      -0.00617196
C       -0.00280093       9.97707805       3.72798948       0.00000000       0.00325076      -0.00210731       0.00664450
C        7.41533679       1.41717928       3.71337868       0.00000000       0.00054886       0.01072428      -0.00578775
C        6.20690766       3.54536878       3.69836447       0.00000000      -0.01010068      -0.00682127       0.00658674
C        4.96520591       5.65106192       3.47033600       0.00000000       0.00153408       0.00048461      -0.00285291
C        3.68462181       7.85602074       3.30733223       0.00000000      -0.00866763       0.00350703       0.00653055
C        2.45548590       9.94396875       3.64314484       0.00000000       0.00064283      -0.00020081      -0.00916350
C        9.87428227       1.42782751       3.68447486       0.00000000      -0.00177897      -0.01094215       0.00089943
C        8.64930055       3.56572593       3.68593308       0.00000000       0.00110800       0.00353312       0.00575268
C        7.40761118       5.70807813       3.64295342       0.00000000       0.00536956      -0.00748617      -0.00450310
C        6.16284135       7.84577095       3.51765745       0.00000000      -0.00746620       0.01263734       0.00427678
C        4.93118154       9.98332649       3.60428301       0.00000000       0.00838201       0.00309658       0.00529857
V        2.57815058       4.39806995       5.29498152       0.00000000       0.00254886       0.00726412      -0.00495479
O        2.82227888       5.97220103       5.72256707       1.00000000      -0.00099912       0.00115063       0.00530887
O        2.59992986       3.45432978       6.62788843       1.00000000      -0.00437369      -0.00526654       0.00278322
