52
Lattice="12.336457 0.0 0.0 -6.168228499999997 10.683685154694365 0.0 0.0 0.0 15.0" Properties=species:S:1:pos:R:3:forces:R:3 energy=-454.67865170428496 free_energy=-454.67865170428496 stress="-0.002369666611348978 -0.0031809407260501256 -7.811529051045438e-06 -0.0031809407260501256 0.005013275498100719 -1.5691057067106343e-05 -7.811529051045438e-06 -1.5691057067106343e-05 9.234394662010168e-07" pbc="T T T"
C        0.02873848      -0.00604026       3.90739087       0.00150839      -0.00088282       0.00277766
C       -1.22873031       2.10633525       3.91270160      -0.00119014      -0.00519382      -0.00118865
C       -2.44516453       4.25072962       3.79093323      -0.00279018      -0.00207352      -0.00245894
C       -3.65122227       6.40210290       3.72641292      -0.00717531       0.00297615       0.00062923
C       -4.89000377       8.54980773       3.80143172       0.01116107       0.00555748       0.00942182
C        2.49863338       0.01283568       3.88323762      -0.00064276      -0.00005887       0.00335624
C        1.22817087       2.15795688       4.03731400       0.00933261       0.00208831       0.00310582
C       -0.01171371       4.23619266       4.07497049      -0.00414141       0.00170217      -0.00136640
C       -1.20541546       6.39409579       3.86222747      -0.00157943       0.00076469      -0.00414033
C       -2.42438963       8.54266713       3.82041989       0.00208373       0.00154464      -0.00598392
C        4.97196369      -0.01365257       3.72641825      -0.00621874       0.00237873      -0.00101108
C        3.69901792       2.10987559       3.52986040      -0.00417250      -0.00450959      -0.01501183
N        1.19389871       6.36277619       4.11191801       0.01466189      -0.01013643      -0.00779962
C        0.04953863       8.49781363       3.84644180       0.00038009      -0.00409521      -0.00050531
C        7.43890030      -0.04685747       3.73470778       0.00136304      -0.00586397      -0.00036083
C        6.19385363       2.12726240       3.50943841      -0.00186775       0.00209638       0.00764884
C        5.02740524       4.35677254       3.27017128       0.00683064       0.00615745      -0.00256073
O        3.85166865       6.42091115       3.66804055      -0.00062822       0.00039840       0.00118336
C        2.52190128       8.44132587       3.87021082      -0.00563876      -0.00458310      -0.00231799
C        9.88762094      -0.05020208       3.82656679      -0.00603022       0.00554535       0.00298954
C        8.65481156       2.10614357       3.70542173      -0.00984722       0.00102653       0.00651030
C        7.44514927       4.26492893       3.56374016       0.00279007      -0.00409594      -0.00498326
C        6.24873483       6.43670563       3.55708950       0.00203541       0.00073370      -0.00885930
C        4.97986514       8.52549055       3.78585667       0.00087932      -0.00355077       0.00655982
C        0.01371541       1.42013163       3.96994172       0.00935782       0.00064847      -0.00458115
C       -1.22746378       3.53018844       3.91435003      -0.00054563      -0.00490592      -0.00644203
C       -2.42934342       5.67765265       3.78832384      -0.00746054       0.00212532      -0.00213316
C       -3.65373945       7.83051422       3.78510531       0.00534159       0.00317240      -0.00087127
C       -4.89592506       9.97752825       3.88957661       0.00368299       0.00371135       0.00613006
C        2.48197994       1.44604431       3.85855155       0.00056966      -0.00445218      -0.00684138
N        1.15872984       3.53144949       4.24541144       0.00587421       0.00734986      -0.00418171
C        0.01529769       5.68600791       4.01578914       0.00267495       0.00179418      -0.00488932
C       -1.19513359       7.81617441       3.83757843      -0.00088302       0.00079261       0.00593939
C       -2.43108321       9.97323996       3.81781276      -0.00398726      -0.00054317      -0.00180563
C        4.95650557       1.41689575       3.57241942      -0.00585788       0.00563409      -0.00084714
P        3.48707576       3.69309351       2.80180345       0.00687752       0.00032482       0.00827690
C        1.25993529       7.72997971       3.94318802      -0.00055865      -0.00454406       0.00765621
C        0.03942322       9.93369000       3.76217681      -0.00187029      -0.00036158       0.00323713
C        7.42269161       1.39404070       3.64038257      -0.00396072      -0.00286984       0.00683955
C        6.20941546       3.56597469       3.41951054       0.00262481      -0.00114035       0.00337537
C        5.05338582       5.75504522       3.41214664      -0.00215234       0.00560603       0.00238431
C        3.78504045       7.80534924       3.80288464      -0.00389491      -0.00437598      -0.00290535
C        2.49986524       9.88951784       3.80674300       0.00033019      -0.00483198       0.00522196
C        9.88235093       1.38788358       3.81739210      -0.00898745       0.00531740      -0.00270022
C        8.66245187       3.53756984       3.68234897      -0.00165701      -0.00281879       0.00147234
C        7.46439648       5.69049272       3.60923248      -0.00166685      -0.00431151      -0.00495882
C        6.22944720       7.84304036       3.71819060       0.01087962       0.00152964       0.00212817
C        4.96257863       9.95094426       3.85249790      -0.00469771       0.00259574       0.00337498
V        2.33310014       4.88389842       5.11691298      -0.01087695       0.00337258      -0.00712745
O        3.71338056       4.20866424       5.68085440       0.00839389      -0.00815838       0.01216334
O        1.58797007       5.64463516       6.60489261      -0.00714658      -0.00520689      -0.00909432
H        1.90189878       5.27675736       7.45391621       0.00849294       0.01662017       0.00554480
