51
Lattice="12.336457 0.0 0.0 -6.168228499999997 10.683685154694365 0.0 0.0 0.0 15.0" Properties=species:S:1:pos:R:3:initial_magmoms:R:1:forces:R:3 energy=-449.5169185235225 free_energy=-449.5169185235225 stress="-0.003086359423477293 0.003273404522959763 1.7949668266929007e-05 0.003273404522959763 0.003752006370669572 9.776190805643566e-06 1.7949668266929007e-05 9.776190805643566e-06 -1.1413140993441017e-05" pbc="T T T"
C       -0.00930672       0.02684245       3.69876560       0.00000000       0.00471944      -0.00587468       0.00412211
C       -1.23633850       2.15535369       3.75170180       0.00000000       0.00454388       0.00954931       0.00801168
C       -2.45884973       4.28958224       3.73426700       0.00000000      -0.00254997      -0.00497052      -0.00355505
C       -3.70977695       6.42569310       3.68518797       0.00000000       0.00207662      -0.00034075      -0.00636782
C       -4.96319122       8.56610628       3.62515671       0.00000000      -0.00951511      -0.00194468       0.00074132
C        2.44860068       0.06167261       3.78508304       0.00000000       0.00323066       0.01487048       0.00968410
C        1.20744043       2.21643826       3.93669137       0.00000000      -0.00548724      -0.00106695      -0.00285389
C       -0.00827261       4.29865821       3.93643401       0.00000000       0.00511882       0.00583255      -0.00720240
C       -1.25321308       6.43236341       3.80108336       0.00000000      -0.00373278      -0.01073545      -0.00268274
C       -2.49071094       8.57334431       3.74588992       0.00000000      -0.00044635      -0.00478918       0.00386567
C        4.92123748       0.01699304       3.77466072       0.00000000       0.00518425      -0.00111719       0.00422840
C        3.72757845       2.18648529       3.88115423       0.00000000       0.00584684       0.00435702      -0.00141850
O        1.12121305       6.45757049       3.82922559       0.00000000      -0.00752609      -0.00226854      -0.00106075
C       -0.02313503       8.54508825       3.74965168       0.00000000       0.01266136       0.00502620       0.00432083
C        7.39775503      -0.01567191       3.73920447       0.00000000      -0.00005543       0.00212611      -0.00314760
C        6.18961150       2.12139601       3.73652596       0.00000000      -0.00170684      -0.00388479      -0.00245615
C        4.98663210       4.22762056       3.65975067       0.00000000       0.00022342      -0.00406358       0.00158223
S        3.59567688       6.27558848       2.64856477       0.00000000      -0.00413284      -0.00099782       0.00145650
C        2.42311828       8.50858578       3.58260648       0.00000000       0.00732222      -0.00021379       0.00112932
C        9.85801606      -0.00885561       3.67442696       0.00000000      -0.00538579      -0.00840082      -0.00100546
C        8.64461206       2.13538097       3.71622199       0.00000000      -0.00645758      -0.00664664      -0.00147559
C        7.42550009       4.27252784       3.65475842       0.00000000       0.00095292       0.00883728       0.01505845
C        6.16970444       6.40442145       3.48895743       0.00000000       0.00095459       0.00609829      -0.00281464
C        4.90751871       8.54375755       3.46688245       0.00000000       0.00253131       0.00363000       0.00648371
C       -0.00443528       1.45871964       3.78243551       0.00000000       0.00121089      -0.00208160      -0.00071384
C       -1.23205722       3.58439107       3.78276109       0.00000000       0.00336642       0.01187472       0.00746740
C       -2.47673970       5.71066925       3.74627442       0.00000000      -0.00387798      -0.01001204       0.00204480
C       -3.72558872       7.85518547       3.68657104       0.00000000      -0.00721416      -0.00230469      -0.00050308
C       -4.94928779      10.00569848       3.70299643       0.00000000       0.00508050       0.00172822      -0.00682583
C        2.45876517       1.49985227       3.89324531       0.00000000       0.00359326       0.01305962       0.00198477
N        1.14076698       3.57892720       4.12533084       0.00000000      -0.01123313      -0.00859551       0.00591959
C       -0.04587642       5.73425038       3.88320166       0.00000000      -0.00064463      -0.00211013      -0.00367225
C       -1.26752449       7.85475143       3.77400471       0.00000000       0.00756448      -0.00634034      -0.01008206
C       -2.49189113      10.00913651       3.76909933       0.00000000       0.00155667       0.00409527       0.00318832
C        4.94041757       1.43811599       3.78219544       0.00000000       0.00138178      -0.00350637      -0.01301684
N        3.82190273       3.55521574       3.94413882       0.00000000      -0.00908121       0.00799354      -0.00138748
C        1.16816177       7.83548522       3.68685313       0.00000000       0.00810362       0.00058302      -0.00507835
C       -0.01043809       9.97695831       3.75283621       0.00000000       0.00741543       0.00508651      -0.00273161
C        7.41369434       1.41371358       3.73327957       0.00000000      -0.00613734      -0.00417067      -0.00400175
C        6.21217128       3.53723521       3.66924286       0.00000000       0.00357846      -0.00088276       0.00248545
C        5.00002070       5.62475703       3.37052387       0.00000000       0.00393226       0.00009576       0.00096266
C        3.66642802       7.86921885       3.30846708       0.00000000       0.00875595       0.01052964      -0.00196436
C        2.45170154       9.94265602       3.68296256       0.00000000      -0.00691590      -0.00399403       0.00216824
C        9.87165952       1.42585205       3.71508119       0.00000000       0.00043007      -0.00290828      -0.00206359
C        8.65194829       3.56176055       3.70051001       0.00000000      -0.00515509      -0.00372353      -0.00680008
C        7.40822841       5.69946513       3.62222746       0.00000000       0.00341156       0.00998520      -0.00983441
C        6.14757711       7.83746738       3.49124966       0.00000000      -0.00468154       0.00023069       0.01098225
C        4.92212796       9.97869215       3.61906871       0.00000000       0.00179879      -0.00410246       0.00004050
V        2.61381496       4.44586579       5.24673952       0.00000000      -0.00507225      -0.00690881      -0.00084871
O        2.94811723       5.98842941       5.72841467       1.00000000      -0.00565321      -0.01621156      -0.00874047
O        2.61357792       3.47350848       6.55967205       1.00000000      -0.00388398       0.00957872       0.01637698
