53
Lattice="12.336457 0.0 0.0 -6.168228499999997 10.683685154694365 0.0 0.0 0.0 15.0" Properties=species:S:1:pos:R:3:forces:R:3 energy=-458.01169310575096 free_energy=-458.01169310575096 stress="-0.00025362067299189965 -0.0005114060734950823 -1.580062493376804e-05 -0.0005114060734950823 -0.007937413455733209 3.109873371639082e-05 -1.580062493376804e-05 3.109873371639082e-05 -1.677879858375327e-05" pbc="T T T"
C        0.00495459      -0.01675576       3.88966090       0.00617814       0.00253549      -0.00670371
C       -1.22373951       2.12563040       4.01096659       0.00225650      -0.00792428      -0.00798002
C       -2.45963779       4.26206898       4.04903249      -0.00118290       0.00222927       0.00493549
C       -3.70366672       6.39465888       3.97561041       0.00043913      -0.00538143       0.00347080
C       -4.93290180       8.52327715       3.86454452       0.00170884       0.00496113      -0.00361188
C        2.47402697      -0.03279931       3.92400223      -0.00371044      -0.00013534      -0.00433231
C        1.24649976       2.09996868       3.95950824      -0.00751620      -0.00902265      -0.00047107
C        0.03647256       4.22933236       3.92881804       0.00365371      -0.00222889       0.00427282
C       -1.22236357       6.38673384       3.81931797       0.00699421       0.01153519      -0.00450987
C       -2.44697091       8.51583616       3.84587816      -0.00477805      -0.00142245       0.01022824
C        4.94029212      -0.01836345       3.87075668      -0.00472027       0.00356810      -0.00322206
C        3.69681039       2.08460727       3.93885700      -0.00107490      -0.00307008       0.00587003
O        2.47935668       4.10490714       3.72699255       0.01262579       0.00066109      -0.00631370
S        1.33764795       6.30633730       2.96299236      -0.00474184       0.00860189      -0.00142031
C       -0.00327370       8.56242663       3.58934228      -0.00383922      -0.00260318      -0.00866877
C        7.40157557       0.02430461       3.74780173      -0.00430693       0.00381488       0.00182696
C        6.15858653       2.12747294       3.97798622       0.00393833       0.01120266      -0.00708770
C        4.89078584       4.23007114       3.91868221       0.00045244      -0.00388549       0.00931485
S        3.91639398       6.37596569       2.36841816      -0.00555872      -0.00648370      -0.00080920
C        2.47543168       8.64861606       3.26708224      -0.00511330       0.00195485      -0.00211622
C        9.87889134       0.02788290       3.74999367       0.00268050       0.00665416       0.00731948
C        8.63525640       2.13964588       3.98451532       0.00410728       0.00301122      -0.00008989
C        7.38828559       4.26370229       4.04036107      -0.00532924      -0.00627470      -0.00417842
C        6.15505634       6.40804643       3.87891934      -0.00064562      -0.00552253       0.00963031
C        4.95228599       8.56152393       3.57471695       0.00265680       0.01171883      -0.00135036
C        0.00064648       1.40308450       3.97177040      -0.00166720      -0.00773383      -0.01033736
C       -1.21476246       3.54426652       4.04074569       0.00048218      -0.00755079       0.00190624
C       -2.46762833       5.68045053       3.98222583       0.00747635       0.00649942      -0.00102502
C       -3.69569209       7.81146602       3.90387139      -0.00316244      -0.00297564       0.00392739
C       -4.93326820       9.94331718       3.89226353       0.00051277       0.00362805       0.00435874
C        2.47253910       1.37535234       3.94466216      -0.00630664      -0.00523896       0.00047652
C        1.24497461       3.47976668       3.87130840       0.00584484      -0.00728919       0.00159856
C       -0.04068889       5.63328669       3.72435784      -0.00058725       0.00311297      -0.00604916
C       -1.21230663       7.81351004       3.73204420      -0.00196811       0.00738867      -0.00173432
C       -2.45462665       9.94077263       3.87934747      -0.00618188      -0.00061186      -0.00644087
C        4.94076850       1.40064208       3.94103924       0.00238721       0.00797506       0.00523669
C        3.70213867       3.47115784       3.87042724       0.00865081      -0.00216004       0.00260499
C        1.24347992       7.96470629       3.31287215      -0.00546122      -0.00037460      -0.00945002
C        0.00522929       9.98247460       3.73982933      -0.00581276      -0.00254440      -0.00457016
C        7.40076219       1.43114394       3.92339095       0.00272261       0.00900313      -0.00972325
C        6.14541382       3.54541739       4.00856420      -0.00111845       0.00319212      -0.00410348
C        4.92309363       5.67314496       3.72514674      -0.00197683      -0.00930341       0.00326992
C        3.73730129       7.93972810       3.15608052      -0.00336689      -0.00023553       0.00162991
C        2.47423277      10.03630947       3.57961760      -0.00089656       0.00199584       0.01216952
C        9.87195704       1.43112285       3.93453085       0.00347265       0.00073853       0.00953324
C        8.63145740       3.55766154       4.05362138      -0.00432226      -0.00037078       0.00066940
C        7.38881298       5.69015986       4.00058331      -0.00050981      -0.01010790       0.00448338
C        6.15781187       7.81850323       3.76156319       0.00142441       0.00185190      -0.00311595
C        4.94078712       9.97918757       3.74484559       0.00554160       0.01313114      -0.00402706
V        3.14000543       6.39949300       4.85991947       0.00708294      -0.00436290       0.00185525
O        3.48132598       7.59684484       5.92522867       0.00402039       0.00096670       0.00997160
O        2.48329418       5.07103550       6.02897498      -0.00087731      -0.00342911       0.00703265
H        2.47988602       5.38615443       6.95469309      -0.00057717      -0.01368860      -0.00415085
