52
Lattice="12.336457 0.0 0.0 -6.168228499999997 10.683685154694365 0.0 0.0 0.0 15.0" Properties=species:S:1:pos:R:3:initial_magmoms:R:1:forces:R:3 energy=-451.90505887046555 free_energy=-451.90505887046555 stress="-0.0009219460999157989 -0.00023849364456888204 1.7371123775436742e-05 -0.00023849364456888204 -0.005058864707233634 -4.358952538252233e-06 1.7371123775436742e-05 -4.358952538252233e-06 1.140586703376131e-05" pbc="T T T"
C        0.00997694      -0.01991628       3.81565845       0.00000000       0.00331895       0.00587099       0.00242471
C       -1.21861563       2.12234976       3.91535006       0.00000000       0.01012610      -0.00902499      -0.00042412
C       -2.45198610       4.25565431       3.95490285       0.00000000      -0.00337256       0.00166054      -0.00454623
C       -3.69314498       6.39142008       3.90474249       0.00000000       0.00186410       0.00640933      -0.00436099
C       -4.93009002       8.52034697       3.79535242       0.00000000       0.00259974       0.00277961      -0.00247341
C        2.47918525      -0.02592514       3.84888379       0.00000000      -0.00210297       0.00097434       0.00016981
C        1.24995188       2.10441409       3.88885008       0.00000000      -0.00061292      -0.00340535      -0.00112659
C        0.04339589       4.24122238       3.84734543       0.00000000       0.00267604      -0.00303616      -0.01149450
C       -1.21947820       6.38873072       3.73607335       0.00000000      -0.00293126       0.00550933       0.00342322
C       -2.44590912       8.51903444       3.78171109       0.00000000      -0.00745173      -0.01182797      -0.00565912
C        4.94846493      -0.02250969       3.79725749       0.00000000       0.00041429      -0.00066514       0.00303218
C        3.70652175       2.09882774       3.88172992       0.00000000      -0.01039537       0.00844928       0.00589627
O        2.47974619       4.13886554       3.74681344       0.00000000      -0.00028375      -0.00400468       0.00062369
S        1.12301256       6.33120027       2.43501410       0.00000000       0.01902394       0.00351344       0.00275324
C        0.00323817       8.54281176       3.52455416       0.00000000      -0.00247855       0.00340247      -0.00014171
C        7.41179488       0.00414202       3.69459781       0.00000000       0.00337461      -0.00303290      -0.00096366
C        6.17229052       2.12143195       3.89884023       0.00000000       0.00529439      -0.00753712       0.00212183
C        4.90939320       4.24073299       3.86223969       0.00000000       0.00020930       0.00119044      -0.01033592
S        3.90921252       6.35153266       2.35582866       0.00000000       0.01252223      -0.00457665      -0.00371376
C        2.48331523       8.59986886       3.25550285       0.00000000      -0.00698939       0.00492797       0.00162564
C        9.88212653       0.00608987       3.70309728       0.00000000      -0.00802052       0.00368825       0.00010127
C        8.64462516       2.12760826       3.90279408       0.00000000       0.00041860      -0.00518772      -0.00707744
C        7.40314062       4.25619986       3.95625341       0.00000000       0.00056338       0.00250512      -0.00231684
C        6.16661371       6.39582165       3.77740644       0.00000000       0.00498851      -0.00656588       0.00272386
C        4.95791951       8.54823978       3.53022155       0.00000000       0.00352726       0.00404429       0.00177507
C        0.00555909       1.40239522       3.88383366       0.00000000       0.01071657      -0.00087044       0.00381912
C       -1.21306699       3.54107808       3.93914832       0.00000000       0.00208112      -0.00855119       0.00743277
C       -2.45607851       5.67856741       3.90367837       0.00000000      -0.00378087       0.00789334       0.00185854
C       -3.68905393       7.80997115       3.83809058       0.00000000      -0.00747223      -0.00066802      -0.00296712
C       -4.92761679       9.94506168       3.81896984       0.00000000      -0.00024878       0.00381839       0.00365550
C        2.47845382       1.38380570       3.87774691       0.00000000      -0.00633175       0.00443224      -0.00327856
C        1.22996923       3.48544292       3.85031210       0.00000000       0.00046865      -0.00522866      -0.00192504
C       -0.01653141       5.65406829       3.60245795       0.00000000      -0.00576487       0.00260873      -0.00202396
C       -1.21333670       7.81305822       3.65810117       0.00000000      -0.00201561       0.00080710       0.00517726
C       -2.45001343       9.94426788       3.80703594       0.00000000      -0.00286038      -0.01087579       0.00643737
C        4.95065116       1.39967530       3.86656234       0.00000000      -0.00518754       0.00568958       0.00878605
C        3.72796252       3.48187068       3.86261698       0.00000000      -0.00185344       0.00474960       0.00696572
C        1.23555076       7.89769672       3.22392139       0.00000000      -0.00451739       0.00195747       0.00492464
C        0.01332362       9.96305762       3.67949711       0.00000000       0.00522992       0.00212311       0.00009020
C        7.41160636       1.41691349       3.84703251       0.00000000       0.00503520      -0.00802802       0.00491025
C        6.16652737       3.54002417       3.93342083       0.00000000       0.00322613      -0.00183627      -0.00087187
C        4.94387237       5.67023218       3.66422111       0.00000000      -0.01373598       0.00276810      -0.01194599
C        3.73857112       7.90387128       3.18385356       0.00000000      -0.00698194      -0.00233534      -0.00317898
C        2.48018083      10.00212960       3.55304920       0.00000000      -0.00461314       0.00026111       0.00766341
C        9.87875003       1.41773472       3.85810037       0.00000000       0.00173721      -0.00125523       0.00074381
C        8.64373462       3.54745726       3.96473115       0.00000000      -0.00391680      -0.00401708      -0.00505300
C        7.40233772       5.68188021       3.91981116       0.00000000       0.00748332       0.00091871      -0.00424274
C        6.17069394       7.81531334       3.68182350       0.00000000       0.00882735      -0.00563718       0.00647979
C        4.94536555       9.96618118       3.69281430       0.00000000      -0.00190075       0.01045852       0.00027601
V        2.59309222       6.08809690       4.53222273       0.00000000       0.00232347      -0.00228788       0.00395676
O        2.30989526       5.50859198       6.16454459       1.00000000      -0.01245743       0.00364655      -0.00214171
O        2.76585208       7.04598417       5.96797474       1.00000000       0.01022759       0.00339769      -0.00758471
