53
Lattice="12.336457 0.0 0.0 -6.168228499999997 10.683685154694365 0.0 0.0 0.0 15.0" Properties=species:S:1:pos:R:3:forces:R:3 energy=-459.8566065222852 free_energy=-459.8566065222852 stress="0.0011791356149219734 -0.00023077486813112425 9.603317760056607e-06 -0.00023077486813112425 -0.004499002253541263 3.059878189012517e-05 9.603317760056607e-06 3.059878189012517e-05 -2.3727914557754335e-05" pbc="T T T"
C        0.16635783       0.08784524       3.91875321      -0.00212639      -0.00029494      -0.01767257
C       -1.05853824       2.23489710       4.02264273      -0.00317178       0.00034420      -0.00044280
C       -2.28881816       4.37680228       3.96043880      -0.00174382      -0.00041805      -0.00624049
C       -3.52548079       6.50783965       3.82566757       0.00516140       0.00080775      -0.00003562
C       -4.77044536       8.63487756       3.76645470      -0.00350500      -0.00165669       0.00086287
C        2.64010260       0.08191962       3.96236163      -0.00050303       0.00182031       0.00595812
C        1.41086003       2.19088422       4.09851813      -0.01202118      -0.00525874       0.01177875
C        0.19800203       4.33329968       3.93014186      -0.00410601       0.01121718       0.00560177
C       -1.03960814       6.51524243       3.76042943       0.00621010       0.00170839      -0.00787034
C       -2.28869167       8.63802312       3.79215747       0.00740407       0.00071868      -0.00221194
C        5.10752221       0.10271135       3.89816385       0.00335762       0.00048229      -0.01414074
C        3.86379627       2.23053473       4.03647575       0.00797263      -0.00687573      -0.00380392
O        2.64199663       4.29243673       4.05537999      -0.00603571      -0.00873823       0.00233636
P        1.45431208       6.44289904       2.53939474      -0.00477725      -0.01467767      -0.01244851
C        0.17022499       8.68346783       3.53126527       0.00410809       0.00335894       0.00838171
C        7.56836178       0.13477535       3.79849822      -0.00203367       0.00094711       0.01562275
C        6.32708534       2.25253064       3.98801371       0.00560743       0.00516221      -0.00608714
C        5.06266703       4.37119185       3.81987555      -0.00113574      -0.00719302      -0.00064620
P        3.85493570       6.47943140       2.41123617      -0.00730273       0.00710872      -0.00998975
C        2.64063470       8.75357010       3.31196793       0.00322660       0.00547393       0.00554172
C       10.04187111       0.12662275       3.81314461       0.00486505      -0.00064169       0.00699344
C        8.80412668       2.25322595       3.97917428       0.00118503      -0.00274036       0.01699805
C        7.56091500       4.38155938       3.92198883      -0.00573122       0.00177210      -0.00312682
C        6.32558292       6.49794521       3.60599383       0.00399229      -0.00175579       0.00595446
C        5.11114357       8.67704192       3.50731010       0.00273199       0.00377098      -0.00531785
C        0.16603342       1.50481607       4.03802208      -0.00979379      -0.00524073      -0.00337993
C       -1.06158650       3.64865792       3.99345111      -0.00419932       0.00054323      -0.00870470
C       -2.27662114       5.80631721       3.87262994       0.00488351       0.00365385       0.01478364
C       -3.52732942       7.92832486       3.79571145       0.00277042       0.00004699       0.01239055
C       -4.76759882      10.05434563       3.88698424      -0.00202957       0.00117643      -0.00077150
C        2.64016425       1.49264709       4.05756417      -0.00326829       0.00299112       0.00898198
C        1.40280983       3.58782545       4.08200912      -0.00835504      -0.00125952      -0.00370090
C        0.22941536       5.77713399       3.71663373       0.00208833       0.00982207       0.00007453
C       -1.04947482       7.93292441       3.67152518       0.00848266       0.00121129      -0.00031172
C       -2.29066890      10.05870727       3.88501573       0.00214247       0.00133745      -0.01146364
C        5.10558825       1.52662792       3.98829838       0.01274427      -0.00298098      -0.00392707
C        3.87416181       3.61777099       3.97983532      -0.00061335      -0.00648732      -0.00355416
C        1.39925850       8.06832542       3.16841157      -0.00171548       0.00976679      -0.00741493
C        0.17008660      10.09532002       3.74862565       0.00176143      -0.00063714       0.01518579
C        7.56783088       1.54583445       3.94574893       0.00061302       0.00209443      -0.00624491
C        6.31343225       3.67342463       3.94790252      -0.00408833       0.00397724      -0.00259125
C        5.11349862       5.75720814       3.44765604       0.00013135      -0.00351225      -0.00248303
C        3.88027205       8.06170743       3.16108163      -0.00282759      -0.00153826      -0.00689498
C        2.63741395      10.12902095       3.66485591       0.00287807       0.00797114      -0.00079413
C       10.03811321       1.53638070       3.96387803       0.00289277      -0.00159635      -0.00748745
C        8.80343827       3.67485913       3.98082712      -0.00391525      -0.00287746      -0.00869852
C        7.56948498       5.79921555       3.80647404       0.00040806       0.00184859       0.01636839
C        6.33452570       7.93366719       3.59558282      -0.00370649      -0.00124456       0.00785368
C        5.10440374      10.08524456       3.76098122       0.00196916      -0.00170040      -0.00405085
V        1.51964875       5.36140129       5.46334324       0.02067699       0.01537181       0.01071395
O        2.62128618       6.54591216       5.71455300      -0.01935632      -0.02205031      -0.00759028
O        0.64789174       4.73840911       6.92621332       0.01335165       0.01799328       0.01737257
H        0.90418993       4.85478745       7.85620374      -0.01555414      -0.02312224      -0.00965646
