51
Lattice="12.336457 0.0 0.0 -6.168228499999997 10.683685154694365 0.0 0.0 0.0 15.0" Properties=species:S:1:pos:R:3:initial_magmoms:R:1:forces:R:3 energy=-443.2671607247323 free_energy=-443.2671607247323 stress="-0.0009472351132023676 5.584623761138351e-07 -1.7458280324543367e-07 5.584623761138351e-07 0.004413792424756482 -1.1868434085691334e-05 -1.7458280324543367e-07 -1.1868434085691334e-05 -1.6634958495450538e-05" pbc="T T T"
C        0.00168966       0.00026877       3.72900000       0.00000000       0.00626144      -0.00395008      -0.00329271
C       -1.24236630       2.12866679       3.73278097       0.00000000      -0.00337094      -0.00829797       0.00094367
C       -2.46767321       4.26987846       3.77401015       0.00000000       0.00338579      -0.00171409      -0.00162739
C       -3.69993093       6.40671175       3.77885867       0.00000000      -0.00021858       0.00247396      -0.00476973
C       -4.93722616       8.54816690       3.74923380       0.00000000       0.00428054      -0.00172535      -0.00152596
C        2.46762817       0.03697945       3.72135656       0.00000000       0.00449415      -0.00348104       0.00715402
C        1.20535612       2.12709604       3.69840557       0.00000000      -0.00040950       0.00853405       0.00250604
C       -0.04949607       4.27862265       3.72750895       0.00000000      -0.00876692       0.00313278       0.00052743
C       -1.23965660       6.40585500       3.74792185       0.00000000      -0.00542818       0.00075465       0.00539062
C       -2.46366858       8.54793398       3.73652865       0.00000000      -0.00104261      -0.00312556       0.00369640
C        4.93353291      -0.00012621       3.72568088       0.00000000       0.00168157      -0.00029361       0.00418299
C        3.73106179       2.12732474       3.71159720       0.00000000       0.00120764      -0.00162173      -0.00117424
O        1.14589352       6.42141630       3.53036202       0.00000000      -0.00776947       0.00219388       0.00866828
C        0.00670265       8.52079169       3.71434265       0.00000000      -0.00135383      -0.00121465       0.00377807
C        7.40960209      -0.03319819       3.72992798       0.00000000      -0.00099818       0.00310372      -0.00182121
C        6.17868460       2.12783107       3.74995052       0.00000000       0.00216534       0.00177885       0.00591408
C        4.98715601       4.27867279       3.77447032       0.00000000      -0.00270151       0.00483852      -0.00436090
O        3.79303710       6.42041210       3.56996570       0.00000000      -0.01162611      -0.00557191      -0.00015202
C        2.46780366       8.46159707       3.70775332       0.00000000       0.00678437       0.00119224       0.00402778
C        9.86285228      -0.03326474       3.72914577       0.00000000      -0.00340471       0.00823483       0.00442465
C        8.63659073       2.12282174       3.75638878       0.00000000      -0.00397756       0.00004182      -0.00230714
C        7.40378291       4.26989426       3.79513922       0.00000000       0.00646333      -0.00781222      -0.00446918
C        6.17647003       6.40640204       3.78644958       0.00000000       0.00319884      -0.00247094      -0.00164732
C        4.92903914       8.52094373       3.73399070       0.00000000       0.00464466       0.00080462      -0.00199311
C        0.00632807       1.43653991       3.71785930       0.00000000       0.00321408      -0.00223783       0.00262351
C       -1.24011990       3.55214480       3.75046805       0.00000000      -0.00130100      -0.00801357       0.00294348
C       -2.46727220       5.68828189       3.77348015       0.00000000      -0.00260563       0.00118305      -0.00070395
C       -3.70030986       7.83501599       3.75591645       0.00000000       0.00012177       0.00055283       0.00144648
C       -4.92767676       9.99065215       3.73080515       0.00000000       0.00694486      -0.00620388       0.00018773
C        2.46823438       1.49487333       3.70853285       0.00000000      -0.00065390       0.00069805       0.00051046
O        1.14624563       3.53507412       3.54341489       0.00000000      -0.00646700       0.01096951      -0.00105880
C       -0.04900118       5.67878830       3.72392857       0.00000000      -0.00714341       0.00262173       0.00474354
C       -1.24223833       7.82931313       3.73016334       0.00000000      -0.00316805      -0.00226948      -0.00588534
C       -2.47372431       9.99042242       3.72483236       0.00000000       0.00314552      -0.00396939       0.00300700
C        4.92946806       1.43620957       3.72786245       0.00000000       0.00426248       0.00044445       0.00161583
O        3.79173720       3.53745725       3.58282727       0.00000000      -0.00196540      -0.00024675      -0.01322699
C        1.20511228       7.82860809       3.69369185       0.00000000       0.00193210       0.00260844       0.00180352
C        0.00241218       9.95718531       3.72568907       0.00000000      -0.00057993       0.00043780      -0.00670194
C        7.39999193       1.40939023       3.74643030       0.00000000      -0.00076568       0.00105047       0.00211568
C        6.17675285       3.55113354       3.78367145       0.00000000      -0.00021385       0.00144292      -0.00334574
C        4.98656199       5.67877116       3.77378903       0.00000000      -0.00327458       0.00337525      -0.00255203
C        3.73089131       7.82916065       3.71195531       0.00000000       0.00424461      -0.00303769      -0.00178363
C        2.46792918       9.91993458       3.72401033       0.00000000       0.00083617       0.00503476      -0.00106840
C        9.87310800       1.40957361       3.73965578       0.00000000      -0.00818200       0.00375648       0.00046273
C        8.63620987       3.55143671       3.77827915       0.00000000       0.00699681      -0.00499432      -0.00233070
C        7.40385572       5.68852268       3.79638046       0.00000000       0.00466883      -0.00598488      -0.00469174
C        6.17803917       7.82951156       3.75580339       0.00000000       0.00580382      -0.00055665      -0.00224304
C        4.93325028       9.95715473       3.73159532       0.00000000      -0.00035394       0.00570457       0.00009291
V        2.46189483       4.97928159       4.05159450       0.00000000       0.00419226      -0.00438288      -0.01728930
O        2.36380698       5.05610682       7.00237026       1.00000000      -0.00019045       0.01182213       0.00132382
O        2.42784214       5.01847653       5.70752958       1.00000000      -0.00299807      -0.00560988       0.01793179
