52
Lattice="12.336457 0.0 0.0 -6.168228499999997 10.683685154694365 0.0 0.0 0.0 15.0" Properties=species:S:1:pos:R:3:forces:R:3 energy=-451.1418699720843 free_energy=-451.1418699720843 stress="0.003813615664550827 1.2539638437465858e-05 2.2016156059518048e-05 1.2539638437465858e-05 0.011714905760689252 -2.2225222193886616e-06 2.2016156059518048e-05 -2.2225222193886616e-06 1.0046562156790699e-05" pbc="T T T"
C       -0.00467809       0.01160318       3.77146188       0.00075440       0.00452811      -0.00001425
C       -1.24190659       2.13889458       3.71524890       0.00131357      -0.00260410      -0.00216997
C       -2.46650451       4.27100356       3.70312573      -0.00441284      -0.00288271      -0.00373652
C       -3.70241628       6.41034130       3.74872145       0.00499740       0.00516286      -0.00344463
C       -4.94285997       8.55768778       3.78496944       0.00095515      -0.00756156       0.00355724
C        2.45956274       0.06122666       3.78033186       0.00540307      -0.00001383      -0.00144448
C        1.19614484       2.20088174       3.72582843       0.00130919      -0.00128854       0.00654843
C       -0.01063362       4.27390432       3.61168223       0.00065269       0.00202180      -0.00294625
C       -1.22635770       6.39284595       3.67227454      -0.00455814      -0.00128429      -0.00399869
C       -2.46919816       8.55161960       3.74530807      -0.00278727      -0.00137536      -0.00281869
C        4.92495417       0.00566300       3.78911522       0.00476241      -0.00130903      -0.00253585
C        3.71031505       2.15792181       3.89482953      -0.00461422       0.00469303       0.00048968
O        1.17713271       6.38488691       3.65390274       0.00856332      -0.00223719      -0.00584003
C        0.00397690       8.50477331       3.73457641      -0.00400836       0.00090069       0.00418059
C        7.40281497      -0.04211828       3.77498127       0.00564026       0.00650373       0.00205014
C        6.17097508       2.12845728       3.82537739      -0.00324661      -0.00304422       0.00405488
C        4.97052014       4.26922794       4.03313776       0.00039936       0.00563664       0.00228481
O        3.72068326       6.38345943       4.02653612      -0.01517098      -0.00103598       0.01172138
C        2.45724421       8.43678792       3.80407296       0.00317352      -0.00396953      -0.00022199
C        9.85504587      -0.03810439       3.77664047      -0.01092151       0.00109153      -0.00343940
C        8.63083189       2.11929004       3.75542955       0.00590771       0.00172519      -0.00177208
C        7.40201117       4.26886224       3.79959010      -0.00016769       0.00251068      -0.00639122
C        6.17466848       6.41096650       3.87325540       0.00492970      -0.00982258       0.00205666
C        4.91297979       8.51146773       3.84453776       0.01074356       0.00390683      -0.00875754
C        0.00402640       1.45587924       3.73366354       0.00311240       0.00106830       0.00921384
C       -1.22613897       3.56800510       3.67181166      -0.00044713      -0.00027027      -0.00215255
C       -2.46676060       5.68995919       3.70346596      -0.00409685      -0.00168917      -0.00435278
C       -3.70587616       7.84116702       3.75749291       0.00093467      -0.00015752      -0.00229409
C       -4.93372806      10.00247391       3.77635642       0.00238447      -0.00355345       0.00443283
C        2.45755093       1.52386302       3.80028554      -0.00080605       0.00112837       0.00249555
O        1.17774117       3.57636112       3.65380753       0.00090316      -0.00440222      -0.00321232
C       -0.01080359       5.68675206       3.61153724       0.00114564       0.00296620       0.00050709
C       -1.24189026       7.82190574       3.71531806      -0.00682190      -0.00051192       0.00046413
C       -2.48223939       9.99870851       3.77339478       0.00554491      -0.00254523       0.00247285
C        4.91414259       1.44870750       3.83663696      -0.00680138      -0.00179953       0.00033213
O        3.72100274       3.57569425       4.02673203      -0.00757491      -0.00252274      -0.00193130
C        1.19594587       7.75996339       3.72794324       0.00052917      -0.00220057       0.00436090
C       -0.00487720       9.94868051       3.76948590       0.00695468       0.00401884       0.00015621
C        7.39385987       1.40283155       3.78057538       0.00614491       0.00418462       0.00883766
C        6.17504580       3.54977029       3.86957873       0.00031709       0.00122893       0.00156458
C        4.97046163       5.69024525       4.03557368      -0.00590014       0.00386913      -0.00270399
C        3.70927991       7.80162802       3.89973612       0.00730314       0.00279005       0.00118622
C        2.46009287       9.89945345       3.78272785      -0.00435399      -0.00304658      -0.00178174
C        9.86749333       1.40897511       3.74524143       0.00084101      -0.00025307       0.00094018
C        8.63461650       3.55016434       3.74783510      -0.00207892       0.00000428      -0.00447205
C        7.40146461       5.69171149       3.79982992       0.00733272       0.00116324       0.00343219
C        6.17016687       7.83244368       3.83203935       0.00653658      -0.01138438       0.00100460
C        4.92531711       9.95442989       3.79417064      -0.00631798       0.00986158      -0.00176482
V        3.46460842       4.97839624       5.58276847      -0.00623350       0.00693182      -0.00083897
O        4.36893634       4.97665892       6.94571630      -0.00267669      -0.00097042      -0.00417531
O        1.65657242       4.98393927       5.80949658       0.00212405      -0.00608465       0.01369619
H        1.27464142       5.02447952       6.70556093      -0.00761685       0.00192424      -0.01282944
