51
Lattice="12.336457 0.0 0.0 -6.168228499999997 10.683685154694365 0.0 0.0 0.0 15.0" Properties=species:S:1:pos:R:3:initial_magmoms:R:1:forces:R:3 energy=-448.9985266634294 free_energy=-448.9985266634294 stress="-0.0038327648831559358 -0.003843311767382419 3.2386837858076823e-06 -0.003843311767382419 -0.0023542121042707583 8.215281216423415e-06 3.2386837858076823e-06 8.215281216423415e-06 -9.389950548858527e-06" pbc="T T T"
C       -0.27921719       0.21581327       3.75767346       0.00000000      -0.00347974       0.00607810      -0.00277310
C       -1.53187217       2.33526978       3.77348393       0.00000000      -0.00285296      -0.00421838      -0.00441392
C       -2.74164090       4.47852449       3.78228406       0.00000000      -0.00551499      -0.00496212       0.00172222
C       -3.94490415       6.62698768       3.75103972       0.00000000      -0.00020649       0.00333628      -0.00373431
C       -5.18876626       8.77401838       3.75507018       0.00000000       0.00350389      -0.00025320       0.00411681
C        2.19103480       0.21811687       3.80856015       0.00000000      -0.00377901      -0.00282323      -0.01288946
C        0.91824859       2.35988910       3.79510358       0.00000000       0.01190269      -0.00002791      -0.00675452
C       -0.29701614       4.43049050       3.89412461       0.00000000      -0.00276375      -0.00259666      -0.00059189
C       -1.47950348       6.60457878       3.87492628       0.00000000      -0.00945608      -0.00320571       0.00131480
C       -2.72128028       8.75823962       3.83591312       0.00000000      -0.00490585       0.00253392      -0.00251977
C        4.65635752       0.22552774       3.76819251       0.00000000      -0.00033254      -0.00719293      -0.00696663
C        3.38018104       2.34529576       3.53644558       0.00000000       0.00381104       0.00539896      -0.00885882
B        1.06979854       6.53830260       3.95790452       0.00000000       0.01232534       0.00398695      -0.00609021
C       -0.25977982       8.75490932       3.84989192       0.00000000      -0.00441587      -0.01004004      -0.00519366
C        7.12027634       0.21833062       3.71715592       0.00000000       0.00784401       0.00617844       0.00796381
C        5.87459335       2.36378292       3.57355303       0.00000000      -0.00070060       0.00968133       0.00235418
C        4.72896088       4.54098618       3.28451126       0.00000000      -0.00163520       0.00966948       0.00841478
C        3.48443800       6.64659036       3.60163673       0.00000000      -0.00520591       0.00060510       0.00246437
C        2.19751919       8.77295023       3.77242575       0.00000000       0.00789398      -0.00134972      -0.00772732
C        9.58583045       0.21103883       3.70414795       0.00000000       0.00588848       0.00229313       0.00586589
C        8.34626750       2.34970839       3.69237984       0.00000000      -0.00061160       0.00381644      -0.00382352
C        7.14392544       4.49663707       3.62502108       0.00000000       0.00230008       0.00050360       0.01004493
C        5.95024371       6.66009235       3.56672665       0.00000000       0.00131018      -0.00415845      -0.00852739
C        4.67469307       8.77305666       3.68649849       0.00000000      -0.00023303      -0.00480272      -0.00565475
C       -0.29676488       1.63867141       3.78441879       0.00000000       0.00472639       0.00447919       0.00182619
C       -1.52678791       3.74243723       3.82072979       0.00000000      -0.00475608      -0.00570952       0.00366808
C       -2.72140332       5.90439216       3.80804958       0.00000000      -0.00779906      -0.00291320       0.00697867
C       -3.95387979       8.05363560       3.78645235       0.00000000       0.00218817       0.00164107       0.00435818
C       -5.20556357      10.19467823       3.79187397       0.00000000      -0.00516033      -0.00003057      -0.00757906
C        2.16095030       1.65457405       3.73384099       0.00000000       0.00893077      -0.00125110      -0.00362008
N        0.88604226       3.72919450       3.90647489       0.00000000      -0.00029615      -0.00573124      -0.00694023
C       -0.26177617       5.84773898       3.92046097       0.00000000       0.00064800       0.00265785       0.00690698
C       -1.48644988       8.03670734       3.86508911       0.00000000      -0.01343244      -0.00290866       0.00541897
C       -2.73807034      10.18957177       3.81661997       0.00000000      -0.00476990      -0.00160088      -0.00013427
C        4.63972623       1.65682880       3.63700779       0.00000000       0.00213214       0.00173711      -0.00448276
S        3.40931950       3.72744058       2.38173211       0.00000000      -0.00846218      -0.00314009      -0.00265588
C        0.98695309       8.05772215       3.85856419       0.00000000       0.00468242       0.00410909      -0.00091744
C       -0.27556161      10.18981886       3.78145927       0.00000000       0.00491833      -0.00727696       0.00162046
C        7.10694883       1.64652919       3.66102827       0.00000000       0.00127686       0.01028869       0.00536493
C        5.91078297       3.78162313       3.50141175       0.00000000       0.00042241       0.00926800       0.00450378
C        4.72257060       5.96745456       3.43444954       0.00000000      -0.00333792       0.00074324       0.01293968
C        3.43263692       8.05740421       3.69463613       0.00000000       0.00208686      -0.01034796       0.00017767
C        2.18755612      10.19354379       3.72329417       0.00000000       0.01138950       0.00139211       0.00605853
C        9.57620679       1.62849963       3.71984654       0.00000000      -0.00332436       0.00140969      -0.00203986
C        8.36001994       3.77235519       3.70620264       0.00000000      -0.00128598      -0.00181794      -0.00529052
C        7.16347316       5.92507367       3.64099933       0.00000000       0.00208121      -0.00098294       0.00201268
C        5.91704343       8.07435896       3.66712869       0.00000000       0.00275448      -0.00276137       0.00174120
C        4.65691310      10.18781085       3.71719738       0.00000000       0.00016451       0.00022684       0.00456683
W        2.56603984       4.92109575       4.13837051       0.00000000      -0.00106479       0.00397551      -0.00141002
O        9.57183725      -0.97137652       6.50999041       1.00000000       0.00556410      -0.01515835       0.00610423
O        8.81503277      -0.00655991       6.57238886       1.00000000      -0.01096302       0.01125172       0.00308056
