52
Lattice="12.336457 0.0 0.0 -6.168228499999997 10.683685154694365 0.0 0.0 0.0 15.0" Properties=species:S:1:pos:R:3:forces:R:3 energy=-449.76774394272877 free_energy=-449.76774394272877 stress="-0.0028370887734823305 0.0009832488221083865 5.804496804632713e-05 0.0009832488221083865 0.0015112335707208326 -2.842800924181015e-05 5.804496804632713e-05 -2.842800924181015e-05 -2.456067009370972e-05" pbc="T T T"
C        0.01018065      -0.00561384       3.69678165       0.00273214       0.00403603       0.00065100
C       -1.22872748       2.12569022       3.62368056       0.00524164       0.00050520       0.00263941
C       -2.45297406       4.26771801       3.64290735      -0.00253934      -0.00001457       0.01093515
C       -3.68989244       6.40292826       3.68989495      -0.00348237      -0.00579483       0.00335606
C       -4.92938396       8.54371285       3.74192758      -0.00258400       0.00201894      -0.00377924
C        2.47077274       0.03152732       3.73037070       0.00555969       0.00146081       0.00565211
C        1.22555310       2.11021156       3.67574188       0.00326767      -0.00133229       0.00754943
C       -0.02242318       4.26642733       3.74842408      -0.00234200       0.00582241       0.00583792
C       -1.23032955       6.40565297       3.73612269      -0.00564542      -0.00209403      -0.00464760
C       -2.46256337       8.54877747       3.70340953       0.00199828      -0.00563844       0.00059266
C        4.93513505       0.00874072       3.69907139      -0.00274172      -0.00028938       0.00211601
C        3.73209271       2.18617518       3.85526664      -0.00503897       0.01000762       0.00489290
O        1.18925310       6.43224699       3.66845585      -0.00390708       0.01868326       0.00372051
C       -0.00259104       8.53304115       3.70928134       0.00355912      -0.00683166       0.00188568
C        7.40826580      -0.02224427       3.66261164      -0.00160233      -0.00444792       0.01032185
C        6.18813171       2.11773251       3.68288403      -0.00106411      -0.00414848       0.00417259
C        4.98328320       4.20915268       3.91648633       0.00602829       0.00221731       0.00851790
B        3.75122463       6.37950449       4.18856410       0.00147308      -0.00410968      -0.00078605
C        2.44970086       8.51472605       3.80533493       0.00857012      -0.00416968      -0.01098004
C        9.87352155      -0.02200686       3.67847199      -0.00291684       0.00414882       0.00043523
C        8.64811261       2.12034153       3.61390368       0.00618562       0.00588908       0.00185304
C        7.42424854       4.25727673       3.67130693       0.00155521      -0.00687159       0.00733267
C        6.19120193       6.38894319       3.82644374       0.00063805      -0.00615886      -0.00041805
C        4.93924571       8.53155765       3.82353327      -0.00300847       0.00287196       0.00314697
C        0.01232206       1.42637493       3.64921693       0.00583128      -0.00076159      -0.00225832
C       -1.22471249       3.54836465       3.65789481      -0.00154948       0.00216423      -0.00492495
C       -2.45590734       5.68657835       3.67932196      -0.00447096      -0.00339660       0.00421873
C       -3.69712718       7.83209968       3.71119928      -0.00163977      -0.00527499      -0.00119592
C       -4.92362992       9.98101747       3.72448435       0.00616581       0.00395876      -0.01183548
C        2.46774798       1.48264062       3.76387180       0.00394779       0.00057758      -0.00786384
O        1.18178648       3.52630218       3.51180301      -0.00111348      -0.00776416       0.00025621
C       -0.03181544       5.67377005       3.81851797      -0.00158778       0.01007666      -0.00951548
C       -1.24066805       7.83137174       3.71013292       0.00263380      -0.00471902      -0.00536845
C       -2.46936177       9.98708074       3.71440787       0.00171614      -0.00284988      -0.00527344
C        4.93937441       1.43884891       3.73189673      -0.00957463       0.00537709      -0.00636861
N        3.80245864       3.54206105       4.07630803       0.00090737       0.00932384       0.00318838
C        1.21501337       7.85212024       3.76713509       0.00628948       0.00455123       0.00021812
C        0.00273115       9.96446249       3.68472421      -0.00348810      -0.00845671       0.00296844
C        7.41641620       1.40534580       3.63543430       0.00563476      -0.00087098      -0.00635328
C        6.20278921       3.52406212       3.72326792       0.00216399      -0.00378181       0.00578762
C        4.99374747       5.62889946       3.97750525       0.00042313      -0.00114549      -0.00210382
C        3.69866533       7.83609485       3.93013844       0.00297198      -0.00723140      -0.00197700
C        2.46496290       9.94861769       3.70463627       0.00044388      -0.00573027      -0.01406123
C        9.88469156       1.40919072       3.62456719       0.00455521       0.00806132      -0.00701611
C        8.65343989       3.54659385       3.62165810       0.00293782       0.00257439       0.00150718
C        7.42439904       5.68367811       3.71504122      -0.00350525      -0.00967195       0.00138882
C        6.17615802       7.82009867       3.80608573      -0.00576855      -0.00180033      -0.00448250
C        4.94407980       9.95987699       3.72409060      -0.00373749       0.00847136      -0.00004144
W        2.27002146       4.95831127       4.75853169       0.00642636      -0.01245737      -0.01013102
O        2.23780912       5.04463247       6.49342617       0.00029509       0.00145428       0.00768305
O        1.84794617       4.96597914       8.18485872      -0.01476635       0.00547412       0.00286058
H        2.80168551       5.01726884       8.43300200      -0.01207830       0.00808768       0.00569567
