52
Lattice="12.336457 0.0 0.0 -6.168228499999997 10.683685154694365 0.0 0.0 0.0 15.0" Properties=species:S:1:pos:R:3:forces:R:3 energy=-451.79570268981604 free_energy=-451.79570268981604 stress="-0.005112896927598411 -0.0033327061003872592 1.612017224592579e-05 -0.0033327061003872592 -0.004084507560957014 3.1803326307211662e-06 1.612017224592579e-05 3.1803326307211662e-06 -1.6545494514535452e-05" pbc="T T T"
C       -0.02726109      -0.04843724       3.75160670      -0.00532189       0.00147716       0.00241192
C       -1.28037498       2.07364572       3.73898738       0.00087353      -0.00389361      -0.00261794
C       -2.49595198       4.21728171       3.73182953       0.00279461       0.00082637      -0.00223861
C       -3.69940470       6.36305723       3.72460601      -0.00169088       0.01051102       0.00001387
C       -4.93983126       8.50852864       3.74866960      -0.00008339       0.00204131      -0.00260430
C        2.44048687      -0.04721024       3.76799278       0.00192626       0.00224102       0.00101093
C        1.17046468       2.10232323       3.81494600       0.00950248      -0.00094351       0.00314464
C       -0.05614632       4.16320624       3.94565025       0.00765387      -0.00363049      -0.00687147
C       -1.23928529       6.34177925       3.90440398      -0.00799852      -0.00435308      -0.00424882
C       -2.47572273       8.49347970       3.81626309       0.00243590       0.00296252       0.00654544
C        4.90510475      -0.04611536       3.70828589       0.00503755      -0.00046583      -0.00337161
C        3.63874993       2.03423290       3.41189628      -0.00178177       0.00990501       0.00039784
B        1.25927996       6.32908491       4.18466815       0.00452513       0.00337081       0.00146216
C       -0.02015123       8.50229325       3.90242038      -0.00135020       0.00076624       0.00196266
C        7.36789612      -0.04121010       3.72728474       0.00456324      -0.00028452      -0.01082305
C        6.12636685       2.09784155       3.50453892      -0.00854305      -0.00697901       0.00280545
C        4.96851628       4.28601209       3.37431761      -0.00109433      -0.00847524      -0.01235600
C        3.72924492       6.36693686       3.80389776       0.00519179       0.00150176      -0.01004661
C        2.44880457       8.51177511       3.88253559       0.00171488       0.00363647      -0.00991451
C        9.83724375      -0.04935000       3.73189037      -0.00511223      -0.00558604      -0.00291341
C        8.59695401       2.08892647       3.64048638      -0.00138845      -0.00326232       0.00267659
C        7.39090804       4.23556456       3.57752176      -0.00155752       0.00154021       0.01238894
C        6.19195620       6.39429404       3.61210823       0.00187037      -0.00103521       0.00784353
C        4.92241966       8.50481457       3.74430973       0.00403515       0.00348422      -0.00012576
C       -0.04370407       1.37560497       3.76365701       0.00465265       0.00098266      -0.00223974
C       -1.28222887       3.48048232       3.78310525       0.00491863      -0.00316920      -0.00050247
C       -2.47875380       5.64130191       3.78400223      -0.00759282       0.00256436      -0.00532873
C       -3.70707410       7.78820904       3.76732990       0.00133119       0.00796967      -0.00038247
C       -4.95601768       9.92789035       3.77434951      -0.00406826       0.00239703       0.00390590
C        2.41849960       1.38780851       3.69703875       0.00642219       0.00384210       0.00780256
N        1.11237559       3.45334895       4.05188971       0.00836271      -0.00413334       0.00500772
C       -0.03119786       5.58489932       4.02191546      -0.00443367      -0.00191686       0.00072548
C       -1.24351706       7.77570746       3.88708708      -0.00297994      -0.00356814      -0.00353146
C       -2.48985217       9.92390932       3.77233902       0.00469788       0.00190389      -0.00382587
C        4.89453999       1.38078579       3.53213538      -0.00745905      -0.00060593       0.00263508
S        3.55823141       3.59734628       2.63397633      -0.01235818      -0.00261730      -0.00039263
C        1.22420353       7.82042072       3.99507240       0.00081234       0.00631058      -0.00065280
C       -0.02895389       9.92946410       3.78117457       0.00681668       0.00245557       0.00667857
C        7.35668478       1.38429959       3.61725618      -0.00380001      -0.00220016      -0.00281631
C        6.15159531       3.52105243       3.47054475      -0.00253648      -0.00730095      -0.00482555
C        4.95239421       5.69490551       3.57147940       0.00368834      -0.00695818       0.00435569
C        3.68109319       7.78079868       3.82067484       0.00696732       0.00529167       0.00962645
C        2.43808023       9.93325030       3.77873723      -0.00060034      -0.00065342      -0.00342126
C        9.82687077       1.36998570       3.69390799      -0.00173134      -0.00775881       0.00756323
C        8.60798407       3.51210411       3.63963081       0.00160835       0.00068911      -0.00228893
C        7.40640476       5.66058565       3.62418226       0.00371277       0.00698643      -0.01056982
C        6.16535535       7.80740055       3.70074887       0.00177513      -0.00038344       0.00208870
C        4.90853281       9.92227922       3.74527507      -0.00491424       0.00167493      -0.00505506
W        2.64447076       4.80902351       4.69847665      -0.00594014       0.00078267       0.01891731
O        3.06731334       5.33588156       6.31990656      -0.00631032      -0.01149822      -0.00216199
O        3.40921264       5.94569026       7.87826992       0.00326015       0.00556913      -0.00065789
H        3.78713204       5.09207071       8.19006003      -0.01050406      -0.00201110       0.00481440
