51
Lattice="12.336457 0.0 0.0 -6.168228499999997 10.683685154694365 0.0 0.0 0.0 15.0" Properties=species:S:1:pos:R:3:initial_magmoms:R:1:forces:R:3 energy=-445.5967163732238 free_energy=-445.5967163732238 stress="0.0010727589382710074 0.0021008147530483627 2.3101001249454656e-05 0.0021008147530483627 0.0021747712818464427 -4.370060503653411e-06 2.3101001249454656e-05 -4.370060503653411e-06 2.960856068887482e-05" pbc="T T T"
C       -0.13032136      -0.14911764       3.81888504       0.00000000      -0.00124656      -0.01019593       0.00286489
C       -1.37080964       1.95893239       3.78997711       0.00000000      -0.00468471       0.00174911      -0.00059359
C       -2.62035549       4.10957929       3.74135651       0.00000000       0.00234413       0.00289201       0.00216792
C       -3.85039938       6.24387249       3.75078775       0.00000000       0.00358413      -0.00134223      -0.00935289
C       -5.08547373       8.38338976       3.80727209       0.00000000      -0.01003226       0.00086577      -0.02619586
C        2.32496587      -0.11404319       3.84543004       0.00000000       0.00271522       0.00003903      -0.00951040
C        1.09548683       2.04328955       4.00272179       0.00000000      -0.00094997      -0.00691384      -0.00110228
C       -0.20570655       4.05090290       4.07954178       0.00000000      -0.00322781      -0.00106185      -0.00196342
C       -1.36219968       6.23859627       3.88040165       0.00000000      -0.00441472       0.00142815      -0.01667742
C       -2.60962899       8.38812667       3.81295947       0.00000000      -0.00680880       0.00047681      -0.00913326
C        4.78432653      -0.16421273       3.74887983       0.00000000      -0.00038491       0.00889399       0.00231529
C        3.60312331       1.96842874       3.73595691       0.00000000       0.00072019       0.00833156       0.01842234
O        1.05381324       7.04351608       2.05123264       0.00000000       0.02583608      -0.00961425       0.02115007
C       -0.16307637       8.39502053       3.62373995       0.00000000       0.00994391      -0.00450976       0.00313049
C        7.26647152      -0.17257852       3.60545159       0.00000000      -0.00539816      -0.00389752      -0.00669319
C        6.03893965       1.95759128       3.61542979       0.00000000      -0.00013856      -0.00420013       0.00128166
C        4.81754520       4.04380762       3.59357919       0.00000000      -0.00761208      -0.00220318       0.00966079
B        3.45191425       6.16775199       3.88428252       0.00000000       0.00183307       0.00953107       0.02739449
C        2.33616315       8.38790625       3.56492860       0.00000000       0.00075993      -0.00120155       0.00397146
C        9.74197509      -0.16805112       3.67726247       0.00000000      -0.00330981      -0.00072274       0.01361351
C        8.50364993       1.96784955       3.63303187       0.00000000      -0.00454845      -0.00293779       0.01390534
C        7.26114457       4.10799523       3.62689287       0.00000000       0.00663807      -0.00642326       0.00062401
C        5.99366245       6.21877430       3.69787674       0.00000000       0.00551599       0.00481007      -0.00866625
C        4.78495771       8.37266962       3.73440707       0.00000000      -0.00016698       0.00656515       0.00832321
C       -0.12075832       1.28261389       3.86855386       0.00000000      -0.00274194       0.00328730      -0.00885433
C       -1.39847502       3.37180419       3.82777722       0.00000000      -0.00662567       0.00022176       0.00077357
C       -2.62120793       5.53114072       3.78564645       0.00000000       0.00195713       0.00230456      -0.01385935
C       -3.85179309       7.67433779       3.80185641       0.00000000      -0.00913465      -0.00090814      -0.01370857
C       -5.07139342       9.82289761       3.84015517       0.00000000      -0.00141118      -0.00709992      -0.01359802
C        2.34583754       1.33220070       3.87529356       0.00000000       0.00644033      -0.00331615       0.01399364
N        1.01014249       3.41240493       4.24203810       0.00000000      -0.00828119      -0.00703610       0.00254929
C       -0.20115860       5.48776770       4.11254364       0.00000000      -0.00703442      -0.00993448       0.00080414
C       -1.36864122       7.68318027       3.78079203       0.00000000      -0.00045753      -0.00097895      -0.01078394
C       -2.61666532       9.82649335       3.80779109       0.00000000      -0.00124823       0.00798235      -0.00268183
C        4.80201391       1.25907510       3.70506323       0.00000000       0.00256200       0.00556485      -0.00682697
O        3.64994382       3.31954577       3.52815536       0.00000000      -0.00645897       0.00360609       0.01637595
C        1.08022584       7.76587980       3.05685788       0.00000000       0.01537665       0.01189031      -0.01333669
C       -0.14465838       9.79945112       3.66322415       0.00000000      -0.00206424       0.00026443      -0.00743913
C        7.26711948       1.25182699       3.61121121       0.00000000      -0.00639768      -0.00239367      -0.00499715
C        6.04218716       3.36935260       3.58317319       0.00000000       0.00386590      -0.00341813       0.00232685
C        4.76738501       5.45240660       3.68742165       0.00000000       0.00191840       0.00391930      -0.00495177
C        3.53030457       7.67324736       3.67793258       0.00000000       0.00074757       0.01002955       0.01383152
C        2.33221205       9.81143027       3.60832663       0.00000000       0.00597379       0.00014058       0.00326422
C        9.73743021       1.25441696       3.68671661       0.00000000      -0.01004123      -0.01053428       0.00638263
C        8.49325937       3.39419025       3.65217378       0.00000000       0.00851374      -0.00283226      -0.00240549
C        7.24509248       5.52643142       3.68365114       0.00000000       0.00304052       0.00398189       0.00185082
C        6.00887091       7.65288182       3.75896896       0.00000000      -0.00896027       0.00396483      -0.00267039
C        4.80033585       9.80731735       3.74030619       0.00000000       0.00915876       0.00659574       0.00152983
W        1.73994013       5.31613209       4.88403016       0.00000000      -0.00278461      -0.01371413       0.01756025
O        5.12832846       9.16481196       6.58261861       1.00000000      -0.03280754       0.02865652       0.00643909
O        6.32284044       8.88881152       6.61780650       1.00000000       0.03992757      -0.02060252      -0.02050510
