52
Lattice="12.336457 0.0 0.0 -6.168228499999997 10.683685154694365 0.0 0.0 0.0 15.0" Properties=species:S:1:pos:R:3:initial_magmoms:R:1:forces:R:3 energy=-455.03330850655044 free_energy=-455.03330850655044 stress="-0.006106427044522051 -0.0002486016974873841 8.63262059332497e-06 -0.0002486016974873841 -0.003643536366276411 4.455346482383264e-05 8.63262059332497e-06 4.455346482383264e-05 -1.074679335106861e-05" pbc="T T T"
C        0.10253555       0.14254350       3.61185840       0.00000000       0.00461451      -0.00214679      -0.02281127
C       -1.13771658       2.26616206       3.68121972       0.00000000      -0.00376719       0.00040959      -0.00974513
C       -2.37414674       4.41136785       3.80394565       0.00000000      -0.00648583       0.01164877      -0.02956626
C       -3.58854177       6.55876385       3.72873523       0.00000000       0.00111974       0.00035705      -0.01372846
C       -4.81319986       8.70212635       3.60086394       0.00000000      -0.00315324       0.01783672       0.00235078
C        2.57382928       0.15628361       3.69116385       0.00000000       0.01665381       0.01018907       0.00603750
C        1.32535628       2.28441009       3.63955933       0.00000000      -0.01378324      -0.01068874       0.00003204
C        0.05301666       4.38590988       3.94488179       0.00000000      -0.00158113       0.00144990      -0.01200962
C       -1.15521582       6.54888351       4.13521214       0.00000000       0.00634122       0.00919928       0.00628598
C       -2.36198682       8.69799142       3.90394811       0.00000000       0.00024102      -0.01187106      -0.02305441
C        5.03571316       0.15359909       3.83123529       0.00000000       0.01093165      -0.00440776      -0.00206761
C        3.81671288       2.28543008       3.62934708       0.00000000      -0.01065970       0.01917908       0.02100229
B        2.56982504       4.48670638       3.72289975       0.00000000      -0.01573502      -0.00155870       0.02476045
P        1.52326311       6.44001503       4.95431915       0.00000000      -0.00261686      -0.00503771      -0.02820932
C        0.08433160       8.71896319       4.15454605       0.00000000       0.01162913      -0.01478532      -0.00506245
C        7.50159451       0.15050417       3.86084041       0.00000000      -0.00203382      -0.00239609      -0.01511525
C        6.28855019       2.26905210       3.65111900       0.00000000      -0.00078360      -0.00829298      -0.00807809
C        5.10924565       4.36667880       3.29166805       0.00000000       0.01061966      -0.00927076      -0.00328493
P        3.54450275       6.51282447       2.40901015       0.00000000      -0.00601349       0.00989639       0.00524854
C        2.55589667       8.72667518       3.96862849       0.00000000       0.00132468      -0.00299176      -0.01460690
C        9.97601059       0.14004915       3.70712272       0.00000000      -0.00463618       0.00113994       0.01077748
C        8.74327936       2.27314191       3.70254563       0.00000000       0.00207174       0.00359032       0.00305040
C        7.53144881       4.41563868       3.55803698       0.00000000      -0.01368091      -0.00637475       0.00703493
C        6.32020608       6.56776323       3.30683076       0.00000000       0.00201154      -0.00458498       0.00184895
C        5.05140702       8.67862913       3.57530448       0.00000000       0.00915057       0.01050362      -0.02132126
C        0.09538911       1.56000478       3.62875103       0.00000000      -0.01050919      -0.01157280      -0.00461606
C       -1.16097225       3.68309550       3.80287973       0.00000000      -0.00649833       0.00545395       0.00003243
C       -2.37580498       5.84027355       3.89583387       0.00000000       0.00421445       0.01272233       0.00210320
C       -3.58834000       7.98818239       3.74176593       0.00000000      -0.01316320       0.00083216       0.01240372
C       -4.82477616      10.12152933       3.63163758       0.00000000       0.01383673       0.01594218       0.02205200
C        2.57320033       1.57954323       3.64327632       0.00000000      -0.00637520       0.01325254       0.01387478
C        1.27916059       3.69776856       3.73436891       0.00000000      -0.00317291      -0.00985459      -0.00913353
C        0.01779033       5.77008004       4.29545247       0.00000000      -0.00174880       0.00438056      -0.00234665
C       -1.14220017       7.98728339       4.11209854       0.00000000       0.00553510      -0.00055565       0.00556264
C       -2.36571061      10.12501956       3.81306054       0.00000000       0.01073067      -0.00621409       0.01885346
C        5.04512541       1.56854194       3.69851486       0.00000000      -0.00817436       0.00738982       0.01282385
C        3.86448975       3.71544259       3.54857806       0.00000000      -0.00025284       0.01114792       0.01217894
C        1.35265058       8.08329029       4.30522462       0.00000000       0.00834307      -0.01547264      -0.00369148
C        0.09511820      10.13137065       3.95272510       0.00000000       0.00718421      -0.01093536       0.00808781
C        7.51085631       1.56280097       3.74093714       0.00000000       0.00824485      -0.00520326      -0.01224261
C        6.32185807       3.68053083       3.47531860       0.00000000      -0.00972904      -0.00983815       0.02853831
C        5.14098447       5.79818095       2.97089480       0.00000000       0.00643989      -0.00851805      -0.00599117
C        3.77948865       7.95183458       3.68066958       0.00000000       0.00616930       0.01131994      -0.00125889
C        2.57137393      10.13138407       3.84418336       0.00000000      -0.00451554       0.00021187       0.01870090
C        9.97268579       1.55775738       3.68694074       0.00000000       0.00028600       0.00023956       0.00736908
C        8.74445480       3.69817353       3.68810981       0.00000000      -0.00693203       0.00507354      -0.00638017
C        7.53230614       5.84683941       3.52159470       0.00000000      -0.00392596      -0.00568395       0.00621160
C        6.28323182       7.98733900       3.45658419       0.00000000       0.00623203       0.00439952      -0.00543991
C        5.04044760      10.10327742       3.63600378       0.00000000       0.00361208       0.00707978      -0.01095637
W        3.82401030       5.95725794       4.60542186       0.00000000       0.02104398      -0.00588642      -0.02055994
O        0.00585939       2.57842681       6.49807693       1.00000000       0.01796220      -0.03925554       0.02164360
O        0.84311544       1.67991618       6.46514741       1.00000000      -0.03661623       0.01855251       0.01241207
