51
Lattice="12.336457 0.0 0.0 -6.168228499999997 10.683685154694365 0.0 0.0 0.0 15.0" Properties=species:S:1:pos:R:3:initial_magmoms:R:1:forces:R:3 energy=-449.5360402781397 free_energy=-449.5360402781397 stress="0.0001695429972419934 -0.0013523093482103296 -3.103647031568444e-06 -0.0013523093482103296 0.005178368883873733 -2.1977381766848247e-05 -3.103647031568444e-06 -2.1977381766848247e-05 1.7683057734652915e-05" pbc="T T T"
C        0.04208453      -0.00625003       3.64417792       0.00000000      -0.00543312      -0.00163785      -0.00136543
C       -1.21203923       2.11192969       3.58283414       0.00000000       0.00715590      -0.00457623      -0.00184045
C       -2.44422241       4.26074943       3.55897189       0.00000000       0.00921243      -0.00449201       0.00922096
C       -3.66532667       6.40640039       3.57649744       0.00000000      -0.00025034       0.00117599      -0.00849720
C       -4.88836210       8.55089324       3.62131882       0.00000000      -0.00507990       0.00201187       0.00785803
C        2.50745371       0.05371055       3.65778048       0.00000000      -0.00202283       0.00213398       0.00022282
C        1.22994835       2.15252711       3.61611375       0.00000000       0.00122356      -0.00483661      -0.00767722
C       -0.00146432       4.20284611       3.64180503       0.00000000      -0.00074795       0.00137642      -0.00282511
C       -1.19809965       6.37844710       3.70784387       0.00000000      -0.00296305      -0.00625822      -0.00787890
C       -2.42542570       8.54491866       3.66248266       0.00000000      -0.00155161       0.00243639       0.00044666
C        4.96253546       0.00511889       3.69979306       0.00000000       0.00105328       0.00431242       0.00109315
C        3.76472025       2.16150263       3.74055216       0.00000000      -0.00012960       0.00073415      -0.00966417
B        1.14598818       6.40497759       4.31833740       0.00000000       0.00894501      -0.00825730       0.00335498
C        0.03336510       8.53734509       3.83656639       0.00000000      -0.00083183       0.00314251       0.00116812
C        7.44009573      -0.02257696       3.73494026       0.00000000       0.00531996       0.00144788       0.00411612
C        6.20084421       2.13151248       3.66864787       0.00000000      -0.00570555      -0.00765805      -0.00072303
C        4.99836507       4.25827440       3.81855623       0.00000000       0.00462071      -0.00435358       0.01145571
N        3.84642523       6.41700443       4.17983295       0.00000000      -0.00276676       0.00253780      -0.01231255
C        2.52354126       8.50785363       3.95105421       0.00000000      -0.00121364       0.00103680      -0.00147686
C        9.90381110      -0.02960070       3.70025029       0.00000000       0.00012509       0.00321402       0.00716311
C        8.66483890       2.11834104       3.60886452       0.00000000      -0.00447233       0.00832458      -0.00277000
C        7.43047695       4.27077018       3.59475364       0.00000000      -0.00179963       0.00169355       0.00300090
C        6.20472546       6.40108574       3.66426273       0.00000000       0.00312956      -0.00267610       0.00356688
C        4.98334267       8.52081881       3.75181794       0.00000000       0.00161171      -0.00172793       0.00146216
C        0.03721505       1.42463518       3.61316851       0.00000000       0.00378998      -0.00403309       0.00061332
C       -1.21996104       3.52654798       3.56347253       0.00000000       0.00670120      -0.00584935      -0.00484891
C       -2.43801755       5.68440113       3.58681196       0.00000000      -0.00246410      -0.00791020      -0.00240189
C       -3.65729512       7.83438107       3.60880379       0.00000000      -0.00405076       0.00529934      -0.00407393
C       -4.88425941       9.99042878       3.63845620       0.00000000      -0.00552220       0.00374338       0.00444747
C        2.50379066       1.50887670       3.67914018       0.00000000       0.00385778       0.00088074      -0.01087270
O        1.17827285       3.51851658       3.55110228       0.00000000      -0.00602284      -0.00111293       0.00537449
C       -0.00086297       5.60583896       3.83596906       0.00000000       0.00263757       0.00071199      -0.00484372
C       -1.19291222       7.81415616       3.74397805       0.00000000      -0.00136521      -0.00194041      -0.00613406
C       -2.43731344       9.98871820       3.67459307       0.00000000      -0.00004635       0.00375083       0.00750709
C        4.95684769       1.44325455       3.69674062       0.00000000      -0.00440735      -0.00392021      -0.00190062
O        3.81987165       3.54205186       3.86686934       0.00000000       0.00100269       0.00194767       0.00370456
C        1.27216901       7.84844813       4.02578751       0.00000000      -0.00242780      -0.00281013       0.00021086
C        0.03005281       9.96599965       3.75078552       0.00000000       0.00344916       0.00578619       0.00878097
C        7.42739639       1.40991770       3.65911824       0.00000000      -0.00177865       0.00045310       0.00599403
C        6.19763517       3.55507157       3.67046886       0.00000000      -0.00075189      -0.00638055      -0.00181345
C        4.98219652       5.69207117       3.87050133       0.00000000      -0.00027996      -0.00077792       0.00179779
C        3.77461230       7.77859610       3.95597799       0.00000000      -0.00238056       0.00653392       0.00479923
C        2.51089406       9.94014792       3.78829521       0.00000000       0.00278036      -0.00095158      -0.00350682
C        9.90118978       1.39994413       3.61987462       0.00000000      -0.00204102       0.00508818      -0.00547192
C        8.66001756       3.54787832       3.56764470       0.00000000       0.00086126       0.00821325       0.00167043
C        7.43222218       5.69094420       3.58459532       0.00000000       0.00469798      -0.00140244       0.00964763
C        6.21558435       7.82716069       3.66510610       0.00000000       0.00086085      -0.00587326      -0.00111739
C        4.97402457       9.94832176       3.69511582       0.00000000      -0.00213396      -0.00525493       0.00177767
W        2.52299624       5.40082160       5.60295725       0.00000000      -0.00587412       0.00457223       0.01149427
O        1.68564524       3.96112302       6.16117098       1.00000000      -0.00374783       0.00312086      -0.00357080
O        2.67446239       6.56398530       6.88573564       1.00000000       0.00722671       0.00901084      -0.01436229
