53
Lattice="12.336457 0.0 0.0 -6.168228499999997 10.683685154694365 0.0 0.0 0.0 15.0" Properties=species:S:1:pos:R:3:forces:R:3 energy=-464.16926154379246 free_energy=-464.16926154379246 stress="-0.004192634886066441 0.0027722424529709687 -1.284837445523946e-05 0.0027722424529709687 0.00353395503243988 2.41710888089448e-05 -1.284837445523946e-05 2.41710888089448e-05 2.6337081601885956e-05" pbc="T T T"
C        0.09592725      -0.00551826       3.94380699       0.01446373       0.00241499       0.00719463
C       -1.12632237       2.12655177       3.92636351      -0.00459162      -0.00362364      -0.00729048
C       -2.34864923       4.26232581       3.79925410       0.00441582       0.00751838       0.01238095
C       -3.61178299       6.40656152       3.67941402      -0.00869390       0.00419584       0.01148772
C       -4.84192816       8.55198428       3.78437070       0.00246614      -0.01633748       0.00988906
C        2.55841962       0.02120549       3.92377303      -0.00875932       0.00437491      -0.01051315
C        1.32784187       2.16462288       4.12887995       0.00304093       0.00482424      -0.01025437
C        0.11474791       4.27079461       4.10022355       0.00528011       0.00192851      -0.00567162
C       -1.19615572       6.43539861       3.83881365       0.00193742      -0.00833384      -0.00021247
C       -2.39347367       8.55604095       3.73508924       0.00139499       0.00531537      -0.00628895
C        5.02903883       0.00006630       3.85489180      -0.00495870      -0.00097213       0.00339153
C        3.81947595       2.14916461       4.09567333       0.00376973       0.00128631       0.00682056
B        2.61139781       4.30560373       4.70053439      -0.00144209       0.00228484      -0.00338411
O        1.19068496       6.44353511       3.57102320       0.00368041       0.00353385       0.00624209
C        0.07292440       8.52820748       3.75695819       0.00665967       0.00126340      -0.00771925
C        7.50193563      -0.03269170       3.83706710      -0.00723276       0.00984852      -0.00063652
C        6.28839083       2.11825096       3.88717575      -0.00576284       0.00331443       0.00205462
C        5.07210367       4.26268790       4.13585990       0.00381117       0.00160302       0.01250212
O        3.80731940       7.47017004       1.95912852      -0.01076603      -0.00238575      -0.00276711
C        2.52971718       8.47339002       3.81167517       0.00683713      -0.00307018       0.00272406
C        9.96421569      -0.04234520       3.88067644      -0.01001791      -0.01257671      -0.00278472
C        8.75313663       2.10981219       3.82406541      -0.00223999       0.00803484       0.00004151
C        7.52745115       4.24896270       3.78578894       0.00224934      -0.00598846       0.00667180
C        6.28307519       6.38652751       3.88548763       0.00720341      -0.00445964       0.00021122
C        5.02956327       8.50676349       3.87119577       0.00269391       0.00601110      -0.00065547
C        0.10102499       1.42560561       4.00067703       0.00301199       0.00301801       0.00065147
C       -1.10632229       3.56848676       3.91952049       0.00864019       0.00499139       0.00414672
C       -2.37004733       5.69681708       3.74305111      -0.01603055       0.00069617       0.00751698
C       -3.61724430       7.83451615       3.71295260       0.00533619      -0.00190828       0.00747902
C       -4.83928034       9.97926433       3.88348315       0.00233847      -0.01330693      -0.00862307
C        2.56511616       1.44393444       4.07383812      -0.00170055       0.00414543       0.00531324
C        1.29874312       3.59355056       4.28773334       0.00802269      -0.00582950      -0.00420797
C        0.06518676       5.78715935       4.32326197       0.01478539       0.00409882       0.00424105
C       -1.17405751       7.82532053       3.74613012      -0.00023975      -0.00252848      -0.00306471
C       -2.38275372       9.98438260       3.83173657      -0.00710833       0.00806711      -0.00942161
C        5.04651259       1.41993876       3.93841480      -0.00221476      -0.00215317       0.00849428
C        3.86283410       3.54914324       4.27246482      -0.00301456       0.00162203       0.00284587
C        1.25357507       7.79237756       3.71189446       0.00798166       0.00541344       0.01298385
C        0.08985329       9.95347669       3.80766265      -0.00273341       0.00164477      -0.00197003
C        7.51735895       1.39770024       3.83786380      -0.00165342       0.01216448      -0.00548839
C        6.30331300       3.53801913       3.90837334      -0.00183996      -0.00092226       0.00790608
C        5.11225519       5.67648846       4.21541071       0.01184133       0.00049893      -0.00576792
C        3.80960820       7.96995256       3.09445347      -0.01170115       0.00297377      -0.00049431
C        2.55742216       9.92963857       3.85295555      -0.01404315      -0.00193721      -0.00429183
C        9.97888638       1.40247104       3.86981233      -0.00957180      -0.00993250      -0.00014452
C        8.76339777       3.53960666       3.78164331       0.00621067       0.00601536      -0.01089373
C        7.52163907       5.67189830       3.73689947       0.00107704      -0.00467463       0.01543462
C        6.28670603       7.80912750       3.81882111      -0.00380866      -0.00356676      -0.01398282
C        5.03100712       9.95466146       3.90939832       0.00778038       0.00620042      -0.00568440
W        3.73888581       7.03797834       5.09250622      -0.00168149       0.01183289       0.00550115
O        2.66925074       5.39789771       5.53716948       0.02438157      -0.01293819      -0.02284542
O        0.19747291       6.06812558       5.68014326      -0.00472188      -0.00541731      -0.00602568
H        1.13229715       5.77014502       5.87911006      -0.02478287      -0.01827254      -0.00304156
