52
Lattice="12.336457 0.0 0.0 -6.168228499999997 10.683685154694365 0.0 0.0 0.0 15.0" Properties=species:S:1:pos:R:3:forces:R:3 energy=-449.4260416592253 free_energy=-449.4260416592253 stress="-0.002672493659346229 -0.003368913807062182 7.76750595595638e-06 -0.003368913807062182 -0.0013766017047867553 -1.7465348292751193e-05 7.76750595595638e-06 -1.7465348292751193e-05 2.285984882195982e-06" pbc="T T T"
C        0.10483143       0.10652353       3.59625464       0.00347067      -0.00551984      -0.00274303
C       -1.15539062       2.22379962       3.48961768       0.00481862      -0.00630741      -0.01280689
C       -2.36754622       4.37470256       3.49684728       0.00111351       0.00077401      -0.00376781
C       -3.57238076       6.52452006       3.57874641       0.00134668       0.00188558       0.00550922
C       -4.80258925       8.67201098       3.62072208      -0.00288436      -0.00422270       0.01196281
C        2.56970705       0.13019205       3.60881302       0.00014216       0.00337690      -0.01030521
C        1.28288093       2.23310557       3.54781634      -0.00972052      -0.00109883      -0.00612873
C        0.06649815       4.30880755       3.45544495       0.00157350      -0.00041404       0.00114851
C       -1.10490408       6.48943576       3.57705067       0.00142506       0.01144524      -0.00055970
C       -2.33700628       8.65758290       3.59295488       0.00071807      -0.00596017       0.00840137
C        5.04093905       0.11723443       3.77008335      -0.00375089      -0.00842888       0.00616905
C        3.75857855       2.20922532       4.05354522      -0.00757855      -0.00842892       0.01133004
B        1.26485651       6.48168820       4.18286612       0.00760187      -0.00215260      -0.00298501
C        0.11573204       8.65159953       3.80485293       0.00583477       0.00584722       0.01176287
C        7.50705447       0.11300163       3.83151413      -0.00813494      -0.00029601      -0.00485629
C        6.26514524       2.25905867       3.93809116       0.00365876       0.00037890      -0.00050666
C        5.16582906       4.45726479       4.34897998       0.00872293       0.00497626      -0.00420331
C        3.94960151       6.60759575       4.52924338      -0.00309961      -0.00069482       0.00522930
C        2.58815874       8.66066507       4.05794778      -0.00129960       0.00400389      -0.00171456
C        9.97115259       0.10368437       3.74949882      -0.00565290       0.00432542      -0.00493899
C        8.72780943       2.24401944       3.67594189       0.00129299       0.00199934       0.00916627
C        7.52839477       4.39511286       3.77771950       0.00344035       0.00607015      -0.00304194
C        6.33888330       6.56370401       3.90721785      -0.00160176      -0.00810856       0.00535327
C        5.07327386       8.67269865       3.89462512       0.00089239      -0.00276857      -0.00512828
C        0.08389301       1.52764331       3.51786961       0.00070327      -0.00772187      -0.00113425
C       -1.15179084       3.63689478       3.42456347       0.00237298      -0.00446816      -0.00068691
C       -2.34986643       5.79685554       3.51228805       0.00177687       0.00655280      -0.00582471
C       -3.57090349       7.95243678       3.57280694      -0.00290543      -0.00243171       0.00581333
C       -4.82172365      10.09349256       3.58213315       0.00573304      -0.00306529       0.00674930
C        2.53101484       1.55477619       3.71024123      -0.01040732       0.00566073      -0.01418651
O        1.24072709       3.59535524       3.38992921       0.00233075      -0.00677601       0.00084057
C        0.09428653       5.70835929       3.66768436      -0.00914570      -0.00011152       0.00889265
C       -1.10130099       7.92359265       3.65429889       0.00892919       0.00864483       0.00908119
C       -2.35530019      10.09026264       3.65112752      -0.00251385      -0.00663835      -0.00928537
C        5.02402073       1.54471797       3.93299800      -0.00189150      -0.00360702      -0.01076783
P        3.68738748       3.72786209       4.88515998       0.00470890       0.00711476      -0.01563919
C        1.35193234       7.96412460       4.01908012       0.00205444       0.00481906      -0.00491382
C        0.10590410      10.08558461       3.79939366      -0.00244239      -0.00121071       0.00236891
C        7.49545199       1.54184523       3.80768027       0.00080594      -0.00236500      -0.00339215
C        6.31038786       3.68535692       4.00848648       0.01173061       0.00376706       0.00814450
C        5.14109925       5.88779713       4.28400781      -0.00002947      -0.00168468       0.00438124
C        3.84549758       7.96002159       4.17119983      -0.00044503      -0.00106351       0.00335775
C        2.57796225      10.08650322       3.87818155      -0.00866288       0.00239188      -0.00462610
C        9.96237442       1.52490952       3.61561909       0.00255133       0.00529562       0.00958509
C        8.73640568       3.67117077       3.62365599       0.00060779       0.00245539       0.00589819
C        7.53955533       5.82280922       3.73394366      -0.00052599       0.00106352      -0.00450999
C        6.30970153       7.97154212       3.79404780      -0.00297416      -0.01018692      -0.00640102
C        5.04604836      10.07865171       3.73295024      -0.00227457       0.00150049      -0.00265044
W        2.46380511       5.49205880       5.65474559       0.00626249       0.00179670       0.00725649
O        1.21592952       4.35436518       6.20529766       0.00427129       0.01126646      -0.01478857
O       -0.03823020       3.09597032       6.23368630       0.00037264       0.00250555       0.01862137
H       -0.11279497       3.24212430       7.20657337      -0.01332245      -0.00418565      -0.00453002
