52
Lattice="12.336457 0.0 0.0 -6.168228499999997 10.683685154694365 0.0 0.0 0.0 15.0" Properties=species:S:1:pos:R:3:forces:R:3 energy=-449.7001781555198 free_energy=-449.7001781555198 stress="-0.0038000563347448703 -0.0012136305845842925 4.916068511282422e-05 -0.0012136305845842925 -0.0006979657333902362 -2.399787017417434e-06 4.916068511282422e-05 -2.399787017417434e-06 2.3852749252667787e-05" pbc="T T T"
C        0.01881297      -0.06252195       3.70950634      -0.00007684       0.00634336      -0.00620981
C       -1.24734818       2.03348618       3.69134609       0.00212458      -0.00064821      -0.00222536
C       -2.50430216       4.17962936       3.75814633      -0.00245679      -0.00018320       0.01024493
C       -3.70408454       6.32417219       3.77091563      -0.00750847      -0.00557336      -0.00972329
C       -4.92217374       8.47169542       3.74637724       0.00919885       0.00658705      -0.00994463
C        2.47830704      -0.03614647       3.82950049       0.00186813       0.00434935      -0.00701799
C        1.21344805       2.11309007       3.94538080       0.00205553       0.00159700       0.01155678
C       -0.11867948       4.09995679       4.15347637      -0.00590319      -0.00710536       0.01079074
C       -1.24427886       6.29023801       4.11484237      -0.00191245      -0.00161706      -0.00252775
C       -2.44925798       8.45399652       3.85862338       0.00006451       0.00433009       0.00607266
C        4.92958020      -0.08697592       3.76210823       0.00204976       0.00244231       0.00361750
C        3.73267462       2.05891968       3.84465495      -0.00585017      -0.00193079       0.01384620
O        1.35464330       6.51524836       3.26058573       0.00007096       0.00288215      -0.00505327
C       -0.00169431       8.44634591       3.75414004       0.00700154      -0.00790093      -0.00256784
C        7.39347724      -0.09004742       3.61444074      -0.00065212      -0.00603734       0.00059665
C        6.16283293       2.04001966       3.62610331       0.00344011       0.00052438       0.00679334
C        4.96223487       4.13867145       3.71501301       0.00322330      -0.00467580       0.01059119
B        3.71949966       6.32551735       3.89058796       0.01212815       0.00766441       0.00060891
C        2.48747674       8.50284656       3.65742829       0.00257601      -0.00229184       0.00446688
C        9.87842223      -0.07674062       3.59470835      -0.00678107      -0.00195826       0.00027407
C        8.62242698       2.04670933       3.57558281       0.00343034       0.00336611      -0.01028439
C        7.38961676       4.18783407       3.61212978       0.00249500      -0.00050331      -0.00159202
C        6.16945573       6.31313110       3.67619563      -0.00168415       0.00208218       0.00305725
C        4.95474309       8.47708432       3.66988838      -0.00175208      -0.00129858      -0.00513150
C        0.00763553       1.36232517       3.76361627       0.00548472       0.00715963      -0.00476642
C       -1.30033875       3.43232825       3.81722066      -0.00270657      -0.00241051      -0.00298856
C       -2.48730593       5.60156256       3.88168759      -0.00468725      -0.00094695      -0.01138093
C       -3.69365417       7.75175253       3.80456477       0.00275385      -0.00191127      -0.00683049
C       -4.91612395       9.90974142       3.76923312       0.00347855       0.00889000      -0.00397990
C        2.48222807       1.41186554       3.88769787      -0.00456952      -0.00088564       0.00147110
N        1.09214752       3.45833623       4.20321541      -0.00291317       0.00131706       0.00325335
C       -0.15519278       5.47222995       4.45651393       0.00259105      -0.00090635       0.00650271
C       -1.21974013       7.72849446       3.93151597       0.00080148       0.00025331      -0.00092332
C       -2.46604700       9.89871088       3.82111280       0.00131975       0.00568335       0.00870382
C        4.92898770       1.34561985       3.73543912      -0.00454775       0.00334624      -0.01348573
O        3.78460104       3.44224422       3.88409080      -0.00120374      -0.00343336       0.00439801
C        1.26534907       7.78764281       3.58319681       0.00984076      -0.00432964       0.00039020
C       -0.00287184       9.87102708       3.70483282       0.00068333      -0.00847883      -0.00801409
C        7.38703024       1.33499854       3.58461636       0.00394012      -0.00211116      -0.00177473
C        6.16576510       3.45224503       3.60611082       0.00543952       0.00068575       0.00569398
C        4.95306459       5.54753760       3.73258122       0.00211389      -0.00273658       0.00250074
C        3.70809461       7.79125333       3.72179488      -0.00283724       0.00052217       0.00858967
C        2.46844996       9.91236058       3.60264695      -0.00352577      -0.00571340      -0.00141770
C        9.86145493       1.33565974       3.58969883       0.00033467      -0.00062638       0.00352519
C        8.61080098       3.47029552       3.62035406       0.00297745       0.00336779      -0.00314992
C        7.40010101       5.60989005       3.66527305      -0.00688141      -0.00384109       0.00242926
C        6.17841148       7.74642963       3.69393722       0.00497716       0.00413238       0.00617976
C        4.95329604       9.90530016       3.64145156      -0.00428299      -0.00044729      -0.00141032
W        2.02696572       5.34997628       4.79888691       0.00029268       0.00400932       0.00699277
O        2.19751659       6.31087826       6.24652058      -0.00595014      -0.00085946      -0.00974078
O        2.22765226       7.43897062       7.54926475      -0.01743601      -0.00642486      -0.00595511
H        2.50588510       6.74095433       8.18855634      -0.00263685       0.00625140      -0.00505179
