52
Lattice="12.336457 0.0 0.0 -6.168228499999997 10.683685154694365 0.0 0.0 0.0 15.0" Properties=species:S:1:pos:R:3:forces:R:3 energy=-447.7109388318698 free_energy=-447.7109388318698 stress="-0.00020215225481709026 -0.0002825357294922652 1.1672353716817119e-05 -0.0002825357294922652 0.0009289542946740911 2.9230311792002144e-06 1.1672353716817119e-05 2.9230311792002144e-06 -4.116263961615924e-06" pbc="T T T"
C        0.08474103       0.10613288       3.86905695      -0.00273588       0.00391074       0.00240497
C       -1.16802948       2.22260314       3.81475921      -0.00569350       0.00178772      -0.00080586
C       -2.40642288       4.36278030       3.78041983       0.00283015      -0.00463136      -0.00194997
C       -3.64624128       6.49931547       3.81549636       0.00405674       0.00794455       0.00194946
C       -4.86836660       8.64178010       3.86829602       0.00133337      -0.00445810       0.00059693
C        2.53644104       0.14699455       3.88150473      -0.00526756      -0.00343377      -0.00128263
C        1.27581781       2.25906915       3.85075895       0.00312780      -0.00960336      -0.00158213
C        0.04549222       4.30079582       3.78044185       0.00042663      -0.00662298      -0.00280973
C       -1.15975198       6.47496061       3.81078341      -0.00546907      -0.00153094      -0.00636607
C       -2.40404519       8.63860138       3.85084969       0.00655398       0.00863809       0.00241670
C        4.98730868       0.10714006       3.87169844      -0.00625706       0.00084953      -0.00019980
C        3.79123795       2.26814349       3.89887670       0.00486612       0.00571984       0.00499844
B        1.32502675       6.46126543       3.98202535      -0.00686469       0.00087756       0.00269241
C        0.05765210       8.64351262       3.86394322      -0.00094270       0.00414390      -0.00136586
C        7.45504258       0.10530003       3.85530861      -0.00203803       0.00336890      -0.00552506
C        6.22891712       2.23302710       3.85952484       0.00005247      -0.00343078       0.00228939
C        5.01388078       4.32422933       3.99237654       0.00404280       0.00414419       0.00370951
O        3.73468666       7.51148142       2.06259520      -0.00335992       0.00889283      -0.01094075
C        2.52350578       8.68231843       3.79234675       0.00091291       0.00086163       0.00317266
C        9.94103591       0.09607284       3.81292506       0.00195758       0.00132571       0.00613599
C        8.69965015       2.22919381       3.81052784       0.00106268      -0.00407495       0.00371212
C        7.46546463       4.36302100       3.82773229       0.00922463      -0.00095063       0.00676964
C        6.19104068       6.46378726       3.93901637       0.00005574      -0.00202150       0.01074166
C        5.02722779       8.65438283       3.78069502       0.00424034      -0.00066467      -0.00265926
C        0.08047618       1.53482787       3.85522763      -0.00330026       0.00224655       0.00135941
C       -1.17684960       3.63186283       3.78098128       0.00110010      -0.00148618      -0.00904945
C       -2.40801524       5.78418821       3.78862141      -0.00235968      -0.00431571       0.00531662
C       -3.63978171       7.92706334       3.84669834       0.00918650       0.00730422      -0.00285546
C       -4.85686538      10.08274595       3.87439487      -0.00499950      -0.00393769      -0.00090739
C        2.53289109       1.59646709       3.88972477       0.00664978      -0.00425575      -0.00616480
O        1.23778695       3.62508840       3.76283904      -0.00086360      -0.01184677      -0.00107981
C        0.05469130       5.70907854       3.83669459      -0.00599476      -0.00586084      -0.00805736
C       -1.16878717       7.91200245       3.84320610       0.00135387       0.00434451       0.00532997
C       -2.41093526      10.08202424       3.87189066      -0.00413590       0.00370571      -0.00044994
C        4.98543534       1.53903875       3.87886121      -0.00085538      -0.00163088       0.00458268
O        3.82859082       3.63152446       3.94144984       0.00010398       0.00350967       0.01954228
C        1.30507206       7.95605853       3.88757723      -0.00224808       0.00106573       0.00032598
C        0.05406651      10.07534060       3.86405287      -0.00573226       0.00489758      -0.00366735
C        7.45775414       1.52557943       3.83947957       0.00088352      -0.00060035      -0.00298294
C        6.23878686       3.63988230       3.87329691       0.00381543      -0.00052608      -0.00053785
C        4.99866450       5.72087917       4.13693760      -0.00546950       0.00317301      -0.00475979
C        3.77215110       8.07771631       3.19410298       0.00523043      -0.00006849      -0.00001674
C        2.53379115      10.09538414       3.82892342       0.00125819       0.00220119       0.00051572
C        9.94056539       1.51823392       3.81224941      -0.00259452       0.00166644       0.00614943
C        8.69991499       3.65145795       3.79593524       0.00788679      -0.00626231       0.00190073
C        7.45560658       5.78122629       3.84230168       0.00207904       0.00270553       0.00504784
C        6.22362280       7.91152107       3.86946165       0.00095189      -0.00664033      -0.01581217
C        5.01286210      10.06779356       3.83041206       0.00027742       0.00135898      -0.00402786
W        3.19694892       6.69245752       4.91266676       0.00091612      -0.00482919      -0.00519884
O        2.52013659       5.30959943       5.76201339      -0.00219243       0.00151945       0.00366991
O        2.31606011       3.78706072       6.53852437      -0.00631146      -0.00392156       0.00040081
H        1.90236460       4.22523629       7.31642982      -0.00075125       0.00544143      -0.00467637
