52
Lattice="12.336457 0.0 0.0 -6.168228499999997 10.683685154694365 0.0 0.0 0.0 15.0" Properties=species:S:1:pos:R:3:initial_magmoms:R:1:forces:R:3 energy=-456.36764235924574 free_energy=-456.36764235924574 stress="-0.006549889194379122 0.004101014118051252 6.920865539175348e-06 0.004101014118051252 -0.005618990791798706 -1.5450096084123587e-06 6.920865539175348e-06 -1.5450096084123587e-06 -2.266348769499824e-05" pbc="T T T"
C        0.27497210       0.09564709       3.62021735       0.00000000      -0.00528099      -0.00252276      -0.00345721
C       -0.94044696       2.24785880       3.65736393       0.00000000       0.00286967      -0.00094293      -0.00308286
C       -2.18301716       4.39043351       3.73018441       0.00000000       0.00610787       0.00407614       0.00633104
C       -3.42649072       6.52047250       3.71237051       0.00000000      -0.00781734       0.00146865      -0.00430662
C       -4.67667513       8.64511491       3.67702004       0.00000000       0.00091306       0.00372120      -0.00034636
C        2.73952469       0.10083104       3.45683451       0.00000000      -0.00556583      -0.00596809      -0.00943125
C        1.52623992       2.22783316       3.55737199       0.00000000      -0.00102804       0.00593332      -0.00617315
C        0.24741015       4.37774458       4.00051462       0.00000000      -0.00022484       0.00023234      -0.00161583
C       -0.99373873       6.54691943       4.03071290       0.00000000       0.00530152      -0.00116310      -0.00228065
C       -2.20612286       8.66673651       3.66200221       0.00000000       0.00270085       0.00160913       0.00195593
C        5.21043518       0.11381828       3.36393126       0.00000000       0.00005825       0.00247456      -0.00371918
C        4.00287542       2.22393447       3.21406052       0.00000000       0.00348843      -0.00958773      -0.00840711
B        2.87630628       4.45140460       3.55495941       0.00000000       0.00217586       0.00490872       0.00876471
B        1.39279077       6.76063858       4.63650111       0.00000000       0.00208039      -0.01019704       0.00570019
C        0.23384375       8.73588485       3.83141324       0.00000000      -0.00262115       0.00337374      -0.00260380
C        7.68773003       0.12864505       3.46956285       0.00000000      -0.00360335       0.00171072       0.00096071
C        6.48623840       2.22944610       3.21927331       0.00000000       0.00345247      -0.00118131       0.00631630
C        5.29948301       4.34027140       3.35741400       0.00000000       0.00215623       0.00124623       0.00441409
P        3.68553596       6.21574039       4.38504654       0.00000000      -0.00602059      -0.00228145       0.00669626
C        2.73122279       8.74299279       3.92663798       0.00000000      -0.00472254       0.00326139      -0.00202627
C       10.16317968       0.12187185       3.60734645       0.00000000       0.00059039       0.00429794       0.00145095
C        8.94456824       2.25168637       3.44812198       0.00000000      -0.00130352       0.00199740      -0.00719201
C        7.72360848       4.38035131       3.45736138       0.00000000       0.00249113      -0.00620967      -0.00802877
C        6.45094107       6.49505036       3.74373940       0.00000000      -0.00272513      -0.00022139      -0.00029129
C        5.18831851       8.63536196       3.83310120       0.00000000       0.00495176      -0.00308880       0.01007716
C        0.28903592       1.52591992       3.61642488       0.00000000       0.00231049      -0.00104743      -0.00677952
C       -0.96215696       3.66640310       3.79493299       0.00000000       0.00093989      -0.00299000       0.00402344
C       -2.19825105       5.81487792       3.82496019       0.00000000      -0.00088472       0.00576873       0.00418371
C       -3.43829991       7.94527362       3.68966289       0.00000000      -0.00072599       0.00393191       0.00251893
C       -4.66301174      10.06957781       3.58674571       0.00000000      -0.00581570       0.00028940       0.00979060
C        2.75097384       1.52803863       3.38478887       0.00000000      -0.00294109      -0.00538915      -0.00282911
C        1.51649585       3.67283510       3.74525316       0.00000000      -0.00322359       0.01495020       0.00501879
C        0.21466601       5.80510119       4.29134707       0.00000000       0.00948673      -0.00929932      -0.01055379
C       -0.98418589       7.97708657       3.86336559       0.00000000       0.00240083       0.00020615       0.00516065
C       -2.19648134      10.08135808       3.47467459       0.00000000       0.00004329       0.00007952      -0.01040054
C        5.23951426       1.51797884       3.20674706       0.00000000       0.00598855      -0.00002081       0.01445767
C        4.08347362       3.63158042       3.23419097       0.00000000       0.00724835      -0.00820507       0.01048856
C        1.46768773       8.13903184       4.12750608       0.00000000      -0.00430834      -0.00635839      -0.01779291
C        0.26773523      10.11588592       3.51655274       0.00000000      -0.00306084       0.00409827       0.00026086
C        7.71228496       1.53530265       3.33654655       0.00000000       0.00035041      -0.00089674      -0.01118874
C        6.52196796       3.64892714       3.27481803       0.00000000       0.00210755      -0.00362605       0.00653685
C        5.27279414       5.70144587       3.77391958       0.00000000      -0.00553521       0.00267435       0.00666741
C        3.92763238       7.97919061       4.01992965       0.00000000       0.00081207       0.00389902       0.00666707
C        2.75269462      10.12569301       3.63969398       0.00000000      -0.00207002       0.00406384      -0.00558830
C       10.16944004       1.54235135       3.55345480       0.00000000      -0.00048841       0.00459333       0.00164056
C        8.94670580       3.67381866       3.51960553       0.00000000       0.00508799       0.00057061       0.00747043
C        7.69359113       5.79858605       3.62377325       0.00000000      -0.00630298      -0.00576468      -0.00436799
C        6.42799475       7.92461390       3.78201324       0.00000000       0.00516432      -0.00075670      -0.00888018
C        5.20981517      10.06835684       3.69341607       0.00000000      -0.00204871      -0.00304516       0.00002013
W        1.96212616       4.94756267       5.34757085       0.00000000      -0.00235397       0.00586832      -0.01539681
O       -5.07956529       2.55486562       8.74998975       1.00000000      -0.00212190       0.00116288       0.00001710
O       -5.07476878       2.73102970       7.52794170       1.00000000       0.00151644      -0.00170427       0.01915013
