52
Lattice="12.336457 0.0 0.0 -6.168228499999997 10.683685154694365 0.0 0.0 0.0 15.0" Properties=species:S:1:pos:R:3:forces:R:3 energy=-448.236533541383 free_energy=-448.236533541383 stress="0.0016904021590295848 -0.00013895762439209347 -8.303803460624779e-06 -0.00013895762439209347 -0.01157486811491249 1.6133604461905262e-05 -8.303803460624779e-06 1.6133604461905262e-05 -1.2665553784299445e-05" pbc="T T T"
C       -0.01551962      -0.01650837       3.41605526      -0.00713539      -0.00116041       0.00706705
C       -1.22539056       2.16331761       3.62280608      -0.00337647      -0.00645450      -0.00370694
C       -2.44969244       4.30451636       3.69119245      -0.00011308      -0.00146031      -0.00498050
C       -3.70184966       6.41365617       3.52091030       0.00199473       0.00969129       0.00714603
C       -4.95121003       8.52507391       3.38285585      -0.00502828       0.00859019       0.01729595
C        2.46378038      -0.07061973       3.44283353      -0.00783297       0.00251795      -0.01439752
C        1.24021401       2.02088833       3.68200027       0.00410491      -0.01302244      -0.00565016
C        0.03013598       4.30837810       3.91763925       0.00303201      -0.00076741       0.00255939
C       -1.19616164       6.43805100       3.56454012       0.00427540      -0.01112821      -0.00763186
C       -2.46025181       8.52903922       3.35722738      -0.00439621       0.00746859      -0.00050532
C        4.93085292       0.00917401       3.44280141      -0.00210201      -0.00521116      -0.00632884
C        3.67068404       2.01241119       3.91156976       0.00492886      -0.00139835       0.00422428
B        1.43001493       6.49870945       3.44784858       0.00491355      -0.00705905      -0.01011717
C        0.00058490       8.59858079       3.23428484      -0.00775571       0.00040722      -0.00217434
C        7.38986560       0.07640349       3.33909283       0.00734151       0.00773827      -0.00284243
C        6.15146328       2.17041865       3.67026193      -0.00303861      -0.00569122      -0.00639467
C        4.95420425       4.34822525       3.88355992       0.00566179      -0.00809256      -0.01021779
B        3.42014605       6.41619221       3.86142812      -0.00418894      -0.00026206       0.00126897
C        2.47081836       8.66547848       3.29283040       0.00276405       0.00394114       0.00281243
C        9.87258135       0.06685635       3.38369388       0.00031092      -0.00290763       0.00242706
C        8.63395215       2.18726316       3.55689795      -0.00039753       0.00940687       0.00874300
C        7.39570461       4.30325679       3.65574700       0.00441627       0.00638563       0.01630792
C        6.12500385       6.43156460       3.57063301      -0.00268145       0.00047809       0.00695633
C        4.90766922       8.56357341       3.44028464       0.00125686       0.00145183      -0.00878838
C       -0.01393395       1.40047155       3.55087324      -0.00007792      -0.00361170      -0.00857239
C       -1.21101230       3.58749420       3.77201327       0.00059552      -0.00366287      -0.00633648
C       -2.44475946       5.72262464       3.60848337      -0.00101295      -0.00379547       0.00050158
C       -3.70371092       7.82371102       3.40448411      -0.00248269       0.01326569       0.00971689
C       -4.95180323       9.93659143       3.38192338      -0.01057932       0.00630544      -0.00445994
C        2.45952061       1.31553166       3.65854832       0.00780232      -0.00401000      -0.00268729
B        1.32454980       3.48085651       3.98322593       0.00293248      -0.01210967       0.00548152
C        0.07008579       5.73736273       3.73222016       0.01618601       0.00141099      -0.00717750
C       -1.21395658       7.84346538       3.36455783      -0.00927764      -0.00861184       0.00701180
C       -2.45916402       9.94366435       3.39145069      -0.00799545       0.00592921      -0.01106158
C        4.92944659       1.41856029       3.68267882      -0.00272352      -0.00839428      -0.01476818
P        3.42066859       3.67444674       4.38954858      -0.00398524       0.00599601      -0.00287210
C        1.25540987       7.96436057       3.21083490      -0.00156989       0.00738611       0.00447923
C       -0.00633695      10.02511667       3.29887465       0.00532536       0.00199598       0.01272391
C        7.38825428       1.48449450       3.50960673       0.00192708       0.00775213       0.00769637
C        6.16032714       3.58896911       3.74754431       0.00594287      -0.00472255      -0.00108447
C        4.86668067       5.74427395       3.73020813      -0.00046581      -0.00410783       0.00964005
C        3.65009087       7.91182691       3.50864353       0.00205157       0.00224573       0.00193137
C        2.46571841      10.07842544       3.28902364       0.00387185       0.00367784       0.00113647
C        9.87431254       1.48057305       3.50967929      -0.00552169      -0.00221121      -0.01131315
C        8.64168453       3.60187051       3.64096249       0.00057628       0.00828738       0.00126548
C        7.38118288       5.71942346       3.58400855       0.00359284       0.00627790       0.00027733
C        6.14258594       7.83967257       3.45666780      -0.00155527       0.00082750       0.00466538
C        4.91869560       9.99228261       3.38973921      -0.00202988      -0.00175129      -0.00342805
W        1.86146020       5.24346423       4.99373358       0.00144796      -0.00768325       0.01179708
O        2.54047873       3.63093142      11.00494835      -0.00051491       0.00068134      -0.00014964
O        2.04010952       4.87618688      10.81423790      -0.00603429      -0.00649676       0.00208569
H        2.80759516       5.48793971      10.86775885       0.00662013       0.00566766       0.00042814
