51
Lattice="12.336457 0.0 0.0 -6.168228499999997 10.683685154694365 0.0 0.0 0.0 15.0" Properties=species:S:1:pos:R:3:initial_magmoms:R:1:forces:R:3 energy=-446.1442404134495 free_energy=-446.1442404134495 stress="-0.0027184385620391657 0.003614372709835206 -7.489983851950688e-05 0.003614372709835206 0.0017820229299056155 -8.05430702490572e-05 -7.489983851950688e-05 -8.05430702490572e-05 -7.017460746022995e-05" pbc="T T T"
C       -0.02042855       0.03872036       3.74659838       0.00000000      -0.00657204       0.00527758      -0.03654268
C       -1.24713523       2.17323621       3.89180235       0.00000000       0.02267071      -0.03141743       0.01739350
C       -2.48259847       4.30820927       3.80741071       0.00000000       0.01973166       0.02550775      -0.00234399
C       -3.72532713       6.44308040       3.61032010       0.00000000      -0.03092743       0.00500073      -0.03293978
C       -4.98172030       8.57866757       3.57808518       0.00000000       0.00794133      -0.01783155       0.02474430
C        2.43678321       0.08327594       3.68898871       0.00000000       0.01772429      -0.00969672      -0.03826332
C        1.20582788       2.16506803       3.83260417       0.00000000       0.00994874       0.01902780       0.04057398
C       -0.06396538       4.31919220       4.08442028       0.00000000      -0.00252190      -0.01968847       0.03274234
C       -1.28936889       6.45454824       3.80724596       0.00000000      -0.01710501       0.03639825      -0.01077575
C       -2.51752814       8.59574969       3.70081617       0.00000000       0.03748309      -0.01019027       0.01590214
C        4.89898629       0.03876146       3.78604536       0.00000000       0.01967310       0.03146759      -0.03828370
C        3.73615462       2.18493084       3.62231330       0.00000000      -0.00017330      -0.00927711      -0.05984927
C        1.09277855       6.49330782       4.30985629       0.00000000       0.02042514      -0.01536913       0.03737228
C       -0.05131322       8.58639835       3.91045622       0.00000000      -0.00710790       0.03589117      -0.00923453
C        7.37816488       0.02437275       3.91055535       0.00000000       0.01310299      -0.02901604      -0.02343922
C        6.17750799       2.14004861       3.68730083       0.00000000       0.01975649      -0.00635121      -0.00969397
C        5.02175436       4.20706230       3.30906142       0.00000000      -0.02120114      -0.01756938      -0.01540077
S        3.41028864       6.22521544       3.31294482       0.00000000       0.04175118      -0.05880386      -0.01494228
C        2.42946442       8.57866642       3.93414067       0.00000000      -0.02891498       0.01598782       0.01277744
C        9.85479845       0.02049608       3.87044798       0.00000000      -0.00506261       0.02591159      -0.04991189
C        8.63333419       2.15805727       3.82480396       0.00000000      -0.00992718       0.02512955      -0.00905145
C        7.41945294       4.29078543       3.57017226       0.00000000      -0.02546087       0.00198196      -0.00134822
C        6.14875640       6.40912598       3.42224332       0.00000000      -0.02697432      -0.00745970      -0.02150783
C        4.89351825       8.55594888       3.63325745       0.00000000      -0.02809179      -0.03139483       0.03593073
C       -0.00365102       1.47837832       3.83467300       0.00000000       0.03438629       0.00850470      -0.00636647
C       -1.25243091       3.59464007       3.94907624       0.00000000       0.01629975      -0.02295021      -0.00267718
C       -2.49678072       5.72930136       3.72933494       0.00000000      -0.02853026       0.03253037       0.00132461
C       -3.74193226       7.87296230       3.61129080       0.00000000       0.02214130      -0.00896062       0.00104055
C       -4.96087304      10.02559719       3.66096042       0.00000000      -0.00519405      -0.01369115       0.01466563
C        2.45603816       1.54049981       3.70641257       0.00000000       0.00294050      -0.00847945       0.01978624
O        1.16431741       3.61029727       3.86951506       0.00000000       0.01305479      -0.06358841       0.02801275
C       -0.06020055       5.73761101       4.03165874       0.00000000      -0.02068704       0.03152813      -0.01642008
C       -1.28800636       7.87950923       3.79487222       0.00000000       0.02144979       0.02932064       0.02963296
C       -2.51146548      10.03096832       3.72201826       0.00000000       0.03578301      -0.01300034      -0.02695668
C        4.92190818       1.46400690       3.71338774       0.00000000       0.01400600       0.01989973      -0.03933589
O        3.80951818       3.53911327       3.38474158       0.00000000       0.01324173      -0.02110276      -0.04977153
C        1.18320605       7.86615704       4.05105397       0.00000000      -0.02119233       0.00998388       0.02194241
C       -0.03547554      10.00629318       3.86946704       0.00000000      -0.00377346       0.02876512       0.02111671
C        7.39269737       1.44390175       3.82882049       0.00000000       0.01920419      -0.03678287      -0.05788898
C        6.21162726       3.53949459       3.49448950       0.00000000      -0.03152564       0.00039780       0.00665573
C        4.99399182       5.60270293       3.29229108       0.00000000      -0.05325068      -0.00214091       0.03756456
C        3.63471972       7.89252591       3.68727878       0.00000000      -0.02100456       0.00550914      -0.00334469
C        2.44494940      10.00196849       3.92904041       0.00000000       0.00975733       0.00261364       0.00170796
C        9.86904353       1.45332828       3.87045088       0.00000000      -0.00388882       0.01583372       0.03420676
C        8.63967155       3.58195138       3.73477794       0.00000000      -0.00264470       0.04281941       0.00681249
C        7.39614711       5.71171016       3.51362200       0.00000000      -0.02914100      -0.00423789       0.02126491
C        6.12339342       7.84656236       3.51522769       0.00000000      -0.01231926      -0.02776479       0.04893943
C        4.91110115       9.99359941       3.75879918       0.00000000      -0.01269188       0.00122248       0.01862792
W        1.95898379       4.84768965       5.34905256       0.00000000      -0.00072926      -0.00000126       0.00069878
O        0.93634829       4.54176897       6.74000446       1.00000000       0.05103097       0.03756727       0.00480483
O        3.67282740       4.77727517       5.74044053       1.00000000      -0.02689097      -0.00731148       0.04004819
