52
Lattice="12.336457 0.0 0.0 -6.168228499999997 10.683685154694365 0.0 0.0 0.0 15.0" Properties=species:S:1:pos:R:3:forces:R:3 energy=-447.9327703355681 free_energy=-447.9327703355681 stress="0.0005356232999417849 0.0031274452713793348 -6.90722206640897e-06 0.0031274452713793348 0.002097359765852892 2.50137598117111e-05 -6.90722206640897e-06 2.50137598117111e-05 5.681906704614054e-06" pbc="T T T"
C        0.01949839       0.11760955       3.83904327      -0.01418713      -0.00176862      -0.00549087
C       -1.20411642       2.26164461       3.68485659       0.00334272      -0.00506511      -0.00658963
C       -2.47887231       4.39372726       3.73815839       0.00041408       0.00802868       0.00027057
C       -3.73460886       6.52874810       3.90123789      -0.00481754      -0.00484044      -0.00915591
C       -4.94014687       8.65808796       3.94767881       0.00459873       0.00058728       0.01038327
C        2.49160749       0.12804566       3.89074943       0.00412670       0.00135501       0.00442444
C        1.28553975       2.20704580       3.47512942       0.00988100       0.00211359       0.00433522
C       -0.07254903       4.44920502       3.36566167      -0.01097425      -0.01145829       0.00836153
C       -1.31055112       6.57065623       3.61261693      -0.00272523       0.00219192       0.00131892
C       -2.46899340       8.66022458       3.95149532       0.00238117       0.00019699       0.00345284
C        4.95920379       0.09020026       3.97025331       0.01498668       0.00072453      -0.00256457
C        3.77531629       2.21929449       3.78405145      -0.00052731      -0.00364105      -0.01254689
O        0.25207559       6.24001830       1.78244139      -0.00364786       0.01363834      -0.00109150
C        0.03683623       8.62212644       4.01354436       0.00112736      -0.00273804       0.00498942
C        7.42497301       0.10327701       4.00031168       0.00925566      -0.00637691      -0.00359022
C        6.19575061       2.23695440       3.95701773      -0.00895766       0.00501177       0.00165907
C        4.95120149       4.33594123       3.93302283      -0.00797170       0.00546877       0.01066283
C        3.65752749       6.50152580       4.04963366      -0.00296808       0.00671806       0.00091620
C        2.47456921       8.64749338       4.07531018       0.00099424       0.00346227      -0.00572430
C        9.89063196       0.11343253       3.92043597      -0.00315615       0.00176470      -0.01077429
C        8.65996398       2.25087277       3.89005069      -0.00274144      -0.00299144       0.01052437
C        7.39608442       4.38469106       3.93150407       0.00569586      -0.00154605      -0.00338561
C        6.12434848       6.49666076       3.96930622       0.00022470       0.00151013      -0.00833514
C        4.93987791       8.64969788       3.97074986       0.00015821      -0.00548930      -0.00176304
C        0.04216195       1.55183802       3.66209988       0.00596483       0.00178913       0.00190028
C       -1.24569193       3.68361150       3.61419902      -0.01006786      -0.00609779      -0.00020038
C       -2.50244038       5.82592996       3.75466630      -0.00095538       0.00586851      -0.00384642
C       -3.71067569       7.94926577       3.94053260       0.00261615      -0.00670603      -0.00788349
C       -4.92026845      10.08866708       3.90052252      -0.00643012       0.00340345       0.00226274
C        2.51938197       1.55301307       3.73828019       0.00533489      -0.00542883      -0.00678222
S        1.35450948       3.76243601       2.69516592      -0.00124555       0.00694473       0.00889521
C       -0.22550904       5.86989133       2.88906274       0.00217773      -0.00447825       0.00119576
C       -1.23404788       7.94709004       3.87644682      -0.00197089       0.00153860       0.00449798
C       -2.45317013      10.08376626       3.96391143       0.01365261       0.00419540      -0.00252765
C        4.96465135       1.52334649       3.92518642      -0.00722212       0.00326942       0.00532756
O        3.81017507       3.59261441       3.77118717      -0.00203678      -0.00217395      -0.00163099
C        1.26330900       7.93417214       4.14615334       0.00391034       0.00076988      -0.01451235
C        0.02578169      10.06451578       4.01160701       0.01215082      -0.00487373       0.00193186
C        7.42277359       1.53564989       3.96020233      -0.00777364      -0.00487599       0.00096192
C        6.17297194       3.65717057       3.95696677      -0.00163687       0.00791809       0.01268440
C        4.86692968       5.76459344       3.98797635      -0.00680234       0.00832104      -0.00707105
C        3.70373872       7.91141421       4.03569517      -0.00076062       0.00383141       0.00766407
C        2.48795364      10.08605398       4.00443569       0.00695371      -0.00010470      -0.00802367
C        9.90339989       1.54483971       3.83717916       0.00219733       0.00241652       0.00514397
C        8.63743283       3.67592767       3.86520796       0.00685933       0.00075105      -0.01260225
C        7.36675172       5.80595183       3.93865349      -0.00277092      -0.00418790       0.00143171
C        6.15741129       7.92964674       3.96076982       0.00456055      -0.00033771       0.01783988
C        4.95162684      10.08112048       3.91492327      -0.01214047      -0.00497332       0.00015146
W        1.61132262       5.76807541       4.40227930       0.00551335      -0.00079203      -0.00694680
O        2.07164012       4.58283716       5.61587471       0.00291983      -0.01006049       0.01655786
O        2.54331040       3.08970296       6.41955851      -0.01960412      -0.00257254      -0.00149506
H        2.44231810       3.55742490       7.28154501       0.01209342      -0.00021075      -0.00521103
