53
Lattice="12.336457 0.0 0.0 -6.168228499999997 10.683685154694365 0.0 0.0 0.0 15.0" Properties=species:S:1:pos:R:3:forces:R:3 energy=-465.21576191887186 free_energy=-465.21576191887186 stress="0.00048433170239949383 0.004024191732627751 9.224276957697817e-05 0.004024191732627751 0.004096424730473568 5.329682519561202e-05 9.224276957697817e-05 5.329682519561202e-05 0.00021116075541459606" pbc="T T T"
C        0.06082772      -0.02461982       3.91592260      -0.04243263       0.00522631      -0.05347480
C       -1.15490881       2.11363531       3.86809565      -0.02573442       0.02010588      -0.06695073
C       -2.38994623       4.23300144       3.73669107       0.01074562      -0.00142487       0.06884153
C       -3.66796350       6.36121023       3.78797925       0.01087540       0.00174652      -0.03496524
C       -4.90457513       8.50269304       3.86797667       0.03044317      -0.00668821       0.02558842
C        2.51122211      -0.03071121       3.90106850       0.02587932      -0.02677601      -0.03567167
C        1.31121610       2.15087513       3.97473607      -0.00305712      -0.01581601      -0.03395911
C        0.10192488       4.29671140       3.76223521      -0.01279158       0.05136814       0.00538299
C       -1.20744300       6.38046942       3.61278966      -0.03566623      -0.01245099      -0.08347639
C       -2.44015532       8.50968209       3.74888908       0.03364831       0.00606796       0.02070141
C        4.98235312      -0.03792410       3.83920658      -0.01284308      -0.03931530      -0.02686480
C        3.76406302       2.08587375       4.00691113       0.03990332      -0.00148544      -0.02595843
C        2.59219418       4.25641222       4.27480008      -0.02216376       0.04971647       0.01695323
O        1.14170897       6.44945959       3.31240946       0.07300817      -0.01284934       0.05880107
C        0.01336497       8.50723096       3.69045949      -0.02254921       0.04452662       0.03168721
C        7.45962602      -0.06549276       3.83589279      -0.00857402      -0.01056681       0.00692831
C        6.24525943       2.07635911       3.89952273      -0.04528555      -0.00862427       0.01961950
C        5.02577190       4.20267266       4.14846205       0.00454426      -0.00474845       0.03150018
O        3.69210195       7.10723989       2.26668639       0.00897113       0.00315034       0.00690214
C        2.47026254       8.43125635       3.84033943       0.01777970       0.03439668       0.02520039
C        9.91663472      -0.05809944       3.85370175       0.01000536      -0.04540334       0.00278868
C        8.71054346       2.08462423       3.83268237      -0.01603100      -0.04467586       0.01079657
C        7.47702100       4.21392080       3.87397993       0.00840667       0.01033727      -0.01523492
C        6.19786610       6.33861876       4.02090446      -0.00944584       0.00385420      -0.02905461
C        4.99332692       8.50547664       3.78113351      -0.01151917       0.00331743       0.03637751
C        0.07902389       1.41354595       3.92474914      -0.02894533       0.01617573      -0.01188681
C       -1.13435958       3.54860698       3.77961424      -0.01466490       0.03582400       0.02185527
C       -2.42615635       5.65345487       3.70606578      -0.00247615      -0.01077546      -0.00992494
C       -3.67735568       7.79084278       3.79736709       0.04590103       0.00379462       0.02528807
C       -4.89013544       9.93449127       3.89623577      -0.01888422       0.00826111      -0.01010605
C        2.52228364       1.40125680       3.96498614       0.04500892      -0.02803004       0.03948327
C        1.36072189       3.61096547       4.00910417      -0.01233959       0.02257777       0.00938005
C        0.00253970       5.68638582       3.52602994      -0.03102893       0.02727202       0.03100762
C       -1.21986533       7.80379608       3.65431077      -0.00109480      -0.00904196       0.01668885
C       -2.43052038       9.94018172       3.82746937       0.01865122      -0.02890625       0.00436073
C        4.99574476       1.38070713       3.91591954       0.00210250      -0.05127716       0.01376259
C        3.76873336       3.51468385       4.16569238       0.00979067       0.02705715      -0.02232712
C        1.20932395       7.78698514       3.65667213       0.01058693       0.11079592       0.00798474
C        0.04381952       9.92982757       3.78792693      -0.01000146       0.00263566       0.02102961
C        7.47610679       1.36454912       3.85532192      -0.05148753      -0.01593832      -0.03442964
C        6.25866579       3.49190268       3.95222477      -0.00011131       0.00339562       0.05928042
C        5.02950618       5.59113873       4.26599712       0.00153982       0.01023783       0.00945973
C        3.73735826       7.81653921       3.31358841      -0.01487304      -0.02127161      -0.06309743
C        2.51208602       9.89237341       3.85765206       0.02311608       0.00890054      -0.02244566
C        9.94194653       1.37734104       3.85464934      -0.00589491      -0.04987574      -0.02586288
C        8.71404415       3.50990963       3.79949936       0.01986734      -0.02538070       0.03799885
C        7.45113830       5.63826817       3.88730614       0.00606363       0.01208704       0.01814047
C        6.19124602       7.77958288       3.90291521      -0.00463326       0.00909746       0.00273708
C        4.99196200       9.92596544       3.85823837      -0.00404618      -0.00331880      -0.03421973
W        3.15834733       6.32292863       5.06057478       0.12947873      -0.01020629       0.27049626
O        4.01690503       7.08147932       6.36936336      -0.10039607      -0.03883738      -0.34853141
O        1.41543113       6.01744080       5.93898976       0.00348535      -0.02789721      -0.07623056
H        1.26260257       6.55307004       6.73405821      -0.02083136       0.01965551       0.10765015
