52
Lattice="12.336457 0.0 0.0 -6.168228499999997 10.683685154694365 0.0 0.0 0.0 15.0" Properties=species:S:1:pos:R:3:forces:R:3 energy=-447.4632526211003 free_energy=-447.4632526211003 stress="2.295849807196832e-05 0.001681003133045896 2.3508629964317574e-05 0.001681003133045896 0.002101281031782196 1.596186603965155e-05 2.3508629964317574e-05 1.596186603965155e-05 -1.1166199948683456e-05" pbc="T T T"
C       -0.06115475       0.15155952       3.81982677      -0.00508406      -0.00026670      -0.00031052
C       -1.29471351       2.28541665       3.89614244       0.00091149       0.00157570      -0.01021222
C       -2.51932251       4.41153236       3.89211438       0.00117743       0.00360461      -0.01146953
C       -3.77175791       6.55112743       3.77394785       0.00386117       0.00536503      -0.00720011
C       -5.01917986       8.68768133       3.82220147      -0.00184787      -0.00055128      -0.00501555
C        2.39154899       0.19621470       3.64800286      -0.00523984       0.00003207      -0.00707869
C        1.13285753       2.29443196       3.60773766       0.00221291      -0.00259244       0.01180128
C       -0.03204926       4.37523052       4.06695689       0.01336509       0.00096944       0.00507008
C       -1.31626455       6.54862595       3.75499006       0.00202923       0.00439767      -0.00199042
C       -2.55391095       8.70293019       3.66920585      -0.00543876      -0.00656505       0.00200296
C        4.85329317       0.15491163       3.59496787       0.00627216      -0.00536815       0.00695964
C        3.66938779       2.30415667       3.55598638      -0.00014793       0.00572515       0.00349735
C        1.08517923       6.61600678       4.05119100       0.00517628      -0.00499165       0.00730884
C       -0.08649287       8.70014374       3.71006496       0.00384425      -0.00043046       0.00309529
C        7.33300989       0.14031844       3.71772696       0.01297258       0.00246194       0.00450775
C        6.11356745       2.26454723       3.63063278       0.00049364      -0.00419849      -0.00586508
C        4.91534803       4.33973163       3.82877041      -0.00642071      -0.00148877      -0.01510699
S        3.55318262       6.41149942       4.88107772      -0.00439709      -0.00501903       0.00105082
C        2.39462027       8.70549446       4.01983486      -0.00971931       0.00320406       0.00118346
C        9.80631856       0.14338892       3.87878765       0.00258587      -0.00088933      -0.00959293
C        8.57756518       2.27470735       3.78817026       0.00022191      -0.00037138      -0.00359763
C        7.35315809       4.40718563       3.76251159      -0.00655560       0.00614280       0.01108692
C        6.09424484       6.52249131       3.95787186       0.00030150      -0.00222076      -0.01516089
C        4.86483407       8.68537517       4.07170474       0.00017849       0.00391228       0.00480866
C       -0.05605286       1.58583524       3.77746147      -0.00088963      -0.00366107       0.00573304
C       -1.29148122       3.69104694       4.00726816       0.00455604       0.00219969       0.01414700
C       -2.53604791       5.83506822       3.79599733       0.00145420       0.00735884       0.00496392
C       -3.78098962       7.98070421       3.74479978      -0.00369720      -0.00300859       0.00707912
C       -4.99973526      10.13332340       3.76063563      -0.00601824      -0.00079069       0.00497183
C        2.39805921       1.64625707       3.58185556       0.00109361       0.00400345       0.00345060
O        1.06285010       3.67338459       3.49710227       0.00524814      -0.00507642      -0.01363057
C       -0.06790425       5.83217313       3.93628032       0.00340419       0.00367914       0.00216278
C       -1.31720658       7.97998218       3.68263412      -0.00063006       0.00148883      -0.01695128
C       -2.55323552      10.13936903       3.62565898      -0.00221246      -0.00549567      -0.01147192
C        4.86153116       1.58279315       3.57403422      -0.00029569      -0.00037593      -0.00761748
O        3.72351377       3.66827181       3.68657305      -0.00778057       0.00208156      -0.00104883
C        1.15333125       7.98950793       3.90580459      -0.00420830      -0.00270954       0.01254570
C       -0.07958105      10.12227348       3.65702543       0.01476675      -0.00032434       0.00359556
C        7.33812559       1.56152658       3.69391382       0.00282382      -0.00159732       0.00895273
C        6.12843375       3.67537924       3.70036473      -0.00538027      -0.00317383      -0.00084739
C        4.92113313       5.72268824       4.11222838      -0.00140622      -0.00652856      -0.00116415
C        3.61025253       8.03656637       4.28627873      -0.00829433       0.00991612      -0.00226092
C        2.39989624      10.12314489       3.85454685       0.00471906       0.00301185      -0.00231694
C        9.81338033       1.56985128       3.85435073       0.00251545      -0.00084202      -0.01243841
C        8.58612317       3.69751654       3.80540299      -0.00627147       0.00366439       0.00494153
C        7.33697259       5.82807473       3.81443347       0.00390086       0.00762674       0.00674268
C        6.08802308       7.96057398       3.98026136       0.00283430       0.00020280       0.00270396
C        4.87104674      10.11530392       3.92706022      -0.00048827       0.00329541       0.00997329
W        1.66330514       5.25063682       5.55697125       0.00601562      -0.01267796       0.00785940
O        2.53813093       3.84692346       6.13823006       0.00071822      -0.00089878       0.00124047
O        3.47880574       2.40035633       6.43963063      -0.01162107      -0.00405913      -0.00142204
H        3.20450621       2.46958747       7.38350236      -0.00560931       0.00025382       0.00033378
