52
Lattice="12.336457 0.0 0.0 -6.168228499999997 10.683685154694365 0.0 0.0 0.0 15.0" Properties=species:S:1:pos:R:3:initial_magmoms:R:1:forces:R:3 energy=-461.6658419828103 free_energy=-461.6658419828103 stress="-0.0008783780037914538 0.0031148184909158758 3.887490161098097e-06 0.0031148184909158758 -0.0013704462007423299 6.789280136365131e-06 3.887490161098097e-06 6.789280136365131e-06 3.1917380460320462e-06" pbc="T T T"
C       -0.00444180      -0.01843002       3.55954398       0.00000000       0.00053280      -0.00445079       0.00412434
C       -1.21954658       2.13412054       3.60979477       0.00000000       0.00127690      -0.00426829      -0.00075487
C       -2.44663575       4.26338300       3.73315336       0.00000000       0.00107916      -0.00045136      -0.00236521
C       -3.70761440       6.38825013       3.79755145       0.00000000      -0.00262635       0.00023636       0.00533011
C       -4.96191619       8.51736226       3.70116413       0.00000000       0.00062676      -0.00066624      -0.00847041
C        2.45634256      -0.01936624       3.68310250       0.00000000       0.00166635       0.00229901      -0.00526379
C        1.23770422       2.12787534       3.72409993       0.00000000       0.00317644       0.00053544      -0.00225872
C        0.03755907       4.29557654       3.78585645       0.00000000       0.00068460       0.00230287       0.00134471
C       -1.23120603       6.40413745       3.74855493       0.00000000      -0.00415170       0.00073271      -0.00033999
C       -2.48367358       8.52732894       3.70871202       0.00000000       0.00185374      -0.00223954      -0.00027384
C        4.92386533      -0.00959020       3.70525038       0.00000000      -0.00240813       0.00199906      -0.00085010
C        3.70388308       2.10737069       3.89185435       0.00000000       0.00043930       0.00100988       0.00103052
C        2.44990806       4.10753184       4.44544847       0.00000000      -0.00058725      -0.00242429       0.00061314
O        1.15792484       6.46780376       3.78791414       0.00000000       0.00288219      -0.00153385      -0.00213488
C       -0.03045534       8.54543282       3.69723543       0.00000000       0.00386297       0.00256604       0.00098880
C        7.39100735      -0.00563145       3.62137543       0.00000000       0.00246538       0.00184662      -0.00068736
C        6.17669946       2.11577006       3.82465524       0.00000000      -0.00070454       0.00113556      -0.00541796
C        4.96403848       4.22509061       4.23261066       0.00000000      -0.00069370      -0.00302485       0.00250014
O        3.50588014       6.64087243       2.72318970       0.00000000       0.00463590       0.00414783       0.00243278
C        2.41796301       8.54313202       3.57843773       0.00000000      -0.00325816       0.00398544      -0.00108192
C        9.86574302      -0.01175973       3.50641935       0.00000000      -0.00158081       0.00178200       0.00050052
C        8.64575628       2.12390331       3.66843885       0.00000000      -0.00190039       0.00057636      -0.00032914
C        7.41996197       4.24559818       3.89892238       0.00000000       0.00242971      -0.00195516      -0.00317532
C        6.15585638       6.37365425       4.03021811       0.00000000       0.00113948      -0.00224562      -0.00314364
C        4.93001060       8.51442083       3.49201517       0.00000000      -0.00515665       0.00100503       0.00038524
C        0.00287564       1.41079771       3.59991835       0.00000000       0.00330337      -0.00425088       0.00076276
C       -1.20203535       3.56680077       3.69209694       0.00000000       0.00168778      -0.00205850      -0.00076837
C       -2.46496351       5.68228339       3.76293064       0.00000000      -0.00490904       0.00059180      -0.00385505
C       -3.72370602       7.81316667       3.74308492       0.00000000       0.00018486      -0.00016391       0.00645259
C       -4.94852930       9.94505206       3.62997851       0.00000000       0.00262627      -0.00000917       0.00273192
C        2.46757619       1.40381861       3.76019735       0.00000000       0.00220456       0.00170537       0.00770251
C        1.24875745       3.53444431       3.88560442       0.00000000       0.00104614       0.00100542      -0.00061442
C       -0.03458091       5.70182034       3.79044570       0.00000000      -0.00232200       0.00140310       0.00169200
C       -1.25668544       7.82745628       3.72044680       0.00000000       0.00319923       0.00034603       0.00280793
C       -2.48077418       9.95638556       3.69649137       0.00000000      -0.00134871      -0.00142984      -0.00184224
C        4.93726251       1.40703160       3.79795341       0.00000000      -0.00105877       0.00187093       0.00055826
C        3.71903179       3.50163912       4.17247637       0.00000000      -0.00079794      -0.00180945       0.00065881
C        1.18238881       7.87303476       3.73106177       0.00000000       0.00267099      -0.00010646      -0.00079854
C       -0.01336375       9.97120874       3.66464148       0.00000000       0.00083021       0.00409797      -0.00390333
C        7.40647421       1.41467886       3.69013135       0.00000000      -0.00058907       0.00089629      -0.00068317
C        6.19361663       3.52341664       3.98519808       0.00000000       0.00177898      -0.00078780       0.00430812
C        5.03181691       5.61657002       4.38869305       0.00000000       0.00132367      -0.00268466       0.00290375
C        3.65470371       7.83446909       3.22931676       0.00000000      -0.00675706       0.00198919       0.00349743
C        2.45174754       9.97611129       3.54987511       0.00000000       0.00139697       0.00236894       0.00214491
C        9.87795029       1.41581204       3.57516824       0.00000000      -0.00284983       0.00023039       0.00444719
C        8.65272994       3.54338345       3.75883468       0.00000000       0.00251972      -0.00117295       0.00005534
C        7.40896614       5.67007118       3.91444401       0.00000000       0.00132171      -0.00321610       0.00039072
C        6.13013756       7.79617846       3.75193276       0.00000000      -0.00126947      -0.00074361      -0.00593639
C        4.93001964       9.94676342       3.49093491       0.00000000      -0.00338342      -0.00024566       0.00440843
W        3.10843843       6.48212250       4.86846103       0.00000000      -0.00673791      -0.00193577      -0.01158895
O        2.24518125       4.85500763       5.55618457       1.00000000       0.00389940       0.00299988      -0.01043323
O        3.49826286       7.64495194       6.08304897       1.00000000      -0.00365465      -0.00179081       0.01219790
