52
Lattice="12.336457 0.0 0.0 -6.168228499999997 10.683685154694365 0.0 0.0 0.0 15.0" Properties=species:S:1:pos:R:3:forces:R:3 energy=-452.0766799736949 free_energy=-452.0766799736949 stress="-0.003456009291770768 -0.003556205689197238 2.5290898049502333e-05 -0.003556205689197238 0.0009484198783575655 -4.597737401158028e-06 2.5290898049502333e-05 -4.597737401158028e-06 -4.051581684105088e-06" pbc="T T T"
C        0.02378242       0.09784912       3.79870023      -0.01873291       0.00037401       0.00282291
C       -1.23418412       2.21539486       3.86234649       0.01117033      -0.00012015       0.00330922
C       -2.45490554       4.36056008       3.95520138       0.01162166      -0.00843798      -0.00038830
C       -3.66280991       6.51156998       3.92047611      -0.00473148      -0.00957997      -0.00742166
C       -4.88918523       8.66549420       3.86970644      -0.00633750       0.00630780       0.00756077
C        2.48434318       0.10944734       3.67898514       0.00315710       0.00319729       0.00828565
C        1.20492332       2.19390894       3.56019704       0.00528283       0.00227915      -0.01369926
C       -0.02905405       4.34532855       3.98728808       0.00050787       0.00339868       0.01730044
C       -1.22025221       6.49519062       3.94380158       0.00043792      -0.00357108      -0.00121604
C       -2.43522262       8.65032359       3.84488497       0.00263608      -0.00345780       0.00414534
C        4.95822247       0.09372721       3.71184947      -0.00007390       0.00079286       0.00824470
C        3.70094666       2.20722113       3.35468237       0.00408002       0.00684354      -0.00963863
C        1.22061740       6.46945075       4.03278786       0.00334842       0.00104375      -0.00067560
C        0.03186769       8.62354999       3.88842109      -0.00782512       0.00018813       0.00402739
C        7.42207152       0.07912139       3.84301093      -0.00663974      -0.01102954       0.00186860
C        6.17699340       2.23948554       3.68993682      -0.00031742      -0.01271205       0.01315656
C        4.96602323       4.44618254       3.64178629       0.01979675      -0.00107217       0.00137456
N        3.84574652       6.54299483       3.88082122       0.01591689       0.01186953       0.00123656
C        2.50716791       8.60125727       3.94644902      -0.00922147       0.00663030      -0.00046803
C        9.88379143       0.07643459       3.89303990      -0.00016837       0.00574086      -0.00214908
C        8.64014164       2.22285352       3.88087294       0.00393578       0.00568771       0.00262390
C        7.42004399       4.37085606       3.86794497       0.00476028       0.00669701       0.00005500
C        6.24198409       6.55034395       3.86458055       0.00161541      -0.00230984       0.00612364
C        4.98085044       8.64712601       3.91420867       0.00205677      -0.00401152      -0.01304032
C        0.00144658       1.52124497       3.72071210       0.00012125      -0.00042711      -0.00323199
C       -1.22296351       3.63452498       3.95441489       0.00779024      -0.00708833       0.00122763
C       -2.43951839       5.78516129       3.94593306       0.00249801      -0.01145078      -0.00504058
C       -3.66114767       7.93983042       3.88301799      -0.00369373      -0.00283255       0.00212253
C       -4.90308323      10.08895940       3.79144356      -0.01018303       0.01188521      -0.00096267
C        2.45437378       1.53522163       3.51094689       0.00449520       0.00711915       0.00097907
O        1.15717583       3.59994603       3.72134635       0.01331169       0.00988882       0.00553442
C        0.01626409       5.75546918       3.99435688       0.00108772       0.00001304      -0.00562815
C       -1.20406867       7.92220323       3.89272289      -0.00000665      -0.00287791      -0.00845870
C       -2.44582296      10.07466705       3.74287510       0.00761451      -0.00257718       0.00130731
C        4.94487735       1.52044854       3.57263196      -0.00332008      -0.00039292       0.01507365
P        3.72862801       3.79471999       2.51956531      -0.01244731      -0.00584916      -0.00798517
C        1.27306320       7.86681504       3.96115651      -0.00925724       0.00381625       0.00001114
C        0.02380896      10.05113262       3.81758259      -0.00930877      -0.00558755      -0.00054596
C        7.40778277       1.51246801       3.80958790       0.00234715      -0.01148344       0.00416280
C        6.18748429       3.66576387       3.74191125       0.01287669      -0.00349205      -0.00557830
C        5.02789078       5.87974446       3.77759596       0.00256490      -0.00125812       0.00408898
C        3.76217592       7.90881609       3.93695832      -0.00059060       0.01224588      -0.00400944
C        2.48864278      10.03366961       3.90355671      -0.00232626       0.00337436      -0.00190170
C        9.88062738       1.50772240       3.88892952       0.00837317       0.00827930      -0.00802071
C        8.64629423       3.65092412       3.90872046       0.00412916       0.00840802      -0.00005161
C        7.45104381       5.80223844       3.89484804      -0.00740511       0.00027089      -0.00514187
C        6.22248276       7.96292066       3.89795662       0.00027389      -0.00973152      -0.00489045
C        4.96082033      10.06505624       3.88412999      -0.00967367      -0.00726990      -0.00525653
W        2.66954402       4.87132316       4.38860024      -0.01660437       0.00186445      -0.00095116
O        3.01392287       4.68033848       6.07244792      -0.00378495      -0.00480286      -0.00156879
O        2.06722620       2.11745214       6.21156982      -0.00518885      -0.00649498      -0.00222854
H        2.48385729       2.94512576       6.55372795      -0.00996915       0.01170252       0.00350649
