52
Lattice="12.336457 0.0 0.0 -6.168228499999997 10.683685154694365 0.0 0.0 0.0 15.0" Properties=species:S:1:pos:R:3:forces:R:3 energy=-446.8188711748723 free_energy=-446.8188711748723 stress="-0.004794172466585785 -0.001350007531011741 1.653397350837816e-05 -0.001350007531011741 0.0002817957914353619 1.873005606608639e-05 1.653397350837816e-05 1.873005606608639e-05 -1.4020575022654617e-05" pbc="T T T"
C        0.06895377      -0.12469948       3.85811709      -0.00112767       0.00155311       0.00014131
C       -1.17896389       2.01262755       3.86976995       0.00185243      -0.00132632      -0.00203782
C       -2.38586588       4.16140970       3.91042091      -0.00395455      -0.00412510       0.00155339
C       -3.59952283       6.30123731       3.91950399      -0.00252432       0.00267706      -0.00459686
C       -4.84299255       8.44399577       3.90985139       0.00403813       0.00388389       0.00391451
C        2.53704083      -0.10613980       3.78499187      -0.00468541      -0.00169542      -0.00470578
C        1.27210746       1.97372784       3.75601342      -0.00554837       0.00210339       0.00378820
C        0.02689180       4.16933029       3.95075985      -0.00533863       0.00193231      -0.00013076
C       -1.15071551       6.29914882       3.90969760       0.00486105      -0.00149781       0.00167643
C       -2.37795640       8.43439650       3.83563326       0.00825992      -0.00501037      -0.00299623
C        5.00721373      -0.11167606       3.68276490       0.00095616      -0.00934522       0.00459748
C        3.75713552       1.99287494       3.46004765       0.00004206      -0.00885720       0.00740283
O        1.23723105       6.31501987       3.51751366       0.00186988      -0.00320529       0.00358024
C        0.07590952       8.41683734       3.72254306       0.00274320       0.00915760      -0.00062973
C        7.47439042      -0.13302515       3.71678874       0.00735974       0.00051098       0.00441617
C        6.24355513       2.02928435       3.61709306      -0.00333630       0.00659075       0.00737674
C        5.10820566       4.23671950       3.61387474      -0.00129218       0.00206697       0.00063256
C        3.83563624       6.27835380       4.05681644       0.00222030       0.00716053      -0.00091264
C        2.51870346       8.38044359       3.80532670      -0.00986983      -0.00890213       0.00732694
C        9.92987619      -0.14079093       3.83054344       0.00010705       0.00220327      -0.00045230
C        8.70580511       2.01452959       3.79723060      -0.00650914      -0.00311326      -0.00242884
C        7.50549453       4.16467208       3.82419100       0.00566675       0.00359044       0.00239745
C        6.30004454       6.32100707       3.92980451      -0.00067869      -0.00133033       0.00755465
C        5.00943107       8.41563679       3.91351216       0.00378186       0.00482889       0.01136899
C        0.06176569       1.30858556       3.83395276      -0.00209131       0.00010308      -0.00576685
C       -1.16729041       3.43719417       3.92306274      -0.00071546      -0.00069905      -0.00429116
C       -2.37369401       5.57965915       3.92270509      -0.00282163      -0.00210123      -0.00755359
C       -3.61110924       7.72812925       3.90268552       0.00398688       0.00371124      -0.00840955
C       -4.85810642       9.86703013       3.86296849      -0.00291931       0.00347994      -0.00415814
C        2.51525761       1.33046704       3.67708217      -0.00751978      -0.00139452      -0.00973083
O        1.23074859       3.40665423       3.71826233       0.00591780       0.00696526       0.00081992
C        0.05618245       5.58024022       3.91263280       0.00428748      -0.00057653       0.00127783
C       -1.15657594       7.71884518       3.81974853       0.01128388      -0.00017346      -0.00017780
C       -2.39220629       9.86636793       3.76592931      -0.00191030      -0.00736699       0.00231303
C        4.99844523       1.32599626       3.57356947       0.00076856      -0.00844100       0.00695440
S        3.67492920       3.63937955       2.91774705      -0.00078959       0.00242175       0.00097476
C        1.29007761       7.72864353       3.67976206      -0.00832835      -0.00345345      -0.01470409
C        0.07399110       9.84870226       3.70289466       0.00772140       0.00559816      -0.00855299
C        7.46803857       1.30576528       3.70897422      -0.00647159       0.00176965       0.00090297
C        6.27353532       3.45275553       3.68134569       0.00422645       0.01097355      -0.01018895
C        5.05946306       5.61910420       3.89603357      -0.00113060       0.00266117      -0.00272982
C        3.77074383       7.66093222       3.93928911      -0.00097459       0.00560001       0.00351730
C        2.53027538       9.82112418       3.78323672       0.00214524      -0.00808533      -0.00222388
C        9.93839639       1.29529912       3.83518659      -0.00241642       0.00154154       0.00266854
C        8.72194201       3.44225739       3.84725619      -0.00206559      -0.00570628      -0.00006555
C        7.51169625       5.58951954       3.89920500       0.00061696       0.00094495      -0.00478964
C        6.26370457       7.73549988       3.93788097       0.00498920      -0.00028329      -0.00367385
C        5.00149348       9.83651253       3.87090790       0.00199558       0.00355077       0.00486541
W        2.25409759       4.91111404       4.74724427       0.00487952      -0.00005402       0.00558629
O        1.77978537       5.87836405       6.12719718       0.00409431      -0.00118044       0.01197249
O        0.75491249       7.24390768       6.63399902      -0.00991342       0.00307458      -0.01405269
H        1.13165314       7.14723318       7.53927534      -0.00573877      -0.01273080       0.01037949
