52
Lattice="12.336457 0.0 0.0 -6.168228499999997 10.683685154694365 0.0 0.0 0.0 15.0" Properties=species:S:1:pos:R:3:forces:R:3 energy=-444.45325597752276 free_energy=-444.45325597752276 stress="-0.004802905556234726 0.0030372223899674295 1.5390311628763068e-06 0.0030372223899674295 -0.00812576819715715 -2.6779964942862114e-06 1.5390311628763068e-06 -2.6779964942862114e-06 -8.389094361152127e-06" pbc="T T T"
C        0.02002317      -0.01050243       3.48763948      -0.00274671      -0.00711128       0.00026430
C       -1.19028731       2.14428169       3.32417374       0.00254761       0.00542481       0.00102986
C       -2.45091025       4.26828941       3.29851244      -0.00040502       0.00994348       0.00603089
C       -3.70135885       6.39842981       3.38685349       0.00466322      -0.00595862      -0.00072774
C       -4.94348503       8.51704656       3.51305322       0.00230434      -0.00522022       0.00553332
C        2.48101365      -0.05293812       3.53631419       0.00446260       0.00299606       0.00114250
C        1.29825313       2.08142224       3.48457444       0.00134783      -0.00956104       0.00257227
C       -0.01401940       4.32516326       3.19585245      -0.00560828      -0.00007902       0.00459366
C       -1.26852272       6.43501232       3.20658972      -0.00454356      -0.00358401       0.00217929
C       -2.47011871       8.53555222       3.34515125      -0.00753771       0.00118696      -0.00319203
C        4.95370531      -0.02296933       3.49207812       0.00534047      -0.00121202      -0.00059316
C        3.72756444       2.01094173       3.97770701      -0.00158317       0.00482845      -0.00789566
C        1.16939767       6.44586152       3.52324539       0.00587521       0.00028920       0.00206210
C        0.00725819       8.54878453       3.33801994      -0.00668064      -0.00406168       0.00784764
C        7.42051688      -0.00029808       3.42661112       0.00359530      -0.00072857      -0.00811272
C        6.20639138       2.10797620       3.70964926      -0.00810143      -0.00389179       0.00089685
C        5.09919828       4.25260823       4.23455909       0.00224158      -0.00014445       0.00253884
S        3.55170073       6.34173013       4.53903761       0.00160531       0.00411997      -0.00970579
C        2.47214726       8.56916736       3.58385858       0.00543305       0.00588651       0.00575806
C        9.89578009       0.00325544       3.44837794      -0.00272385      -0.00221021      -0.00052601
C        8.66754343       2.13106524       3.42124062       0.00538521       0.00251731      -0.00084270
C        7.44086577       4.25549068       3.58975671       0.00593001       0.00263902       0.00878652
C        6.20664207       6.39782744       3.78739879      -0.00069789       0.01020435       0.00114768
C        4.94176258       8.54168976       3.69993808      -0.00671069       0.00633742      -0.00018669
C        0.04134912       1.42657026       3.41455520      -0.00013797      -0.00274586      -0.00273437
C       -1.21147839       3.55636147       3.25718201      -0.00806201       0.00795328       0.00162521
C       -2.47440141       5.69509230       3.26686504       0.00005141      -0.00041464      -0.00658060
C       -3.70481724       7.81859068       3.40058395       0.00014870      -0.00672037       0.00439688
C       -4.93111452       9.94162862       3.50018769       0.00204285      -0.00308253      -0.00710250
C        2.50033607       1.36062784       3.68742860       0.00405722      -0.00013008       0.00457976
S        1.51549635       3.63804290       2.70314031       0.00147695      -0.00858064      -0.01156445
C       -0.02644409       5.74827163       3.25771590       0.00107665       0.00152946      -0.00667396
C       -1.23588242       7.84539539       3.26695954      -0.01329032      -0.00570064       0.00430454
C       -2.45162381       9.94528097       3.45544570       0.00360344       0.00364107      -0.00481379
C        4.97232261       1.38578637       3.72771723      -0.00581618      -0.00391363      -0.00381544
S        3.68351387       3.46780343       4.88326107      -0.00727120      -0.00353199       0.00060761
C        1.24723102       7.83277050       3.48301131       0.00271850       0.00497237       0.00679687
C        0.01896419       9.96477150       3.39702399       0.00553567      -0.00456224       0.00945880
C        7.42623172       1.41842487       3.50069907      -0.00255639       0.00269289      -0.01090117
C        6.24169556       3.52026633       3.83756368      -0.00051754      -0.00072889      -0.00233176
C        5.06698099       5.63919239       4.16078792       0.00256719       0.00373450       0.00282198
C        3.67933772       7.90260930       3.86212442       0.00218467       0.00279195       0.00005954
C        2.48836900       9.98343126       3.45018251       0.00160375       0.00018077       0.00252486
C        9.90808077       1.42962716       3.37664685       0.00518452      -0.00389794      -0.01106459
C        8.66486222       3.54999939       3.41505467       0.00665107       0.00538474       0.00826703
C        7.42342706       5.68014636       3.57455163       0.00382988       0.00291569      -0.00501604
C        6.16627668       7.81489834       3.68091719      -0.00510000       0.00782647      -0.00191304
C        4.95016748       9.96626690       3.52742216      -0.00603568      -0.00251586      -0.00503380
W        1.79879435       4.82855029       4.67832673       0.00271543      -0.00974164       0.01308852
O        1.04855332       5.29594142      10.52284876       0.00394763      -0.00079453       0.00107987
O        1.88789061       4.85942337      11.49356356      -0.00116658      -0.00038093       0.00177098
H        2.78550482       4.84779743      11.09242160      -0.00283443       0.00120855      -0.00243826
