51
Lattice="12.336457 0.0 0.0 -6.168228499999997 10.683685154694365 0.0 0.0 0.0 15.0" Properties=species:S:1:pos:R:3:initial_magmoms:R:1:forces:R:3 energy=-449.15906038291047 free_energy=-449.15906038291047 stress="0.0008527765935822897 -0.0018038267695025566 -5.816590262790876e-06 -0.0018038267695025566 0.006321854613821935 -9.967851395891293e-07 -5.816590262790876e-06 -9.967851395891293e-07 -3.6421590764724765e-06" pbc="T T T"
C        0.22855873      -0.08550104       3.81910600       0.00000000       0.00188657       0.00155375      -0.00013750
C       -1.02728815       2.03416117       3.73445576       0.00000000       0.00095678      -0.00497065      -0.00793280
C       -2.29578351       4.14485739       3.61944273       0.00000000      -0.00494599      -0.00543030       0.00957575
C       -3.50714730       6.29234463       3.66898484       0.00000000       0.00267879       0.00207239      -0.00342952
C       -4.71753036       8.43920027       3.75444832       0.00000000       0.00409017       0.00177952      -0.00029287
C        2.68484016      -0.10763360       3.80589406       0.00000000      -0.00211875      -0.00082096       0.00441338
C        1.46978800       2.06699959       3.94482814       0.00000000       0.00645934       0.00083310       0.00465217
C        0.05991620       4.18258974       2.94028583       0.00000000       0.00439209      -0.00224916      -0.00569585
C       -1.07085459       6.29754716       3.59193739       0.00000000       0.00110099       0.00083611       0.00726378
C       -2.25368582       8.43359259       3.71863974       0.00000000      -0.00255509      -0.00096638       0.00788181
C        5.15548260      -0.12312195       3.78514881       0.00000000      -0.00668596       0.00140585       0.00629842
C        3.90968474       2.05468910       3.87465934       0.00000000      -0.00504817      -0.00008230       0.00352231
C        1.38634743       6.20345570       3.76823274       0.00000000       0.00857858       0.00543835       0.00942816
C        0.23474690       8.38604258       3.74603169       0.00000000      -0.00151691      -0.00028627       0.00641047
C        7.61951175      -0.14501234       3.80264623       0.00000000       0.00053300       0.00148765       0.00104465
C        6.36490546       2.02618435       3.79884453       0.00000000       0.00319279      -0.00329134       0.00577110
C        5.07277611       4.19961643       3.84217466       0.00000000       0.00378247      -0.00257491       0.00042484
O        4.01287450       6.36583609       3.76472682       0.00000000      -0.00113414       0.00123179       0.00065437
C        2.71467464       8.37307445       3.81949053       0.00000000      -0.00638413       0.00053508      -0.00312003
C       10.08146097      -0.12653703       3.81656967       0.00000000      -0.00113677       0.00066716       0.00149564
C        8.83132834       2.00840802       3.76397290       0.00000000      -0.00050873       0.00050831       0.00566732
C        7.56988541       4.15365055       3.73980590       0.00000000      -0.00183058       0.00248456      -0.00234634
C        6.37677018       6.30742220       3.77314514       0.00000000      -0.00146909      -0.00231357       0.00565372
C        5.16941752       8.44651171       3.81295332       0.00000000      -0.00039911      -0.00280610      -0.00725923
C        0.24163649       1.36032443       3.82952256       0.00000000       0.00717646       0.00139989       0.00363191
C       -1.08167062       3.41983896       3.55761593       0.00000000      -0.00175693      -0.00584636      -0.00590273
C       -2.29043307       5.57772534       3.59818187       0.00000000       0.00088232      -0.00066415       0.00253797
C       -3.48618073       7.72192264       3.70881934       0.00000000       0.00293290      -0.00147769      -0.00726495
C       -4.71417336       9.87515620       3.79409754       0.00000000       0.00104253      -0.00085084       0.00523584
C        2.68055789       1.32878035       3.88473799       0.00000000      -0.00219937      -0.00142422      -0.00745693
O        0.40957565       4.00267229       1.72100162       0.00000000      -0.00166020       0.00255041      -0.00767132
C        0.15201819       5.58060712       3.52154610       0.00000000       0.00490638       0.00459478       0.00864719
C       -1.02306706       7.71474560       3.68936983       0.00000000      -0.00405816       0.00057748      -0.00660184
C       -2.25169290       9.85675911       3.76676338       0.00000000      -0.00495478      -0.00052478      -0.00153906
C        5.14726741       1.30931284       3.81569869       0.00000000      -0.00476015       0.00331097       0.00181673
C        3.84746427       3.47781603       3.92664213       0.00000000       0.01146210      -0.00860897      -0.00438638
C        1.47626486       7.61819705       3.79113972       0.00000000      -0.00172520      -0.00327044      -0.00257331
C        0.22280457       9.82260040       3.77976608       0.00000000      -0.00444755       0.00390317      -0.00298332
C        7.60185870       1.29129186       3.79240048       0.00000000       0.00388600      -0.00206762      -0.00556159
C        6.33156409       3.46089300       3.79241960       0.00000000       0.00396648      -0.00530268       0.00826715
C        5.15827203       5.62563318       3.81274630       0.00000000      -0.00267361      -0.00013258      -0.00130753
C        3.97150169       7.72924303       3.80697277       0.00000000      -0.00118848       0.00080411       0.00126203
C        2.69129715       9.80832449       3.81662438       0.00000000      -0.00075280       0.00349756       0.00222715
C       10.07077926       1.30229304       3.78225793       0.00000000      -0.00062215       0.00185574      -0.00848578
C        8.81006133       3.43285655       3.71575836       0.00000000      -0.00481862      -0.00208302      -0.00815193
C        7.59656677       5.57744928       3.72002437       0.00000000       0.00026177       0.00495241      -0.00381061
C        6.39239623       7.73241379       3.77979824       0.00000000       0.00170370       0.00109113      -0.00429567
C        5.16082317       9.87882822       3.81812488       0.00000000      -0.00088659       0.00192370      -0.01091734
W        1.84136624       4.15887774       4.29729354       0.00000000      -0.00874558       0.00579659       0.01118445
O       -2.03277249       7.53812472       6.54047094       1.00000000       0.01191128       0.00740216      -0.01052585
O       -2.81376731       6.59279216       6.50731936       1.00000000      -0.00679990      -0.00644844       0.00468199
