52
Lattice="12.336457 0.0 0.0 -6.168228499999997 10.683685154694365 0.0 0.0 0.0 15.0" Properties=species:S:1:pos:R:3:forces:R:3 energy=-456.14459051797564 free_energy=-456.14459051797564 stress="-0.0030094448725308124 -0.0015564719964917396 -1.6568871260821225e-05 -0.0015564719964917396 0.0035929614805771393 -4.352931220574919e-05 -1.6568871260821225e-05 -4.352931220574919e-05 -2.320848027364489e-05" pbc="T T T"
C       -0.07604070       0.01104692       3.74398835      -0.00394855       0.00132108       0.00718018
C       -1.32736807       2.12694717       3.74353764       0.00096614       0.00804154       0.00348640
C       -2.55487766       4.27205119       3.63030849      -0.01225334      -0.00285244      -0.00621937
C       -3.76964180       6.41935398       3.57191790       0.00445313      -0.00505213       0.00916334
C       -5.00357955       8.56588114       3.64001131       0.00551891       0.00613263       0.00064499
C        2.39605572       0.03174978       3.79264645       0.00149812       0.00287326       0.00078703
C        1.14070397       2.15641965       3.98941751       0.00639932      -0.01052132      -0.00548759
C       -0.11883035       4.27644170       3.97068825      -0.00333707      -0.00711629      -0.00958257
C       -1.31752629       6.42208793       3.72523485       0.00001088       0.00077878       0.00235810
C       -2.53803649       8.56432101       3.68036480       0.00069482      -0.00048236       0.00222010
C        4.86366429       0.01160495       3.74671556      -0.00410061      -0.00187459       0.00140986
C        3.62646070       2.19162004       3.90739760       0.00056323      -0.00548887      -0.00370382
N        1.06305127       6.39816498       4.15286071       0.00080224      -0.00065363      -0.00265317
C       -0.06495781       8.52159103       3.79406494       0.00527342       0.00566110      -0.00915270
C        7.33320954      -0.02761119       3.71780492       0.00304382       0.00002932       0.00516511
C        6.09499532       2.13856358       3.66014457      -0.00241168       0.00292759       0.00316920
C        4.86725216       4.30747916       3.75459781       0.00244139      -0.00506880       0.00867662
O        3.74147565       6.45278804       3.71086291      -0.00362119       0.01583573       0.00846197
C        2.40813700       8.46721809       3.83897143      -0.00953075       0.00185639      -0.00344211
C        9.78342677      -0.02841137       3.71420192       0.00069842      -0.00020879      -0.00495713
C        8.55324989       2.12422361       3.62372727      -0.00364627      -0.00538722       0.00441355
C        7.32564757       4.27618242       3.55659893       0.00873092       0.00078800      -0.00031667
C        6.11439526       6.43131447       3.58400817       0.00307659      -0.00314441      -0.00589994
C        4.87128193       8.54453878       3.68846681      -0.00351986      -0.00020421      -0.00494473
C       -0.09109733       1.42783217       3.81915925       0.00029380       0.00105056       0.00802298
C       -1.33795794       3.55477989       3.75424567      -0.01110572       0.00511845      -0.00742082
C       -2.54374105       5.70110335       3.62063245      -0.00180058      -0.00520907       0.01588982
C       -3.76762659       7.84933309       3.61973317       0.00380446      -0.00263319      -0.00385718
C       -5.00180248       9.99558118       3.72845806       0.00055837       0.00930542      -0.00178431
C        2.39154676       1.45950030       3.92621855       0.00676910      -0.00545514      -0.00442150
C        1.05580607       3.54840342       4.19530142      -0.00459532      -0.01208519      -0.00310411
C       -0.11039301       5.71631046       3.93809367       0.00013894      -0.00353890      -0.00532327
C       -1.30992741       7.83999390       3.72368305       0.00455793       0.00453517      -0.00308670
C       -2.54099671       9.99299386       3.74034963      -0.00422147      -0.00127443       0.00589784
C        4.86107248       1.43954691       3.75801295      -0.00150792      -0.00253550       0.00909811
C        3.66767224       3.60727407       4.01776569       0.00032788      -0.00516566      -0.00863960
C        1.14405914       7.76991175       3.93123479      -0.00096496      -0.00131292      -0.00499499
C       -0.06971140       9.95610770       3.74612329       0.00236914       0.00471748      -0.00817705
C        7.32665798       1.40696826       3.64909519      -0.00476271      -0.00071773       0.01016940
C        6.09929824       3.56875680       3.61539530       0.00811155       0.00285687      -0.00258319
C        4.92412154       5.72255823       3.68881834      -0.00281686       0.00050264       0.00937145
C        3.66918309       7.85085869       3.77794810      -0.00918398       0.00637259      -0.00228791
C        2.39360409       9.91763224       3.75083817       0.00067701      -0.00228652      -0.00527677
C        9.78062975       1.40627390       3.68242561       0.00268265       0.00203271      -0.01314673
C        8.55507974       3.55531220       3.58039825      -0.00404185      -0.00753249      -0.00045907
C        7.34010509       5.70196497       3.55270908       0.00707295      -0.00224619      -0.00525619
C        6.11273112       7.85232047       3.61790598       0.00332561       0.00217355      -0.00214117
C        4.85779139       9.97085222       3.71081012      -0.00242039      -0.00355011       0.00282107
W        2.38015189       4.95685074       5.01331945       0.00002053      -0.00105514       0.01104960
O        3.05783990       4.75842814       6.61133419       0.00267906      -0.00654459      -0.00417189
O        3.48790525       4.49629313       8.26097648       0.01138652       0.01380460       0.00121867
H        4.41167222       4.80637727       8.11049032      -0.00515575       0.01248235       0.01181684
