51
Lattice="12.336457 0.0 0.0 -6.168228499999997 10.683685154694365 0.0 0.0 0.0 15.0" Properties=species:S:1:pos:R:3:initial_magmoms:R:1:forces:R:3 energy=-452.22005852658503 free_energy=-452.22005852658503 stress="-0.0044398088517194 0.006512448137233045 -2.9320181778174602e-05 0.006512448137233045 -0.000772162487052691 8.628067457868389e-06 -2.9320181778174602e-05 8.628067457868389e-06 -8.107362622771076e-05" pbc="T T T"
C       -0.00670547      -0.04230839       3.81752039       0.00000000       0.01531177       0.01148996      -0.00532684
C       -1.21272400       2.10440012       3.74913244       0.00000000       0.01063624      -0.00641810       0.01369662
C       -2.44597982       4.23853680       3.62686031       0.00000000       0.00284302      -0.00419078      -0.00408518
C       -3.71508457       6.36841547       3.68449179       0.00000000      -0.01820084       0.00183144      -0.01360452
C       -4.98031548       8.48972411       3.81846921       0.00000000      -0.01551223       0.01162088      -0.03124470
C        2.45156937       0.00146063       3.75568924       0.00000000      -0.00185801      -0.00526034      -0.01418477
C        1.24452148       2.12391015       3.96194976       0.00000000      -0.00748946      -0.01023080      -0.01039937
C       -0.01492874       4.25231768       3.99316694       0.00000000      -0.00458619       0.00063442       0.01428116
C       -1.26883933       6.39254787       3.79160575       0.00000000       0.01392882       0.00766420       0.01593490
C       -2.51481762       8.52436828       3.72747400       0.00000000      -0.00023591       0.00612590      -0.01129601
C        4.90973159      -0.02870765       3.62127444       0.00000000       0.01404133      -0.00168246      -0.00645958
C        3.74699515       2.10193184       3.57786472       0.00000000       0.00218859      -0.00491175       0.01920070
C        1.11484826       6.45925522       4.18564377       0.00000000      -0.01258427       0.00874284       0.00327150
C       -0.05920234       8.54207174       3.79707389       0.00000000       0.00465191       0.00283907      -0.00218267
C        7.39179389      -0.03493839       3.63750392       0.00000000      -0.01037268      -0.00680086      -0.00791347
C        6.19943924       2.06840350       3.43947323       0.00000000       0.00509392      -0.00560350      -0.00844281
C        5.03557949       4.12420199       3.69931391       0.00000000      -0.00629039       0.02211265       0.02792198
O        3.48559804       6.64125260       3.09873432       0.00000000      -0.02115785       0.02280762       0.00221367
C        2.40623237       8.55097721       3.90784102       0.00000000      -0.00572819      -0.00382168       0.01985408
C        9.87203826      -0.04334990       3.72038855       0.00000000       0.00555985      -0.00060578       0.00255784
C        8.66725956       2.08608605       3.52342954       0.00000000       0.00136630       0.00390346       0.01026735
C        7.44678700       4.21486543       3.51617005       0.00000000      -0.03212187      -0.00999506       0.02482416
C        6.15605527       6.29094669       3.91436674       0.00000000      -0.02400424      -0.02123326      -0.00919198
C        4.90454928       8.48180026       3.82630824       0.00000000       0.02702376       0.00829964       0.00097672
C        0.02098068       1.39844321       3.84714049       0.00000000       0.00039948      -0.00203356       0.00461444
C       -1.21841249       3.53080150       3.75710314       0.00000000       0.01216005      -0.01214438       0.02961443
C       -2.47566711       5.66507631       3.67548781       0.00000000       0.00865341       0.00411833       0.01963925
C       -3.73893560       7.79485815       3.75074286       0.00000000      -0.02131432       0.01168279      -0.01369378
C       -4.95229832       9.93363492       3.81272934       0.00000000       0.00333490       0.00744778      -0.01104313
C        2.48697999       1.44251099       3.77130624       0.00000000      -0.01827199      -0.00372812       0.00419383
C        1.15380519       3.51627575       4.31929085       0.00000000       0.01594985       0.02707929       0.02313586
C       -0.02834055       5.69387195       3.99963838       0.00000000       0.00288095      -0.00505156       0.01615494
C       -1.28446153       7.81811471       3.76329301       0.00000000       0.01047118       0.00871190      -0.01354419
C       -2.49919665       9.95576857       3.69772237       0.00000000       0.00898782       0.00447230       0.00144849
C        4.94273139       1.38689552       3.52534900       0.00000000       0.00675416      -0.00507011      -0.00915287
O        3.84104221       3.46893300       3.43842767       0.00000000       0.00798923      -0.00093243       0.00173018
C        1.16857426       7.83513895       3.97284644       0.00000000      -0.00688813       0.00202652      -0.01333448
C       -0.02596781       9.94972535       3.67236935       0.00000000      -0.00120405      -0.00876486      -0.01005436
C        7.42107436       1.37316265       3.49950847       0.00000000       0.00718439      -0.00863300      -0.00185771
C        6.24132382       3.46895453       3.46137753       0.00000000      -0.01507126      -0.01014855       0.00226078
C        5.05476711       5.44081614       4.14546761       0.00000000       0.04308864      -0.01855586       0.01334220
C        3.61338953       7.81892714       3.69521661       0.00000000       0.00675388      -0.00427806      -0.00441886
C        2.45289403       9.95399524       3.75641205       0.00000000      -0.00953674      -0.00826295      -0.01658258
C        9.89309274       1.38057520       3.64460063       0.00000000       0.00466849       0.00028134       0.01864843
C        8.67740844       3.51109493       3.51285584       0.00000000      -0.01727449       0.00845829       0.01684364
C        7.40835883       5.63050604       3.68038708       0.00000000      -0.02379170      -0.00731609      -0.01403902
C        6.12051928       7.74743951       3.87954487       0.00000000      -0.00280861      -0.00754825      -0.00061650
C        4.92321490       9.91255668       3.79483302       0.00000000       0.02398957       0.01208037      -0.00740630
W        3.01620159       5.77206265       4.92137561       0.00000000       0.01791234      -0.02176504      -0.20733327
O        2.07109108       4.04863640       5.11738918       1.00000000      -0.01538682       0.01708878      -0.02354383
O        3.35938157       6.68365175       6.34649088       1.00000000       0.00786636      -0.00653255       0.16432564
