52
Lattice="12.336457 0.0 0.0 -6.168228499999997 10.683685154694365 0.0 0.0 0.0 15.0" Properties=species:S:1:pos:R:3:forces:R:3 energy=-456.31427326668717 free_energy=-456.31427326668717 stress="-0.002063598044385329 0.0018842749101654918 -2.2718762515603327e-05 0.0018842749101654918 0.005958314659122584 -2.278974483078121e-06 -2.2718762515603327e-05 -2.278974483078121e-06 -1.8230855846702442e-06" pbc="T T T"
C       -0.05907763       0.13962268       3.82776420       0.00478153       0.00303090      -0.00633474
C       -1.30149902       2.25010718       3.86513812      -0.00128918       0.00184465       0.00120396
C       -2.55198020       4.38699748       3.76722124      -0.00353792      -0.00146232      -0.00035523
C       -3.78920695       6.53315095       3.66088772       0.00256522       0.00060225       0.01318370
C       -5.00922428       8.68270207       3.70125247       0.00195462       0.00921059       0.00298587
C        2.40571779       0.17282769       3.72852871      -0.00244426      -0.00156635       0.00165613
C        1.19128432       2.33906559       3.97060626       0.00330603      -0.00758972      -0.00393576
C       -0.10711388       4.39531572       4.08546472       0.00207394      -0.00053208       0.00763827
C       -1.35511709       6.54433217       3.86217702       0.00253578       0.00554643      -0.00093563
C       -2.55403677       8.68524453       3.72237308      -0.00838699      -0.00506364      -0.00844212
C        4.87004831       0.11478969       3.68625217      -0.00948870      -0.00186074       0.00963094
C        3.68131009       2.24413634       3.56229351      -0.00090657      -0.00082434       0.00005946
C        1.03931837       6.54177672       4.32450055       0.00482532      -0.00595538       0.00564494
C       -0.08641044       8.65520153       3.89064349       0.00503688       0.00111270       0.00902510
C        7.34545112       0.08180037       3.79527778       0.00420760      -0.00293932       0.00853664
C        6.12057291       2.22963628       3.61707513      -0.00023717       0.00495794       0.00571517
C        4.90246063       4.35564542       3.63777151      -0.00010697      -0.00047182      -0.00393257
N        3.71379460       6.50047358       4.07350841      -0.00884946       0.00480708       0.00826511
C        2.41014636       8.60438694       4.01643090      -0.00773997      -0.00565389      -0.00056938
C        9.80411805       0.09013377       3.85677321       0.00513143       0.00282281      -0.00490327
C        8.57552482       2.23372655       3.73917737      -0.00850825       0.00128900       0.00306131
C        7.33478165       4.38232404       3.63278336       0.00192209       0.00185091       0.00545300
C        6.08808797       6.51994367       3.64982281       0.00698661      -0.00272624      -0.00662937
C        4.87083920       8.64423892       3.83163384       0.00108231      -0.00027687      -0.00113020
C       -0.04596056       1.57236262       3.89082167       0.00139172      -0.00231943      -0.00849745
C       -1.32778931       3.67221958       3.88413364       0.00009756       0.00151979      -0.00123911
C       -2.56658211       5.81900355       3.74617852       0.00214765       0.00115596      -0.00028643
C       -3.78275327       7.96540785       3.68140842      -0.00603416      -0.00206906      -0.00982795
C       -4.99468047      10.12086992       3.75923186       0.00282563       0.00467594      -0.00623917
C        2.43226404       1.61523714       3.76026433       0.00092900      -0.00506010      -0.00307539
C        1.11971851       3.72840680       4.24303447      -0.00018771      -0.01091905       0.00306989
C       -0.14264453       5.82865831       4.09755454       0.00317874       0.00020770      -0.00269589
C       -1.32840555       7.96434365       3.81555984       0.00113284       0.00742366       0.00304499
C       -2.54280134      10.11561064       3.70106607      -0.00987279      -0.00724555      -0.00459293
C        4.88530504       1.53351546       3.59411074      -0.00269949       0.00355533       0.00895367
O        3.75641685       3.61373736       3.37818849      -0.00073942      -0.00061820       0.00394185
C        1.14682223       7.91344820       4.08695153       0.00062191      -0.00917793       0.00272128
C       -0.06679747      10.06915068       3.78329765      -0.00129230       0.00183583      -0.00308202
C        7.34117401       1.51479369       3.70709938      -0.00241841      -0.00317411      -0.01056181
C        6.11170314       3.65486097       3.61901127       0.00251019       0.00431302       0.01176193
C        4.86980681       5.78977706       3.75269761      -0.00081900      -0.00182946       0.00685466
C        3.65531872       7.88559247       3.97824974      -0.00850834       0.00146281      -0.01090016
C        2.40775148      10.04072004       3.88811977       0.00518906      -0.00323939       0.00288329
C        9.80437815       1.52053907       3.81624823      -0.00360654       0.00719866      -0.00288982
C        8.56522162       3.66610685       3.69762046      -0.00453716      -0.00010708      -0.00484904
C        7.31934969       5.80821971       3.62168650       0.00753956      -0.00038282       0.00022117
C        6.09730585       7.95017834       3.71472366       0.00462365       0.00447897      -0.00094122
C        4.87300625      10.07825716       3.84723376       0.00531424       0.00321125      -0.01837307
W        2.47511740       5.16335671       5.12788522      -0.01079155       0.00482892      -0.00254663
O        3.28153722       3.97470394       6.14577482       0.00761369       0.00220148      -0.00342849
O        4.53851555       2.69969131       6.36804326       0.00125790      -0.01331358       0.00437108
H        4.17581773       2.56473347       7.27611893       0.01021961       0.01123392       0.00131145
