51
Lattice="12.336457 0.0 0.0 -6.168228499999997 10.683685154694365 0.0 0.0 0.0 15.0" Properties=species:S:1:pos:R:3:initial_magmoms:R:1:forces:R:3 energy=-455.22827030207674 free_energy=-455.22827030207674 stress="-0.002400002063241479 0.0004566868187014223 -6.581847385625194e-07 0.0004566868187014223 0.003177734354024665 7.082891518185778e-06 -6.581847385625194e-07 7.082891518185778e-06 -1.2084912860893313e-05" pbc="T T T"
C        0.01469578      -0.00527396       3.61605696       0.00000000      -0.00346376      -0.00268674       0.00098810
C       -1.22840267       2.12236383       3.71701265       0.00000000       0.00111177       0.00296651      -0.00119397
C       -2.46322821       4.26050157       3.65654780       0.00000000       0.00172308      -0.00050227      -0.00186980
C       -3.69461933       6.40474173       3.54372043       0.00000000      -0.00456935       0.00346346       0.00173039
C       -4.92235340       8.54894691       3.54220893       0.00000000       0.00295054      -0.00216225       0.00242409
C        2.48413320       0.03892322       3.62021370       0.00000000      -0.00422200       0.00363965       0.00366134
C        1.23234661       2.14040949       3.86656593       0.00000000       0.00195124      -0.00130260      -0.00989668
C       -0.03379446       4.25134204       4.08118665       0.00000000       0.00074923      -0.00147107       0.00390983
C       -1.25503021       6.40540343       3.77588232       0.00000000      -0.00041447      -0.00484480       0.00415911
C       -2.46370638       8.54995146       3.60276732       0.00000000       0.00161462       0.00451918      -0.00318288
C        4.94228395      -0.00437140       3.62746459       0.00000000       0.00187052       0.00146767      -0.00577125
C        3.75099587       2.13836765       3.65655311       0.00000000       0.00241987      -0.00092555      -0.00118726
C        1.11818833       6.45028532       4.24722279       0.00000000       0.00126982      -0.00246228       0.01294002
C       -0.00336749       8.53907287       3.76917634       0.00000000      -0.00310423       0.00578990      -0.00797811
C        7.41985280      -0.03253782       3.66978020       0.00000000       0.00684646      -0.00189408       0.00043492
C        6.19046036       2.11708209       3.58652005       0.00000000      -0.00147176       0.00457378       0.00938825
C        4.98664187       4.24417836       3.70050478       0.00000000      -0.00082038       0.00399325      -0.00536000
N        3.83083010       6.42134608       4.04145532       0.00000000      -0.00342458      -0.00949923       0.00995880
C        2.49383489       8.49735725       3.87582489       0.00000000      -0.00225188      -0.00894841       0.00296161
C        9.88104886      -0.03053839       3.66439415       0.00000000      -0.00389222       0.00051079      -0.00787725
C        8.65084911       2.11493269       3.60401576       0.00000000      -0.00254710      -0.00503959       0.00442707
C        7.41685908       4.26278522       3.54803194       0.00000000       0.00772402       0.00203747       0.00466142
C        6.18058875       6.39433697       3.56940021       0.00000000      -0.00390034       0.00161757      -0.00270067
C        4.95511323       8.52315768       3.65360565       0.00000000       0.00137035       0.00199278      -0.00176212
C        0.01793109       1.42325672       3.71363775       0.00000000      -0.00035723      -0.00084221       0.00864018
C       -1.24030836       3.54314370       3.79285177       0.00000000       0.00079285       0.00214151       0.00661098
C       -2.46946185       5.68914161       3.64274565       0.00000000      -0.00512861      -0.00088735       0.00518232
C       -3.69128498       7.83338002       3.54604184       0.00000000       0.00266940       0.00366900       0.00763278
C       -4.91610827       9.98485630       3.58635732       0.00000000      -0.00244231      -0.00176450       0.00198799
C        2.49646036       1.47566860       3.71984025       0.00000000       0.00116873       0.00439902      -0.00326417
C        1.10721235       3.46090724       4.41837263       0.00000000       0.00415312      -0.00215342      -0.00152107
C       -0.04334038       5.68856997       4.06521102       0.00000000       0.00392379      -0.00588660       0.00537951
C       -1.23678412       7.83093525       3.70596383       0.00000000       0.00012418      -0.00004429      -0.00478987
C       -2.46092935       9.98459903       3.60853029       0.00000000      -0.00243951       0.00490237      -0.00923946
C        4.94964525       1.42641972       3.61114761       0.00000000       0.00264597      -0.00135699       0.00663890
O        3.80602091       3.52320233       3.63887873       0.00000000       0.00022923      -0.00307995      -0.00901503
C        1.23150184       7.81387317       3.97151527       0.00000000      -0.00717674      -0.00331940      -0.00823069
C        0.00838943       9.95461112       3.67673966       0.00000000       0.00512746       0.00633715       0.00684166
C        7.41420331       1.39904388       3.60392420       0.00000000      -0.00298068      -0.00144126      -0.00288800
C        6.18889046       3.53988016       3.58922200       0.00000000       0.00135998       0.00861427      -0.00807474
C        4.96847854       5.67668775       3.75704299       0.00000000      -0.00390694      -0.00064817      -0.00116114
C        3.74483263       7.79021170       3.84660599       0.00000000       0.00070216      -0.00107601       0.00198321
C        2.48543013       9.92854951       3.72413408       0.00000000       0.00174618      -0.00837959      -0.00013837
C        9.88081136       1.40007848       3.64610882       0.00000000      -0.00037622       0.00076997      -0.00753140
C        8.64791346       3.54489932       3.57945582       0.00000000       0.00497296      -0.00514849       0.00124997
C        7.41056434       5.68353969       3.52556284       0.00000000      -0.00221663       0.00212965      -0.00370643
C        6.18441906       7.82356951       3.56981517       0.00000000       0.00193560      -0.00043583      -0.00321282
C        4.94871735       9.95110440       3.63449452       0.00000000      -0.00410192       0.00108389      -0.00519297
W        2.57244063       5.44022116       5.35583407       0.00000000       0.00434792       0.01052180      -0.00876150
O        1.85984564       3.65173419       5.51649127       1.00000000       0.00055692       0.00619144       0.00642033
O        2.79111464       6.32005987       6.82330489       1.00000000      -0.00284913      -0.00912914       0.00529491
