51
Lattice="12.336457 0.0 0.0 -6.168228499999997 10.683685154694365 0.0 0.0 0.0 15.0" Properties=species:S:1:pos:R:3:initial_magmoms:R:1:forces:R:3 energy=-448.23694869744355 free_energy=-448.23694869744355 stress="-0.0015274398024847063 -0.00020829286566730173 3.1863788828285525e-05 -0.00020829286566730173 0.00397960124639187 -1.978949076560503e-05 3.1863788828285525e-05 -1.978949076560503e-05 -2.296021096856557e-05" pbc="T T T"
C       -0.04618339      -0.06998080       3.73271144       0.00000000       0.01002462       0.04463389      -0.03827681
C       -1.28267640       2.06149164       3.69277106       0.00000000       0.01224336      -0.00364099       0.00783518
C       -2.50388462       4.20015048       3.62246187       0.00000000       0.01374022       0.01578015      -0.00486386
C       -3.73566364       6.34053942       3.65054682       0.00000000      -0.00929159      -0.00598901      -0.05964513
C       -4.97415141       8.48488388       3.67317619       0.00000000       0.01117131      -0.00241680       0.00659453
C        2.42623750      -0.05081699       3.76133248       0.00000000       0.02137142      -0.00368305      -0.01191958
C        1.17644035       2.08887196       3.95973755       0.00000000      -0.01418131      -0.02592328      -0.04446164
C       -0.04817572       4.22746889       3.90968159       0.00000000      -0.00505432      -0.02813127      -0.01474494
C       -1.27961628       6.35478460       3.71293769       0.00000000      -0.04312615       0.02087572      -0.01189543
C       -2.50301795       8.48705303       3.66683895       0.00000000       0.00239914       0.00114989       0.05900471
C        4.89868448      -0.06378040       3.67188114       0.00000000       0.01447972       0.00540194      -0.04903524
C        3.67713187       2.09621080       3.88864766       0.00000000      -0.01559655      -0.04394026       0.07168054
O        1.10479890       6.37312980       3.83136137       0.00000000       0.00772654       0.00012145       0.07675233
C       -0.03024024       8.45922295       3.66585491       0.00000000      -0.02656375       0.00347313      -0.03911527
C        7.37263060      -0.10175154       3.61080021       0.00000000       0.00651545      -0.04568907      -0.03420642
C        6.13948519       2.06260892       3.61751396       0.00000000      -0.02887050       0.00656867      -0.01171083
C        4.90430884       4.22316592       3.82910231       0.00000000      -0.01310891       0.04104732      -0.00198842
O        3.76033181       6.37362964       3.77134310       0.00000000       0.01950747       0.01489776      -0.00065872
C        2.42914568       8.37670596       3.65130588       0.00000000      -0.01115937      -0.01557707      -0.03594032
C        9.81955175      -0.10394964       3.64556896       0.00000000      -0.00071844      -0.00435621      -0.05576062
C        8.59696995       2.05132540       3.57602214       0.00000000       0.03087320      -0.00431804      -0.00875404
C        7.36707757       4.20054460       3.59172040       0.00000000      -0.03066980       0.00860762       0.01038229
C        6.14280813       6.35227369       3.66690058       0.00000000       0.02482437       0.02151165      -0.00668578
C        4.89276792       8.45738639       3.64603753       0.00000000       0.00762937       0.01374072      -0.01640833
C       -0.05808368       1.35106864       3.78532377       0.00000000      -0.00413066       0.03711766      -0.04156067
C       -1.27970534       3.49146403       3.69799708       0.00000000      -0.01828441      -0.01424396       0.02200068
C       -2.50503405       5.62538247       3.65228744       0.00000000      -0.01559438      -0.00288658       0.04258784
C       -3.73777818       7.77073594       3.66720484       0.00000000       0.00471479       0.00223104      -0.01762244
C       -4.97246191       9.91466835       3.71960213       0.00000000       0.01265239       0.01384077       0.05242181
C        2.42846113       1.38424431       3.90052643       0.00000000      -0.03158313      -0.02137900       0.02844735
C        1.10786173       3.48391174       4.20449966       0.00000000       0.01750126      -0.03213197      -0.03547420
C       -0.06913169       5.66290895       3.83665230       0.00000000       0.00741490      -0.01804192       0.00097777
C       -1.27736519       7.77009357       3.68995130       0.00000000      -0.02037671       0.01753538      -0.06469228
C       -2.51086041       9.91831247       3.69206033       0.00000000       0.03576763      -0.00998341       0.05275556
C        4.91017161       1.35783909       3.69243778       0.00000000      -0.01341624      -0.01591326       0.02128336
C        3.74836790       3.48628366       4.14559425       0.00000000       0.03575237      -0.02706147      -0.06258289
C        1.16035322       7.73958782       3.68479466       0.00000000      -0.01812331      -0.00126629      -0.06148331
C       -0.03396590       9.89274295       3.63470244       0.00000000      -0.00111930      -0.02885737       0.05277160
C        7.37042796       1.33527971       3.58049402       0.00000000       0.01410390      -0.01428730       0.02743019
C        6.14062559       3.49042262       3.62767224       0.00000000      -0.04240652       0.03510084       0.03438526
C        4.92719531       5.65949107       3.75502327       0.00000000       0.03387766       0.03674063       0.01998868
C        3.70201246       7.73515496       3.64019294       0.00000000      -0.00752976       0.01013313       0.02268276
C        2.42777650       9.83131634       3.61950975       0.00000000      -0.00171503      -0.02826072       0.03728082
C        9.82269372       1.33417305       3.62143292       0.00000000       0.01852799      -0.01828127       0.03498237
C        8.59933399       3.48197320       3.57410921       0.00000000       0.00208759       0.02097785       0.01766573
C        7.36999916       5.62571231       3.63976105       0.00000000      -0.00030499      -0.01045532      -0.04341104
C        6.13860277       7.76740646       3.65996506       0.00000000       0.01351743      -0.00220326       0.00187548
C        4.88932841       9.88810473       3.67823662       0.00000000       0.01160454       0.01679216      -0.03151214
W        2.44844734       4.42445092       5.50515911       0.00000000       0.05755407       0.00928034       0.22507530
O        2.48878516       7.28029325       5.99978956       1.00000000      -0.04215692       0.06280760       0.00222660
O        3.20857585       6.23792810       6.33958092       1.00000000      -0.03250063      -0.03144911      -0.12467840
