51
Lattice="12.336457 0.0 0.0 -6.168228499999997 10.683685154694365 0.0 0.0 0.0 15.0" Properties=species:S:1:pos:R:3:initial_magmoms:R:1:forces:R:3 energy=-450.9490317151449 free_energy=-450.9490317151449 stress="-0.0059167671592597025 -0.001222269021159842 3.321032191799857e-05 -0.001222269021159842 0.001580878889483212 -3.808322085085466e-05 3.321032191799857e-05 -3.808322085085466e-05 -3.929881488531051e-06" pbc="T T T"
C       -0.01803668      -0.02882093       3.76534979       0.00000000      -0.00499825       0.00480357       0.00022718
C       -1.26880913       2.09136906       3.74201823       0.00000000       0.00415058       0.00154117       0.01035655
C       -2.49220659       4.24149157       3.58531210       0.00000000       0.01124896      -0.00252536       0.00854757
C       -3.71741904       6.39252543       3.53898844       0.00000000      -0.00193028      -0.00510024      -0.00225251
C       -4.94394546       8.53722431       3.64856939       0.00000000      -0.00316519      -0.00228703       0.00149137
C        2.44101063       0.01481467       3.71855658       0.00000000      -0.00108712      -0.00375823       0.00118365
C        1.17549631       2.08404402       3.94207983       0.00000000      -0.00202005       0.00862627      -0.00311914
C       -0.09841166       4.23929719       3.89374593       0.00000000       0.01390934      -0.00480982      -0.00003240
C       -1.28344303       6.38506702       3.62126193       0.00000000       0.00329484       0.00381992       0.00604135
C       -2.49114339       8.54222588       3.59454114       0.00000000      -0.00201368      -0.00494545       0.00165255
C        4.91416742      -0.01476517       3.63230282       0.00000000       0.00911203      -0.00297135      -0.00065395
C        3.68599160       2.15403646       3.76658645       0.00000000       0.00273929       0.00150112      -0.00756382
C        1.12123014       6.39409132       3.93446339       0.00000000      -0.01135764      -0.00280848      -0.00811664
C       -0.02797139       8.52068333       3.67800337       0.00000000       0.00412793      -0.00128387      -0.00671529
C        7.39111026      -0.05286831       3.66071209       0.00000000      -0.00661597       0.00841932      -0.00313153
C        6.16239106       2.10152349       3.57827666       0.00000000      -0.00412022      -0.00007992       0.00095550
C        4.95890064       4.26033273       3.71282602       0.00000000       0.00288708      -0.00465621      -0.00152350
N        3.79655471       6.37859903       3.96894235       0.00000000       0.01083289      -0.01101128       0.00695222
C        2.46375968       8.46859174       3.83385500       0.00000000       0.00252571      -0.00060520       0.00028827
C        9.84813493      -0.05687299       3.73926108       0.00000000       0.00018496      -0.00484285      -0.00409331
C        8.61904531       2.09208286       3.59854066       0.00000000       0.00016251       0.00026896       0.00619214
C        7.40163090       4.24493656       3.53083945       0.00000000      -0.01175812       0.00543884      -0.00346382
C        6.17839963       6.40186034       3.63558973       0.00000000      -0.00890144       0.00444112      -0.00297748
C        4.92835174       8.49888576       3.77551780       0.00000000       0.00814202      -0.00210698      -0.00506501
C       -0.02901600       1.39922768       3.81889289       0.00000000      -0.00013211       0.00450755       0.00292619
C       -1.26719796       3.51588914       3.71433001       0.00000000       0.01534071      -0.00074186       0.00091073
C       -2.49419125       5.66692229       3.55810716       0.00000000       0.00795164       0.00000813       0.00366629
C       -3.71655844       7.82237191       3.57948200       0.00000000      -0.00443379      -0.00745955       0.00598489
C       -4.94778856       9.96888982       3.71715029       0.00000000      -0.00769092      -0.00249180      -0.00692111
C        2.42396663       1.45209937       3.82828162       0.00000000      -0.00165112       0.00198289       0.00455935
O        1.05933953       3.48502154       4.24489981       0.00000000      -0.00576420      -0.00932373      -0.00478538
C       -0.06670823       5.64901472       3.81014024       0.00000000      -0.00390401      -0.00349897       0.00166623
C       -1.26368957       7.81537331       3.61291351       0.00000000       0.00338945       0.00358823      -0.01218964
C       -2.49435598       9.97191243       3.64139550       0.00000000       0.00724899      -0.00389020       0.01395522
C        4.91760701       1.40744486       3.63987848       0.00000000       0.00404639      -0.00098396       0.00265338
C        3.76649487       3.54815836       3.84581793       0.00000000       0.00564989       0.00348352       0.00811331
C        1.20696915       7.77867876       3.81505973       0.00000000       0.00173656      -0.00377434      -0.00140396
C       -0.01989923       9.93947269       3.64607411       0.00000000       0.00462190      -0.00196317      -0.00437952
C        7.39198650       1.37426157       3.59518179       0.00000000      -0.00587747       0.00622760       0.01143196
C        6.18311102       3.52871548       3.56777259       0.00000000      -0.00454386      -0.00416483       0.00298807
C        4.96535086       5.69666829       3.75778865       0.00000000       0.00346812      -0.00850828       0.00491633
C        3.71195004       7.75371239       3.87151898       0.00000000       0.00976715      -0.00513248      -0.00653781
C        2.45463615       9.90100126       3.74219388       0.00000000      -0.00772822       0.00466163      -0.00570705
C        9.85126463       1.37654527       3.68491918       0.00000000       0.00544156      -0.00241860      -0.00698571
C        8.62375648       3.52277347       3.54878777       0.00000000      -0.00183267       0.00552971       0.00113402
C        7.39941003       5.67540731       3.54995468       0.00000000      -0.01359695       0.00733891      -0.01116487
C        6.16760192       7.81778166       3.68771950       0.00000000       0.00121514       0.00126261      -0.00197957
C        4.91610651       9.92442970       3.76527389       0.00000000       0.00072620      -0.00211084      -0.00082199
W        2.42841314       4.96250637       4.72845983       0.00000000      -0.01103805       0.00850291      -0.00211277
O        3.49085406       6.14367671       7.31467016       1.00000000      -0.01351256       0.01216601       0.00199150
O        2.87221205       5.50194461       6.33683301       1.00000000      -0.00424795       0.01213490       0.00291197
