52
Lattice="12.336457 0.0 0.0 -6.168228499999997 10.683685154694365 0.0 0.0 0.0 15.0" Properties=species:S:1:pos:R:3:forces:R:3 energy=-452.8754643282365 free_energy=-452.8754643282365 stress="-0.00032448778462928563 -0.00011353968372823734 2.2714670650989197e-05 -0.00011353968372823734 0.005436552774999871 -1.5901413831978602e-05 2.2714670650989197e-05 -1.5901413831978602e-05 1.5721046412345386e-05" pbc="T T T"
C       -0.03098564      -0.06255303       3.98928427      -0.00287275      -0.00364895      -0.00542900
C       -1.27164829       2.06633160       3.86059986      -0.00276243       0.00696028      -0.00985374
C       -2.54302603       4.17068355       3.66843029      -0.01037267       0.00219298       0.00003957
C       -3.77228021       6.31827898       3.73772373       0.00609442      -0.00216153      -0.01037974
C       -4.98638666       8.46078603       3.88153378      -0.00253995      -0.00086817       0.00202390
C        2.42356677      -0.08522106       3.95047377       0.00049770       0.00269885      -0.00426490
C        1.22738815       2.07775747       4.19347223      -0.00713486      -0.00432935      -0.00559006
C       -0.15173498       4.21522521       3.10343745       0.00326751      -0.00602773       0.00581954
C       -1.33677449       6.33206026       3.63402877       0.00238901      -0.00844523      -0.00259092
C       -2.52142915       8.46489199       3.79756051       0.00178039       0.00036590       0.00180066
C        4.89761187      -0.10024559       3.85807676       0.00824354       0.00142272      -0.01048933
C        3.66519799       2.06995690       3.95105611       0.00277054      -0.00025270       0.00761435
C        1.09496151       6.26242491       3.87490947      -0.00825539      -0.00024109      -0.01388751
C       -0.02954676       8.42239743       3.81285591       0.00020050      -0.00511863       0.00292055
C        7.36797681      -0.11995102       3.86374138       0.00159955       0.00508079      -0.00913451
C        6.12016649       2.04498081       3.82880013      -0.00024572      -0.00188019      -0.01277744
C        4.83435038       4.21431876       3.83685178       0.00240033      -0.00350897      -0.00895026
O        3.74640408       6.37697952       3.62646119      -0.00255742       0.00202005      -0.00485567
C        2.45455367       8.39686263       3.87755357       0.00313317       0.00002116       0.00463495
C        9.82941684      -0.10269249       3.91392867      -0.00059282      -0.00076916       0.00633699
C        8.58603083       2.03253434       3.82040713       0.00230912       0.00185729      -0.00348729
C        7.32468251       4.17670795       3.77177224      -0.00365592      -0.00085371       0.00360590
C        6.10913584       6.32610649       3.83613284       0.00431192       0.00327397      -0.00423436
C        4.90013668       8.45868681       3.91225510       0.00480740       0.00741261      -0.01358015
C       -0.00210094       1.38895959       4.02665857      -0.00763970      -0.00379568       0.00660816
C       -1.32627478       3.45277227       3.63406225      -0.00943954       0.00725472      -0.00194027
C       -2.55145169       5.60560606       3.64369441       0.00269586      -0.00331916       0.00521509
C       -3.75474502       7.74898908       3.79804139       0.00044777      -0.00169906       0.01263988
C       -4.97651811       9.89564020       3.95080477      -0.00122946      -0.00104031       0.00805553
C        2.42176316       1.35205423       4.04410543      -0.00078910       0.00270514       0.00865790
O        0.40844638       3.92206140       2.00156181      -0.00148664       0.00135516       0.00299833
C       -0.10319959       5.62556743       3.61201191      -0.00323416      -0.01055773       0.00144806
C       -1.29027828       7.74898635       3.74383519       0.00112802      -0.00679334      -0.00420588
C       -2.51390046       9.88589665       3.86760899       0.00575104       0.00397772       0.00545480
C        4.89827697       1.32738734       3.86603275       0.00212989      -0.00000090      -0.00125972
C        3.64179716       3.47397019       3.95203555       0.00542441      -0.00133850       0.01222055
C        1.20515875       7.66068924       3.86637205       0.00091339      -0.00442273       0.00429021
C       -0.03582339       9.85393045       3.84348051       0.00596503      -0.00143411       0.00061065
C        7.35686290       1.31365256       3.83967434       0.00136813       0.00522045      -0.00538772
C        6.08997609       3.47874442       3.80217795      -0.00067220      -0.00516660       0.00162428
C        4.89189811       5.64506989       3.78495964       0.00159767      -0.00075823       0.00636636
C        3.70358938       7.73483453       3.82856835       0.00447701       0.00549486       0.00787814
C        2.43759860       9.83245783       3.88774588      -0.00113537       0.00000095       0.00665195
C        9.82734018       1.32933626       3.87428555       0.00286830       0.00163503       0.00339518
C        8.56274213       3.45699924       3.75809473      -0.00639800       0.00072777       0.00830497
C        7.33393828       5.60132147       3.78149100       0.00552778       0.00009182       0.00054238
C        6.12575211       7.75055919       3.88373739      -0.00080588       0.00261789      -0.00187850
C        4.90207150       9.89437060       3.94605290      -0.00072832       0.00079196      -0.00054703
W        1.69971044       4.24275018       4.59060286       0.01073660       0.00489520       0.00578132
O        2.54939198       5.07512074       5.90001393      -0.01469913       0.00202087      -0.00687553
O        3.68184786       6.27292963       6.50076840       0.00344796       0.00376223       0.00742614
H        3.53652600       5.91653977       7.40924088      -0.00903653       0.00257341      -0.00936676
