52
Lattice="12.336457 0.0 0.0 -6.168228499999997 10.683685154694365 0.0 0.0 0.0 15.0" Properties=species:S:1:pos:R:3:forces:R:3 energy=-452.50445304233796 free_energy=-452.50445304233796 stress="-0.004202889776818425 -6.036911843977789e-06 3.0387788672530602e-05 -6.036911843977789e-06 0.002250272947028845 2.78054128265053e-06 3.0387788672530602e-05 2.78054128265053e-06 5.1575071929710835e-06" pbc="T T T"
C        0.00247289       0.01436401       3.72612705       0.00420176      -0.00164853      -0.00667374
C       -1.24632448       2.12692140       3.77615818      -0.00465617       0.00591265      -0.01178656
C       -2.48408863       4.26594949       3.73829698      -0.00959066      -0.00266750       0.00265088
C       -3.70633878       6.41146458       3.67811096       0.00181707       0.00284235      -0.00067084
C       -4.93677264       8.55749318       3.67108094       0.00088262       0.00234963      -0.00868505
C        2.47112643       0.03180957       3.72568745       0.01041619      -0.00207240       0.00026500
C        1.23179593       2.18797479       3.90032241       0.00436495       0.00024067       0.00432284
C       -0.04285484       4.26561090       3.99370550       0.00582483       0.00319223      -0.01040289
C       -1.26394784       6.41292995       3.82290444      -0.00599540      -0.00275878       0.00599781
C       -2.47441114       8.55604889       3.71245740       0.00013361      -0.00839699       0.00157627
C        4.93610105      -0.00645822       3.69974303      -0.00298921      -0.00612127       0.00087113
C        3.72290050       2.10734713       3.70418184      -0.00396282       0.00327634       0.00065872
C        1.16626056       6.39018002       4.10996246      -0.00191301       0.00060566       0.00508750
C        0.00176177       8.52266376       3.79643441       0.00698589      -0.00112659       0.00492855
C        7.40702537      -0.03084106       3.70635633       0.00251659       0.00465734      -0.00530206
C        6.17932004       2.12330967       3.65614065       0.00859289      -0.01134579       0.00572056
C        4.97883204       4.27642655       3.72901560       0.00448293      -0.00328133      -0.00395161
O        3.76386125       6.43893840       3.53445642      -0.00154116      -0.00152398      -0.00393739
C        2.48246202       8.49092634       3.78119872       0.00374364       0.00247093       0.00872432
C        9.86526257      -0.02570966       3.70382220      -0.00210597       0.00686363       0.00399328
C        8.63363586       2.12001388       3.68026880       0.00213055       0.00497319      -0.00215887
C        7.40222198       4.27006716       3.65716228       0.00406282       0.00631239       0.00672568
C        6.17858031       6.41282702       3.66916774      -0.00308185       0.00347374       0.00603503
C        4.94000665       8.53781283       3.67223918      -0.00553883      -0.00185602      -0.00368824
C        0.00202898       1.43903812       3.79674418      -0.00078248       0.00206431       0.00037574
C       -1.26447754       3.54839150       3.82503974      -0.00305745       0.00570499       0.00173602
C       -2.48396967       5.69562335       3.73831773      -0.00485446      -0.00568928       0.00063768
C       -3.70245745       7.84120938       3.68079921      -0.00056519      -0.00165458       0.00311308
C       -4.92953363       9.99243977       3.70727545       0.01236119       0.00117129      -0.00114578
C        2.48234126       1.47105916       3.78173834       0.00108636      -0.00208676       0.00892565
C        1.16529253       3.57123553       4.11247135       0.01375289       0.00345597       0.00169578
C       -0.04208523       5.69576619       3.99111481      -0.00398014       0.00047051       0.00543203
C       -1.24649403       7.83447028       3.77571039       0.00450155      -0.00169987      -0.01330291
C       -2.47154914       9.98754948       3.70677082       0.00187726      -0.01088299      -0.00126418
C        4.93930723       1.42424053       3.67237826      -0.00369836      -0.00350260      -0.00091123
O        3.76376725       3.52331796       3.53285973      -0.01442742       0.00453791       0.00396400
C        1.23184651       7.77403267       3.90054976       0.00793114      -0.00199287      -0.00863995
C        0.00232632       9.94747112       3.72644896       0.00192573      -0.00011787      -0.00711748
C        7.39885282       1.40417665       3.67011303       0.01191634      -0.00107493      -0.00493801
C        6.17763305       3.54907544       3.67101892       0.00839497      -0.00660346      -0.00144866
C        4.97954316       5.68618988       3.72734493      -0.00431035      -0.00147627      -0.00233901
C        3.72333787       7.85493899       3.70447445      -0.00499718      -0.00468387       0.00169150
C        2.47156049       9.92996331       3.72293357      -0.00054168       0.00471559       0.00773337
C        9.86213824       1.40552029       3.71128801      -0.00343735       0.00865404       0.00105003
C        8.63011367       3.54963568       3.67705012      -0.00483687       0.00013356       0.00307983
C        7.40255977       5.69061896       3.65794628       0.00062932       0.00816039      -0.00344018
C        6.18034138       7.83877396       3.65589696      -0.00345361       0.00292829       0.00464260
C        4.93648816       9.96846160       3.69828719      -0.00451790       0.00091732       0.00152594
W        2.73085796       4.98114158       4.65936823      -0.01753338      -0.00444834       0.00668549
O        2.75953308       4.98602392       6.39129260       0.00923810      -0.00160536      -0.01006383
O        2.59278392       4.99138723       8.12131982      -0.01030358       0.00021353      -0.00305696
H        3.57261831       4.98979192       8.24318272      -0.00709871       0.00001976       0.00507910
