52
Lattice="12.336457 0.0 0.0 -6.168228499999997 10.683685154694365 0.0 0.0 0.0 15.0" Properties=species:S:1:pos:R:3:forces:R:3 energy=-456.5310646835756 free_energy=-456.5310646835756 stress="-0.0023310774948512494 -0.0026185702449189117 -3.161574137754646e-05 -0.0026185702449189117 0.005853009419618138 3.814739684463208e-05 -3.161574137754646e-05 3.814739684463208e-05 -9.900128145693389e-06" pbc="T T T"
C        0.13564521       0.10632581       3.72542569      -0.00322899       0.00305310      -0.00422717
C       -1.12425241       2.21499270       3.62763105      -0.00080368       0.00638773       0.00418051
C       -2.34226444       4.36819809       3.61289325       0.00229095       0.00057116      -0.00483976
C       -3.55057724       6.52200523       3.65130995      -0.00929732       0.00288091       0.00372095
C       -4.78031701       8.67336959       3.72413892      -0.00149473      -0.00063650       0.00444354
C        2.59788992       0.16283273       3.76028625      -0.00213514      -0.00225908      -0.00170560
C        1.31598895       2.24153326       3.63002379       0.00036840      -0.00060668       0.00704137
C        0.08607241       4.32505190       3.56528916      -0.00455543       0.00513067       0.00102012
C       -1.09735608       6.50240865       3.63428596      -0.01269885      -0.01223343       0.00361115
C       -2.32589439       8.67099237       3.70122995       0.00785312      -0.00183180       0.01022383
C        5.06499352       0.12189911       3.84351475       0.00145914       0.00799833       0.00574450
C        3.81563325       2.32036186       4.01978701       0.00844000      -0.00839971       0.00139655
C        1.28475040       6.45813782       4.13158826      -0.00081217       0.00107362       0.00041875
C        0.13700395       8.63148350       3.85042000      -0.00193738       0.00930029      -0.00236524
C        7.53821645       0.07536836       3.88068185      -0.00184107       0.00157541       0.01086208
C        6.30198362       2.23993243       3.89213998      -0.00261964       0.00502042      -0.01720986
C        5.09820991       4.39963055       4.12438365       0.00124115       0.00770355       0.01606396
N        4.01160383       6.56447474       4.35506947       0.00033936      -0.00336881       0.00243608
C        2.61775320       8.58692983       4.05581325       0.00122756       0.00201001       0.00568478
C        9.99490276       0.07077382       3.82631271       0.00413392      -0.00091131       0.01168955
C        8.75947961       2.22210099       3.75115088      -0.00001621      -0.00172925      -0.00096257
C        7.54612417       4.37786528       3.76787083       0.00220710       0.00009654       0.01341285
C        6.34431504       6.53767741       3.85327428       0.00131216       0.00317799       0.00715974
C        5.09666645       8.64457816       3.90073918      -0.00241543      -0.00685871       0.00048892
C        0.11506192       1.52529742       3.64911331      -0.00264749       0.00235396      -0.00308161
C       -1.12296751       3.63529865       3.57643423      -0.00393611       0.00776676      -0.00496728
C       -2.32489302       5.79642603       3.60543963      -0.01392243      -0.00303127      -0.01103267
C       -3.54984221       7.95358038       3.67682366       0.00106753       0.00493571      -0.01456406
C       -4.78934611      10.10622103       3.72473883      -0.00633968      -0.00016914       0.01132773
C        2.56892714       1.60250191       3.81646951       0.00557481      -0.00191795      -0.00985173
O        1.24135327       3.59631127       3.40872634       0.00096058       0.00100806      -0.00078962
C        0.13920318       5.75097749       3.73992195      -0.00164544       0.00309575      -0.00822162
C       -1.09366066       7.93312354       3.71536974       0.00488511      -0.01018520      -0.00537290
C       -2.33704846      10.10621598       3.77187395       0.00368113       0.00147886       0.00435027
C        5.05247018       1.55421353       3.92100600       0.00594784       0.00118667      -0.00824258
C        3.89838994       3.70368385       4.31034576       0.00542195      -0.00899529      -0.00540245
C        1.36794153       7.86024776       4.02119335      -0.00408627       0.00770730       0.01068777
C        0.13265015      10.06204151       3.86266416      -0.00313037       0.01132011      -0.00166282
C        7.53336350       1.50751683       3.83648587      -0.00513165       0.00082939       0.00800034
C        6.32400376       3.66690740       3.90681997      -0.00585879       0.00636738      -0.01485311
C        5.14480316       5.84261850       4.10915608       0.00394031       0.00559873       0.00467996
C        3.88961823       7.90973726       4.10873935      -0.00238162      -0.00777881      -0.01322662
C        2.60361011      10.02579064       3.92248856      -0.00025652      -0.00085130      -0.00822876
C        9.99354765       1.50249605       3.72612559       0.00483635      -0.00101867      -0.01591103
C        8.76589899       3.65462123       3.69541819       0.00431357      -0.00156135      -0.00455030
C        7.56113833       5.80818591       3.73813212      -0.00363212      -0.00026680       0.00038059
C        6.33164250       7.95560530       3.81507128      -0.00161854      -0.00230882       0.00009362
C        5.07164265      10.06219251       3.81119662       0.00202928      -0.00503678       0.00109780
W        2.65779698       5.21778468       5.23722048       0.01347480      -0.01268432       0.00667363
O        1.56004942       4.16984744       6.14092015      -0.00075712      -0.00757758       0.00146000
O        0.23317196       2.99141924       6.35280357       0.00919147       0.00980240       0.00972922
H        0.30618963       3.16431644       7.32225562       0.00300260      -0.01721223      -0.00681080
