51
Lattice="12.336457 0.0 0.0 -6.168228499999997 10.683685154694365 0.0 0.0 0.0 15.0" Properties=species:S:1:pos:R:3:initial_magmoms:R:1:forces:R:3 energy=-451.77573148302145 free_energy=-451.77573148302145 stress="-0.006653018167491196 -0.002746909998217535 2.175574265509018e-06 -0.002746909998217535 -0.0031965945250519447 4.5181611976114284e-07 2.175574265509018e-06 4.5181611976114284e-07 2.647202517172091e-07" pbc="T T T"
C       -0.18796177       0.08948636       3.72547283       0.00000000       0.00068288      -0.00148522       0.00100609
C       -1.44455041       2.20372369       3.76851616       0.00000000      -0.00129424      -0.00203882      -0.00178502
C       -2.67293147       4.34337734       3.76519065       0.00000000      -0.00415343       0.00033900      -0.00050474
C       -3.87157998       6.49207536       3.71297327       0.00000000      -0.00168555       0.00326186       0.00066628
C       -5.10436814       8.64170891       3.69994436       0.00000000       0.00206433      -0.00092833      -0.00040552
C        2.28184895       0.07392064       3.72072241       0.00000000      -0.00051869       0.00052049      -0.00522956
C        1.03672680       2.23970361       3.74580551       0.00000000       0.00435058       0.00109981       0.00563157
C       -0.23195562       4.33692367       3.90490706       0.00000000       0.00272431      -0.00016572      -0.00199202
C       -1.42934395       6.48436704       3.84476857       0.00000000      -0.00199859      -0.00022958       0.00554736
C       -2.64556990       8.62301700       3.76441512       0.00000000      -0.00150849      -0.00707920       0.00341677
C        4.75111068       0.06338627       3.67076646       0.00000000       0.00082538      -0.00098440      -0.00402016
C        3.48839100       2.14048890       3.38135927       0.00000000      -0.00064906       0.00141257      -0.00811454
C        1.04322576       6.42884624       3.95837542       0.00000000       0.00113331      -0.00439909      -0.00110682
C       -0.17627483       8.59867971       3.81026793       0.00000000       0.00251769       0.00384299      -0.00313625
C        7.20773532       0.06632436       3.70177923       0.00000000       0.00596914       0.00297426       0.00029327
C        5.96814583       2.21808461       3.54547184       0.00000000       0.00233941      -0.00246010       0.00144143
C        4.80189588       4.41303826       3.42400307       0.00000000       0.00404929       0.00044891       0.00068627
C        3.58459810       6.52455539       3.56031687       0.00000000      -0.00418967      -0.00168222      -0.00151613
C        2.27763427       8.60764449       3.76171964       0.00000000      -0.00257303       0.00355554      -0.00324376
C        9.66951538       0.06982984       3.71434022       0.00000000       0.00021137       0.00183689       0.00169580
C        8.42976021       2.20778873       3.69141478       0.00000000      -0.00442750      -0.00107966      -0.00013368
C        7.22160776       4.35277679       3.62976637       0.00000000      -0.00006849       0.00318537       0.00446993
C        6.03921553       6.52536685       3.55652397       0.00000000       0.00312571       0.00007688       0.00278983
C        4.76748794       8.64588393       3.64746509       0.00000000       0.00196827      -0.00153417      -0.00069021
C       -0.20163722       1.50790149       3.75622382       0.00000000       0.00278513      -0.00052004       0.00175458
C       -1.45871611       3.62090806       3.81587696       0.00000000      -0.00037717       0.00050519       0.00023467
C       -2.65413129       5.77180067       3.77814973       0.00000000      -0.00401229       0.00196693      -0.00202673
C       -3.87472606       7.91840486       3.72867587       0.00000000      -0.00202314      -0.00084331       0.00470265
C       -5.11853160      10.05971492       3.73032037       0.00000000       0.00120670      -0.00187117       0.00064446
C        2.26615567       1.50240246       3.64292059       0.00000000       0.00031875       0.00377471       0.00217315
C        0.99052808       3.63396784       3.90194306       0.00000000       0.00364236       0.00286223       0.00269406
C       -0.20702599       5.75902135       3.92535255       0.00000000      -0.00077809      -0.00056788       0.00169741
C       -1.41441678       7.90479135       3.81332560       0.00000000       0.00229765       0.00027233      -0.00195658
C       -2.65046963      10.04650738       3.72370690       0.00000000      -0.00147530      -0.00640325      -0.00549382
C        4.74289168       1.49011455       3.52346914       0.00000000       0.00071208       0.00183006       0.00439945
S        3.40819314       3.72340036       2.63069366       0.00000000      -0.00567946      -0.00701004       0.00286153
C        1.06534591       7.85876114       3.85247270       0.00000000      -0.00051040       0.00069274      -0.00279875
C       -0.18240729      10.02391037       3.73102476       0.00000000       0.00585842       0.00442816      -0.00330281
C        7.19539083       1.49925532       3.64569747       0.00000000       0.00110102      -0.00200116       0.00156946
C        5.98515102       3.63975769       3.54250763       0.00000000       0.00330970       0.00044029       0.00104404
C        4.81069244       5.83083770       3.46941345       0.00000000      -0.00024673       0.00139630       0.00371182
C        3.52389419       7.92228742       3.65379455       0.00000000      -0.00437029       0.00383376      -0.00299188
C        2.27044219      10.03551508       3.72936995       0.00000000       0.00262255       0.00265976      -0.00411610
C        9.66010234       1.49106285       3.72468335       0.00000000      -0.00506381       0.00104479      -0.00107581
C        8.43634081       3.63201548       3.69792875       0.00000000      -0.00514739      -0.00106853      -0.00023239
C        7.24343600       5.78248104       3.62546283       0.00000000       0.00189011       0.00237533       0.00768492
C        6.00526715       7.94176048       3.62909168       0.00000000       0.00474030      -0.00139627      -0.00275252
C        4.74790175      10.05728668       3.70081252       0.00000000      -0.00031700      -0.00144214       0.00018069
W        2.49163051       5.01714361       4.38635581       0.00000000      -0.00843366      -0.00201041      -0.01306555
O        7.11123038       2.96002905       7.82684278       1.00000000      -0.00059921      -0.00117039      -0.01062850
O        7.18238091       2.92159131       6.59452257       1.00000000      -0.00034577      -0.00026609       0.01932235
