52
Lattice="12.336457 0.0 0.0 -6.168228499999997 10.683685154694365 0.0 0.0 0.0 15.0" Properties=species:S:1:pos:R:3:forces:R:3 energy=-447.00389299103585 free_energy=-447.00389299103585 stress="-0.0035968395690037765 -0.0031786141771802784 1.7404855808167725e-05 -0.0031786141771802784 0.008717557532660543 1.0480355000345885e-05 1.7404855808167725e-05 1.0480355000345885e-05 -4.018340810573531e-05" pbc="T T T"
C        0.04543623       0.00792740       3.91830626      -0.00157203      -0.05201288      -0.01343096
C       -1.20308631       2.13340538       3.81226249      -0.01174593       0.02714236       0.02421549
C       -2.40218939       4.28220995       3.75024028      -0.00602559       0.00292687      -0.00121120
C       -3.60376231       6.43781894       3.76629959       0.04984482       0.01755633       0.05400847
C       -4.85027069       8.58856698       3.86985709      -0.02716499       0.00166923      -0.00828614
C        2.51513422       0.06820535       4.00930641       0.02639103      -0.00754225      -0.02302581
C        1.22454732       2.16189312       3.91997759      -0.00058810       0.00172485      -0.04418931
C        0.01509206       4.27692366       3.71970299       0.04885129      -0.00914746       0.00925428
C       -1.15209793       6.40737490       3.82081012       0.00752942      -0.02603278      -0.01366609
C       -2.38684923       8.57529502       3.91683356      -0.03027729      -0.01582968       0.01480681
C        4.98768197       0.03915263       3.93316874      -0.01187167       0.01786467       0.01790247
C        3.72421348       2.25065499       4.01240375       0.00098178      -0.01014138       0.02318621
O        1.23210950       6.40318990       3.78402730      -0.02435898       0.01123477      -0.01185776
C        0.06919008       8.52756685       3.89923074      -0.01442026       0.02592262       0.00710502
C        7.45914385      -0.02883180       3.81929906       0.01150438       0.00857725       0.01817244
C        6.21443502       2.15015612       3.69277076      -0.00824920      -0.04306518       0.01680695
C        5.10980408       4.34591699       3.29254981       0.01159945       0.01388240      -0.05102242
N        3.88008532       6.36540033       3.93066758      -0.01414011       0.04697915       0.00459166
C        2.51333405       8.44800835       3.88318554       0.01222061      -0.01570793       0.01261067
C        9.90813203      -0.03937433       3.83321363      -0.02298043      -0.01201035       0.03429744
C        8.68550703       2.12389732       3.74025170      -0.00641130       0.00296208       0.01103273
C        7.49925925       4.29233551       3.64617800       0.00972622      -0.00635767      -0.00808935
C        6.30667786       6.46725753       3.65205678       0.03410007       0.02603489       0.03678907
C        4.99235120       8.52148786       3.84605415      -0.01304914       0.01466396       0.00871975
C        0.02749092       1.44005064       3.90093126      -0.00610128      -0.02649656      -0.01057102
C       -1.18429951       3.56483613       3.76459165       0.00936892       0.03166696      -0.00757758
C       -2.38480363       5.70427689       3.77537031       0.02074672      -0.01032847       0.01306018
C       -3.61618254       7.86692865       3.85375637      -0.03045863       0.00528416       0.00113072
C       -4.87425830      10.01566926       3.95257209       0.02502484      -0.02126050      -0.02620797
C        2.47373111       1.50778576       4.03090544       0.01140359      -0.00450366      -0.02516496
O        1.17061204       3.52853902       3.72444236       0.02409222       0.02528255      -0.00264542
C        0.04728423       5.69379066       3.74964841       0.00132992      -0.01565871      -0.00420337
C       -1.16498573       7.83860647       3.89780872      -0.01198497      -0.01448241      -0.06048626
C       -2.41134289      10.01757381       3.96920468       0.00487132      -0.01289116       0.03519183
C        4.97170565       1.48809373       3.89412505      -0.01270646      -0.00962837      -0.02869028
S        3.62653342       3.58559494       2.71341773      -0.01907380      -0.05949324      -0.02098413
C        1.26449665       7.78004237       3.87301671      -0.00430382       0.01937738      -0.00310859
C        0.05728227       9.97037785       3.88399110      -0.00891319       0.04909604       0.03172738
C        7.45301307       1.41099522       3.74409552       0.00830095      -0.01387680       0.00717926
C        6.27066137       3.57442646       3.52917413      -0.00241377      -0.03841249      -0.00514320
C        5.08896122       5.77518478       3.59109987      -0.00295025       0.04511038       0.02127565
C        3.78145333       7.74979623       3.90292400       0.01589225       0.02973867       0.00260294
C        2.51471925       9.89790998       3.84007092      -0.00055882      -0.02097161       0.01901303
C        9.91482047       1.40449928       3.79796613      -0.01548040       0.00798312      -0.01324433
C        8.70871693       3.55780768       3.71995409      -0.00231441      -0.00379428      -0.03366914
C        7.51170656       5.72286388       3.67751507       0.06309495       0.02629296      -0.03586037
C        6.26352113       7.87403259       3.78671203      -0.02136388       0.02598851       0.01340019
C        4.98064132       9.95124786       3.87088730      -0.02382536      -0.01301698      -0.00787839
W        3.60605011       4.52691230       5.00159352      -0.06655674       0.00100779       0.05612987
O        2.09738282       4.65789494       5.84204681       0.04545446       0.00840009      -0.05493382
O        0.61648792       5.37565286       6.49104021      -0.04451374      -0.02637055      -0.03073865
H        0.56768811       4.64270012       7.14570809       0.02404534      -0.00533668       0.05167600
