51
Lattice="12.336457 0.0 0.0 -6.168228499999997 10.683685154694365 0.0 0.0 0.0 15.0" Properties=species:S:1:pos:R:3:initial_magmoms:R:1:forces:R:3 energy=-446.160450015577 free_energy=-446.160450015577 stress="-0.0023122706261581973 -0.0049804454871660835 -1.6738404047054445e-05 -0.0049804454871660835 0.0024503345041395363 -8.389756403814206e-06 -1.6738404047054445e-05 -8.389756403814206e-06 -1.2610693494532612e-05" pbc="T T T"
C        0.01057030      -0.04335906       3.60957355       0.00000000      -0.00039487      -0.00029871       0.00324692
C       -1.24711394       2.09098321       3.58524718       0.00000000       0.00216109      -0.00098319       0.00373740
C       -2.43993717       4.23830878       3.76187333       0.00000000      -0.00667480       0.00226740      -0.00340494
C       -3.64231107       6.38825038       3.83918567       0.00000000       0.00876722      -0.00482765       0.00564689
C       -4.88879386       8.53175562       3.76559655       0.00000000      -0.00347796      -0.00171434      -0.00497982
C        2.47708934      -0.01378052       3.58144045       0.00000000      -0.00483761       0.00558702      -0.01066275
C        1.17607300       2.07742495       3.35452787       0.00000000      -0.00025159      -0.00463094      -0.00159762
C       -0.01745067       4.19911576       3.58497594       0.00000000       0.00251037       0.00041654       0.00385200
C       -1.17398381       6.35170460       3.80754489       0.00000000       0.00578705       0.00237574       0.00797108
C       -2.41723273       8.51069343       3.71728556       0.00000000      -0.00319552       0.00121639      -0.00429346
C        4.94656542      -0.02075067       3.64872091       0.00000000       0.00300003      -0.00453963      -0.00083930
C        3.67907561       2.09552371       3.52933018       0.00000000       0.00229632      -0.00188221       0.00638322
O        1.25580383       6.39082930       3.48215255       0.00000000      -0.00734801      -0.00141345      -0.00646306
C        0.03912501       8.49793391       3.68060085       0.00000000       0.00602475      -0.00331469      -0.00035826
C        7.41299776      -0.04203958       3.69286117       0.00000000       0.00080136      -0.00234945      -0.00082599
C        6.16439457       2.13130874       3.73505886       0.00000000      -0.00201102       0.00706151      -0.00640926
C        5.04602244       4.35519737       3.94731603       0.00000000      -0.00206383       0.00193035      -0.00523456
N        3.81078576       6.42161921       4.16200700       0.00000000       0.00143254      -0.00114230       0.00280598
C        2.48856047       8.46294046       3.76701358       0.00000000       0.00348502      -0.00279124       0.00682416
C        9.87181689      -0.05403758       3.68375677       0.00000000      -0.00314915      -0.00278451       0.00311767
C        8.63718613       2.10268549       3.73034868       0.00000000      -0.00512693       0.00630533      -0.00420383
C        7.44791925       4.25985109       3.88690359       0.00000000      -0.00827860       0.00527461      -0.00059475
C        6.24971845       6.43112459       3.98837237       0.00000000       0.00600421      -0.00556294       0.00087772
C        4.96656121       8.50543865       3.81547692       0.00000000       0.00052419       0.00172392      -0.00039657
C       -0.01153447       1.38236258       3.50064670       0.00000000       0.00027323      -0.00479103      -0.00212926
C       -1.22962605       3.51144421       3.63990406       0.00000000      -0.00196033       0.00094807       0.00422004
C       -2.41554938       5.65786124       3.80550091       0.00000000       0.00847818      -0.00024126      -0.00129715
C       -3.65231550       7.81188490       3.77903212       0.00000000      -0.00130923      -0.00420194       0.00737565
C       -4.91342187       9.95024097       3.64384323       0.00000000      -0.00239642       0.00164181      -0.00379640
C        2.43703000       1.41648280       3.46235172       0.00000000      -0.00122701       0.00142367       0.00168994
O        1.07529739       3.45178504       3.16720984       0.00000000       0.00046599      -0.00171438       0.00052732
C        0.04066808       5.60497050       3.83367441       0.00000000       0.00424417       0.00139934       0.00614209
C       -1.19141488       7.78276561       3.73660987       0.00000000       0.00099499       0.00166290      -0.00078707
C       -2.44566568       9.95004900       3.64539862       0.00000000      -0.00328453       0.00388622      -0.01084834
C        4.92234696       1.42775029       3.64201563       0.00000000       0.00329022      -0.00161142      -0.01097749
S        3.55457721       3.80725921       3.38498233       0.00000000      -0.00650296       0.00323566       0.00051258
C        1.26009790       7.81370900       3.67143308       0.00000000       0.00398055      -0.00161827       0.01119594
C        0.01812264       9.93822697       3.67508583       0.00000000       0.00492442      -0.00601472       0.00472758
C        7.39486178       1.40026823       3.72340105       0.00000000      -0.00337737       0.00392716      -0.00578659
C        6.20503743       3.55588284       3.86630722       0.00000000      -0.00422557       0.00498786       0.00589768
C        5.01923617       5.75764852       4.08856894       0.00000000       0.00128610      -0.00260036      -0.00628507
C        3.75112061       7.76919086       3.91711094       0.00000000       0.00144839      -0.00068839      -0.00342406
C        2.47657273       9.91049372       3.71344280       0.00000000      -0.00175769      -0.00510455      -0.00393145
C        9.87031516       1.38131529       3.66308666       0.00000000      -0.00163492      -0.00038146       0.00024093
C        8.66067101       3.52945197       3.79343704       0.00000000      -0.01181553       0.00757746       0.00533817
C        7.46132879       5.68473579       3.91860908       0.00000000       0.00653235      -0.00046139      -0.00153177
C        6.22114404       7.83357676       3.86810442       0.00000000      -0.00114104      -0.00400630      -0.00295088
C        4.94545588       9.92351391       3.69437939       0.00000000      -0.00082640       0.00164903      -0.00015941
W        2.11385159       5.39915007       5.12053832       0.00000000      -0.00634471      -0.00453873       0.01258767
O        1.94957896       6.67167146       6.31141996       1.00000000       0.00559443       0.00304929       0.01350916
O        1.81297101       3.78212636       5.75304585       1.00000000       0.01030641       0.00666216      -0.01425863
