52
Lattice="12.336457 0.0 0.0 -6.168228499999997 10.683685154694365 0.0 0.0 0.0 15.0" Properties=species:S:1:pos:R:3:forces:R:3 energy=-446.8268091205715 free_energy=-446.8268091205715 stress="-0.0006702979299882454 0.001444775430509276 8.064188365379241e-06 0.001444775430509276 0.0004648558750390218 4.033554275652062e-06 8.064188365379241e-06 4.033554275652062e-06 3.357672542853819e-05" pbc="T T T"
C        0.02448046       0.07966235       3.48948189      -0.00002764      -0.00172627      -0.00569798
C       -1.20629682       2.21546081       3.77159094       0.00025314      -0.00078470      -0.00615524
C       -2.48775142       4.34684752       3.85618901      -0.00243255       0.00673511      -0.00046300
C       -3.71577664       6.47940225       3.65389348      -0.00451806      -0.00097211      -0.00322714
C       -4.92471744       8.61446045       3.42856428       0.00098276       0.00343037       0.00544045
C        2.50344145       0.07407603       3.36869783       0.00375820       0.00384442      -0.00282567
C        1.30588848       2.17456268       3.71682627      -0.00027661      -0.00346483      -0.00736568
C       -0.10070668       4.37766978       4.32585436      -0.00882510      -0.00418886      -0.00331166
C       -1.30141699       6.51418184       4.09973859       0.00032896      -0.00106593       0.00053401
C       -2.45607428       8.61475234       3.62491011      -0.00302840       0.00071481      -0.00394883
C        4.96130930       0.05735713       3.51203963       0.00362076       0.00251352      -0.00109068
C        3.78298229       2.18600258       3.28617772       0.00088161      -0.00448968       0.00316177
P        1.27175721       6.54097840       5.20422185       0.00082127       0.01089100       0.00608869
C        0.00536095       8.63405050       3.94506879      -0.00679961      -0.00298302      -0.00047966
C        7.42734499       0.06613920       3.66473124       0.00143945       0.00210774       0.00761264
C        6.19258529       2.20751589       3.62933543      -0.00107555       0.00071801      -0.00400531
C        4.88383633       4.30932899       3.83949247       0.00144445       0.00597117      -0.00621941
N        3.79578112       6.52033260       3.94273503       0.01165294      -0.00114882      -0.00866866
C        2.49919650       8.62158091       3.89171898       0.00145967      -0.00224667       0.00178830
C        9.89563446       0.07316310       3.61270870      -0.00314722       0.00891078      -0.00366983
C        8.65633467       2.20825213       3.70014801       0.00035890      -0.00123328       0.00216367
C        7.38225440       4.34043255       3.73732151       0.00677627      -0.00749285      -0.00526888
C        6.15323996       6.46737687       3.50983042       0.00027576       0.00509524       0.00124517
C        4.95014705       8.61026119       3.52685928       0.00071754       0.00918233       0.00038705
C        0.03901839       1.50759007       3.65496500       0.00132465      -0.00513916       0.01496297
C       -1.25846041       3.62695769       3.96840192      -0.00929781      -0.00060148      -0.00078901
C       -2.50164543       5.77684652       3.86358338      -0.00207048      -0.00070245      -0.00316500
C       -3.69552945       7.90251986       3.54961570      -0.00296957       0.00261593      -0.00158483
C       -4.91263480      10.04741554       3.40662895       0.00352872       0.00618067      -0.00319005
C        2.52994697       1.50461353       3.37915283       0.00281120       0.00136480      -0.00093916
P        1.48929132       3.70419945       4.51719025       0.00021455      -0.00245676      -0.00018214
C       -0.15955739       5.78234368       4.50747549       0.00304042      -0.00604157      -0.00570583
C       -1.24552577       7.92539348       3.91541605      -0.00560659      -0.00048381       0.00400412
C       -2.44254779      10.03598007       3.46754848       0.00205918       0.00180353       0.00117538
C        4.97724526       1.48554423       3.43436195      -0.00103522      -0.00680413       0.00197275
O        3.85440404       3.56368254       3.13972464       0.00119052      -0.00724471      -0.00529282
C        1.25976811       7.99603496       4.21712067      -0.00652769      -0.00043503       0.00122011
C        0.02013271      10.03840107       3.68887981       0.00256653      -0.00519663      -0.00667781
C        7.42166197       1.49601654       3.65039121       0.00110131       0.00294729      -0.00174914
C        6.15436268       3.61896441       3.79279670       0.00316740       0.00232559       0.00362058
C        4.92707112       5.77799751       3.68390559       0.00267008       0.00111230      -0.00669500
C        3.73975204       7.88604799       3.77556697       0.00351337       0.00081651      -0.00261147
C        2.49751121      10.04072165       3.69524105      -0.00019615      -0.00077022      -0.00096287
C        9.89915719       1.50016923       3.67670558      -0.00117726       0.00205049       0.00171925
C        8.62830767       3.63153478       3.75216235       0.00531404      -0.00416242       0.00032195
C        7.38500101       5.75963489       3.61346190      -0.00115532      -0.00614116       0.00241403
C        6.17315435       7.89910118       3.44831091       0.00297735       0.00062287      -0.00433378
C        4.95689859      10.04408178       3.52590248      -0.00268506       0.00406265       0.00845957
W        3.13190726       5.07963744       5.38035148      -0.01500793      -0.00530926       0.05432869
O        3.01498015       4.13608699       6.86823198       0.01199601      -0.00157941       0.05426592
O        3.23867691       3.24667413       8.31113131      -0.00994826      -0.01457321      -0.05749533
H        2.59594554       3.79831436       8.80917277       0.00556107       0.01342133      -0.01311518
