52
Lattice="12.336457 0.0 0.0 -6.168228499999997 10.683685154694365 0.0 0.0 0.0 15.0" Properties=species:S:1:pos:R:3:forces:R:3 energy=-446.6996721719009 free_energy=-446.6996721719009 stress="-0.003637305971785619 -0.004579380331096141 -2.6261392280846988e-06 -0.004579380331096141 -0.0014125674110263095 1.726345695990156e-05 -2.6261392280846988e-06 1.726345695990156e-05 -3.1029612738352306e-06" pbc="T T T"
C        0.06492859       0.08928222       3.99113718      -0.00454946      -0.00057569      -0.00120137
C       -1.21024089       2.19667458       3.91558757      -0.00084566       0.00137581      -0.00658933
C       -2.43140828       4.35450433       3.94422912      -0.00004454       0.00187517       0.00467183
C       -3.61128638       6.50708378       4.03902972      -0.00446134      -0.00456320       0.00164873
C       -4.83731958       8.65842318       4.08125024       0.00297129       0.00348294      -0.00118510
C        2.53016226       0.10166072       3.82968008      -0.00468180      -0.00071420      -0.00356209
C        1.23441574       2.16823732       3.64197307      -0.00360283       0.00055648       0.00552917
C       -0.05288724       4.28860059       3.55494694      -0.00122493      -0.00175808       0.00419530
C       -1.18285865       6.47985398       3.65634772       0.00174042      -0.00199732       0.00740125
C       -2.37928955       8.63286545       3.85324308       0.00015710      -0.00169124      -0.00781495
C        5.00060161       0.08624441       3.74801955       0.00239562       0.00421026       0.00768693
C        3.74026676       2.19830833       3.45407958      -0.00201725      -0.00180548      -0.00425249
P        1.24356803       6.56610846       2.27979949       0.00559435      -0.00078870       0.00566642
C        0.08715458       8.61578018       3.64854249      -0.00322257      -0.00313525      -0.00603327
C        7.46050154       0.08190382       3.86031719       0.00361153       0.00060676      -0.00794386
C        6.21191712       2.24332736       3.79705294       0.00666047       0.00760235       0.00303726
C        5.03572371       4.46623517       3.78302591      -0.00660180      -0.00057168      -0.00145132
N        3.86784023       6.56337610       4.00254975      -0.00177269      -0.00469670      -0.00132314
C        2.55951025       8.61345500       3.80306806      -0.00106541       0.00446973      -0.01087325
C        9.92027428       0.07238042       4.00898035       0.00374739       0.00853638      -0.00131546
C        8.67191248       2.22114246       3.98500472       0.00193846       0.00137733       0.00936121
C        7.45907710       4.37707317       4.04459216      -0.00036224      -0.00770924       0.00285446
C        6.27843976       6.54762069       4.15636165       0.00301742       0.00054562      -0.00382959
C        5.02854862       8.64549544       4.09476253      -0.00256689       0.00090315      -0.00597066
C        0.03678803       1.50518063       3.86163510      -0.00337472      -0.00140835       0.00366633
C       -1.22503266       3.60911859       3.83666217       0.00153210       0.00149185       0.01024640
C       -2.39447562       5.77948630       3.90224057      -0.00181502       0.00123918      -0.00019156
C       -3.60673945       7.93375216       4.00658773       0.00124068      -0.00241794       0.00562355
C       -4.85657536      10.08087539       3.98373459      -0.00458782       0.00200059      -0.00727297
C        2.49505142       1.52832705       3.63428612      -0.00334499       0.00008187       0.00542347
O        1.12579181       3.55706696       3.35085700       0.00708170       0.00178271       0.00086534
C        0.00232630       5.69232212       3.34124404       0.00075832      -0.00104676       0.00303342
C       -1.15211103       7.90334875       3.69537558       0.00026443      -0.00454906       0.00697237
C       -2.39796113      10.06370692       3.81133344      -0.00106015       0.00139165      -0.00728782
C        4.98198063       1.52270521       3.66214545       0.00460928       0.00855463       0.00233142
P        3.73992149       3.84380611       2.75548801       0.00166581       0.00669446      -0.01040532
C        1.34781992       7.91687806       3.49950512      -0.00404785       0.00102762       0.00408978
C        0.06877933      10.04721682       3.76679416       0.00069859      -0.00160778      -0.00028035
C        7.43985501       1.51542552       3.90068334       0.00498589       0.00193890      -0.00098332
C        6.22459955       3.67593982       3.89640904      -0.00218436       0.00212740       0.00005670
C        5.05608128       5.87602316       4.01594665       0.00145209      -0.00106362      -0.00389976
C        3.81384936       7.92501805       3.98209885      -0.00440594      -0.00226242       0.00080143
C        2.52819283      10.04537693       3.91972250       0.00614637       0.00585406      -0.00506904
C        9.90931454       1.49890375       3.99432961       0.00070620       0.00542377       0.00415995
C        8.67673427       3.64945048       4.01779184       0.00161369      -0.00159904       0.00358491
C        7.49202029       5.80371588       4.11359369      -0.00114587      -0.00857796      -0.00205315
C        6.26968177       7.95780993       4.15378320       0.00247333       0.00377319      -0.00266785
C        5.00102316      10.06125235       4.05273764      -0.00278088       0.00258475      -0.00111371
W        2.21656533       5.25347780       3.87390982      -0.00677051      -0.01426756      -0.00031005
O        1.26662951       4.56997318       6.17459831       0.00480463      -0.02080094       0.00255043
O        1.28699799       3.16767751       6.26456254      -0.00907422       0.00369830      -0.02412806
H        2.17578302       3.02240317       6.64940823       0.00974456       0.00440131       0.02355077
