51
Lattice="12.336457 0.0 0.0 -6.168228499999997 10.683685154694365 0.0 0.0 0.0 15.0" Properties=species:S:1:pos:R:3:initial_magmoms:R:1:forces:R:3 energy=-446.60491804395105 free_energy=-446.60491804395105 stress="0.0012379622461029464 -0.006668517856715752 4.613587189574467e-06 -0.006668517856715752 -0.001463831229171904 -1.1212480407938867e-05 4.613587189574467e-06 -1.1212480407938867e-05 -9.50290520367678e-07" pbc="T T T"
C        0.03722547      -0.03202369       3.67948352       0.00000000      -0.00153051       0.00459549      -0.00032498
C       -1.22519074       2.09991420       3.75078051       0.00000000       0.00129501       0.00335038      -0.00929537
C       -2.42100263       4.24839862       3.83338518       0.00000000      -0.00080807       0.00072762      -0.00035124
C       -3.62671846       6.39958987       3.81621659       0.00000000       0.00276650       0.00402903      -0.00388315
C       -4.85852068       8.54035184       3.76236938       0.00000000      -0.00168937       0.00329006       0.00155677
C        2.49592529      -0.02412382       3.46323967       0.00000000       0.00633755      -0.00081015       0.00296784
C        1.16882935       2.04897153       3.25894754       0.00000000       0.00153461      -0.00892309       0.00239256
C        0.02751146       4.14901795       3.51748469       0.00000000       0.00688581       0.00071069       0.00331935
C       -1.17879085       6.36380938       3.46857546       0.00000000      -0.00195514      -0.00054256       0.00007027
C       -2.39695306       8.52228615       3.56202157       0.00000000       0.00402823      -0.00133164       0.00470029
C        4.97348987      -0.01047017       3.60364096       0.00000000      -0.00212929      -0.00504204       0.00330729
C        3.66297167       2.09869452       3.58613229       0.00000000      -0.00604433      -0.00217002      -0.00059716
P        1.43313879       6.36309835       2.38393185       0.00000000      -0.00380052       0.00243203       0.00105454
C        0.07269985       8.51255588       3.55263253       0.00000000       0.00027721       0.00047839       0.00183512
C        7.42733456      -0.00363886       3.80313136       0.00000000       0.00134436      -0.00325971       0.00348087
C        6.16103913       2.15638267       3.88773498       0.00000000      -0.00590715      -0.00506821       0.00739491
C        5.02003635       4.38405667       4.24593059       0.00000000       0.00870872       0.00268121      -0.00665932
N        3.81038884       6.50402775       4.26765190       0.00000000      -0.00164993       0.00250959       0.00578302
C        2.55180305       8.53713377       3.84245013       0.00000000       0.00171688      -0.00316200      -0.00378766
C        9.90016541      -0.01417242       3.87680137       0.00000000      -0.00073312       0.00118154      -0.00745790
C        8.64619890       2.12871790       3.91550603       0.00000000       0.00209205       0.00530425       0.00160093
C        7.44653722       4.28145525       4.01676669       0.00000000       0.00067114       0.00527744       0.00115059
C        6.26106863       6.45932433       4.10633429       0.00000000      -0.00091803      -0.00821173       0.00009449
C        5.01781030       8.55419270       3.96682111       0.00000000       0.00376318       0.00151042      -0.00158829
C       -0.00368108       1.37894849       3.55720824       0.00000000      -0.00210452       0.00015301      -0.00202108
C       -1.20113616       3.50895167       3.77396408       0.00000000       0.00099665       0.00247153      -0.00307165
C       -2.39882598       5.67258161       3.71368509       0.00000000      -0.00099680      -0.00026083       0.00169513
C       -3.62393757       7.82034087       3.70417211       0.00000000       0.00197422       0.00442005       0.00370517
C       -4.88942339       9.95128359       3.61090917       0.00000000       0.00114953       0.00587501      -0.00713562
C        2.44673139       1.39539214       3.36324630       0.00000000       0.00170575      -0.00442539      -0.00205634
O        1.04807367       3.38802151       2.94471757       0.00000000       0.00232428      -0.01074808      -0.00181114
C        0.03504588       5.57313576       3.24278713       0.00000000      -0.00381444       0.00205895      -0.00447436
C       -1.14954081       7.79103558       3.50216988       0.00000000       0.00087657      -0.00068124       0.00626747
C       -2.41778839       9.95044927       3.52329751       0.00000000       0.00220318      -0.00366850       0.00853663
C        4.93161238       1.43483597       3.69765666       0.00000000      -0.00976823      -0.00544326       0.00182315
P        3.41252823       3.76512594       4.06408237       0.00000000      -0.00123032       0.00275785      -0.00133922
C        1.35039598       7.78647015       3.56998733       0.00000000      -0.00203569      -0.00067524       0.00406870
C        0.04372540       9.94806784       3.66256164       0.00000000      -0.00018506      -0.00231692       0.00635472
C        7.40186126       1.42726292       3.87949042       0.00000000       0.00147807      -0.00087362       0.00633800
C        6.19034920       3.58872045       4.05634888       0.00000000       0.00185974      -0.00059650       0.00448099
C        5.01754472       5.80477152       4.25835731       0.00000000      -0.00469237      -0.00174782       0.00099099
C        3.79138937       7.84976889       4.03499253       0.00000000       0.00287717       0.00133822      -0.00677736
C        2.50372387       9.96442076       3.86479911       0.00000000       0.00113504      -0.00439082      -0.00307886
C        9.88693585       1.40884939       3.86501528       0.00000000       0.00143534       0.00285763      -0.01569274
C        8.66933883       3.55432063       3.93355078       0.00000000      -0.00219987       0.00637874       0.00135981
C        7.47367190       5.70949066       4.00270535       0.00000000       0.00274598       0.00215117      -0.00781555
C        6.25487067       7.85775576       3.96502775       0.00000000       0.00060725      -0.00696290      -0.00214117
C        4.97861976       9.96039636       3.85107792       0.00000000       0.00054992       0.00280561       0.00293855
W        1.78106902       5.68296584       4.58497250       0.00000000      -0.00352869       0.00848029      -0.00676149
O        2.51229229       3.86774273       5.35849458       1.00000000      -0.00881923       0.00435852       0.00406108
O        0.76474085       6.23344755       5.88827741       1.00000000       0.00120076      -0.00287246       0.00479240
