52
Lattice="12.336457 0.0 0.0 -6.168228499999997 10.683685154694365 0.0 0.0 0.0 15.0" Properties=species:S:1:pos:R:3:forces:R:3 energy=-445.10321460978156 free_energy=-445.10321460978156 stress="-0.004103547625538617 0.0015190454228432295 1.4492292748545863e-05 0.0015190454228432295 -0.006232789558801033 -8.551504557030362e-06 1.4492292748545863e-05 -8.551504557030362e-06 5.206954329457287e-07" pbc="T T T"
C       -0.05738974       0.03859836       3.55260841       0.00005214       0.00327858      -0.00476858
C       -1.26693931       2.21061144       3.51459743      -0.00171568       0.00054290      -0.00193112
C       -2.47998357       4.33862879       3.69886911      -0.00073815      -0.00304459      -0.00981295
C       -3.73421483       6.47463163       3.77092776       0.00228624      -0.00899481       0.00019097
C       -4.99616449       8.59276334       3.76878913       0.00127455       0.00535274       0.00876105
C        2.40756621      -0.00153992       3.43806937      -0.00051295       0.00336474      -0.00170060
C        1.18097670       2.10061378       3.10709461      -0.00207209      -0.00330086       0.01010123
C        0.00619068       4.39722287       3.70552841      -0.00992391      -0.00270273       0.00301663
C       -1.29537484       6.50782959       3.72463396       0.00252496       0.00304946      -0.00165596
C       -2.51847803       8.60663515       3.63922723      -0.00085113       0.00511188       0.00959409
C        4.89128198       0.05439250       3.55715210      -0.00317145      -0.00104128       0.01138022
C        3.62276722       2.11173517       3.49195540       0.00370973      -0.00237491      -0.00510293
N        1.09113049       6.54308555       4.01441435       0.00038364      -0.00012462      -0.00725735
C       -0.04931259       8.62091954       3.73899681      -0.00076344      -0.00176535       0.00092270
C        7.35881538       0.07257071       3.67769657      -0.00512065      -0.00185052      -0.00340368
C        6.12405888       2.20757506       3.65691181       0.00041835       0.00352648       0.00953559
C        4.96598142       4.39384775       4.04364500       0.00037451       0.00142529       0.00257432
S        3.67262711       6.50328500       5.26152900       0.00943939       0.01125364      -0.00411223
C        2.41046136       8.62633992       4.04024960       0.00189247      -0.00025877       0.00065253
C        9.82262985       0.06911817       3.71297940       0.00472321       0.00101160       0.00107884
C        8.60147532       2.20707561       3.64877653       0.00220693      -0.00105243       0.00358607
C        7.38553854       4.33878517       3.78758793       0.00143253      -0.00524605       0.00862490
C        6.17715295       6.49307602       4.12688647       0.00069963      -0.00056384      -0.00229810
C        4.88495879       8.62548634       4.05211092      -0.00173193       0.00088819       0.00314662
C       -0.05276298       1.46297853       3.36065411      -0.00568121       0.00231826      -0.00319941
C       -1.23838626       3.63501305       3.63213681      -0.00603398      -0.00313266      -0.00053631
C       -2.50635038       5.76369427       3.72053335       0.00575936      -0.00362990       0.00314294
C       -3.75122247       7.89232388       3.72709175      -0.00024542      -0.00276844      -0.01183020
C       -5.00023197       9.99878197       3.57089422      -0.00093684       0.00533112      -0.00943970
C        2.40066733       1.39644668       3.29019649       0.00188420      -0.00030754      -0.00394929
P        1.35556849       3.81061468       2.61716810       0.00097318       0.00223960       0.00274608
C       -0.07440591       5.84476983       3.80619313      -0.00131280       0.00122014      -0.00195978
C       -1.28511884       7.91906531       3.69138825      -0.00095053       0.00165438       0.00234934
C       -2.51259054      10.01607719       3.54079471      -0.00344846       0.00460731      -0.00431199
C        4.89175904       1.47801129       3.56455196       0.00362276      -0.00282932      -0.00658759
P        3.34018462       3.74167487       3.99206625      -0.00192004       0.00728116      -0.00679501
C        1.16097283       7.90879124       3.95811654       0.00079141       0.00123936      -0.00263913
C       -0.04217316      10.04167848       3.65169887      -0.00481316      -0.00325180       0.00421224
C        7.35861397       1.49822986       3.64531285      -0.00229195       0.00275742       0.00540850
C        6.15180920       3.62824940       3.79494394      -0.00030966       0.00405765      -0.00593293
C        5.03281240       5.74210282       4.42414839       0.00564502      -0.00251904       0.00496965
C        3.64126646       7.99911198       4.35254961       0.00014285      -0.01059350      -0.00460749
C        2.41954623      10.04478835       3.79314622       0.00132686       0.00062079      -0.00077506
C        9.83470316       1.49800157       3.61258489       0.00361836      -0.00185403      -0.00530941
C        8.61750761       3.62845792       3.69584696       0.00055047      -0.00309617      -0.00168582
C        7.38625003       5.76275619       3.88085331       0.00225808      -0.00733915       0.00717297
C        6.12508109       7.90795822       4.02523561      -0.00220640       0.00291781       0.00004181
C        4.88337599      10.03305499       3.76134049       0.00479190       0.00040899       0.00405262
W        1.86934714       4.98607128       5.20810696       0.00773177      -0.00704618      -0.00052945
O        2.58087452       4.13729135       6.59325177      -0.00211736      -0.00186957       0.00219643
O        3.30063302       3.24801155       7.86963344      -0.00054148       0.01424829       0.01235855
H        2.68729893       3.63386277       8.53326721      -0.01110381      -0.00714971      -0.00968482
