52
Lattice="12.336457 0.0 0.0 -6.168228499999997 10.683685154694365 0.0 0.0 0.0 15.0" Properties=species:S:1:pos:R:3:forces:R:3 energy=-447.2021691199523 free_energy=-447.2021691199523 stress="0.0025912535451296675 0.0016011735215445124 4.5469225191044266e-05 0.0016011735215445124 -0.000632632177842644 -1.1654870863570634e-05 4.5469225191044266e-05 -1.1654870863570634e-05 3.046278418188357e-05" pbc="T T T"
C       -0.06079786      -0.04604784       3.92588411      -0.00071207       0.00152766      -0.00031927
C       -1.26290898       2.12794432       3.99794039       0.00617928      -0.00056734       0.00264699
C       -2.49836216       4.26282971       3.89911168      -0.00296747      -0.00284960       0.01296550
C       -3.72785571       6.39202197       3.83372294       0.00180209       0.00621124       0.00223071
C       -4.99148360       8.51098660       3.85658082       0.00669047      -0.00634457      -0.00020438
C        2.41727619      -0.06508899       3.75028189      -0.00152462      -0.00157713       0.00964340
C        1.23387142       2.04975876       3.98355142       0.00805477      -0.00197785       0.01070248
C       -0.05058729       4.34448520       4.09764749      -0.00084885      -0.01004063      -0.00524944
C       -1.26438172       6.42218513       3.89699972      -0.00876708      -0.00195251       0.00251587
C       -2.51187726       8.52239630       3.81321524       0.00108549       0.00511046      -0.00482291
C        4.89210715      -0.02937350       3.63832921       0.00810198       0.00073943       0.01303514
C        3.62697494       2.02492994       3.28436843      -0.00144282       0.01291003       0.00271787
N        1.20339288       6.43615576       3.94626059      -0.00204741      -0.00121760       0.00617499
C       -0.04739370       8.52951462       3.82148914      -0.00509672       0.00068128      -0.00955949
C        7.36166219      -0.01478533       3.75143412       0.01062530      -0.00568006       0.00691632
C        6.11965341       2.12893014       3.53848179      -0.00508848       0.00276363       0.00595097
C        4.89865881       4.34674671       3.28715166       0.00048817      -0.00386458       0.00424632
O        4.88468202       6.05109596       1.54769708       0.00053700       0.00607235       0.00136424
C        2.42658172       8.50522335       3.87475663      -0.00377509       0.00109312      -0.00879060
C        9.82190936      -0.02073727       3.89119636       0.00484474      -0.00159665      -0.00182585
C        8.59500797       2.12455556       3.80391664      -0.00488276      -0.00200761       0.00404494
C        7.35780476       4.25513010       3.66721087       0.00113473       0.01225335      -0.00968565
C        6.18936457       6.42483554       3.54445332       0.00939121       0.00081543      -0.01260843
C        4.83711157       8.47177395       3.86283204      -0.00151683      -0.00957737      -0.00173133
C       -0.03470634       1.39333528       3.99648986       0.00696967       0.00674237       0.00648718
C       -1.25505450       3.56540319       4.00965740       0.00061409      -0.00475900      -0.00298301
C       -2.49010508       5.68766634       3.88138502      -0.00738236      -0.00129956       0.00623128
C       -3.74837164       7.80877202       3.84253794       0.00641833       0.00336663      -0.00816177
C       -4.99280497       9.92571901       3.86621597      -0.00599324      -0.00488804       0.01126954
C        2.42593426       1.34077183       3.65844517       0.00482762       0.00073263      -0.00029788
P        1.56160761       3.74224074       4.38786109       0.00006623      -0.00571380      -0.01194466
C       -0.01792735       5.75511126       3.97361276      -0.00727457      -0.00557119       0.00728935
C       -1.27539451       7.82742165       3.84044344      -0.00721248      -0.00110738      -0.00370001
C       -2.50781838       9.93411143       3.72427476       0.00267461       0.00244713      -0.01146736
C        4.88329204       1.39430697       3.45661344      -0.00053166       0.00170949       0.00853574
P        3.41274660       3.65936687       2.49220368      -0.00910087      -0.00528160      -0.00974296
C        1.17538265       7.80403406       3.87697202      -0.00470885       0.00156801      -0.00825772
C       -0.04212047       9.95146771       3.73437968       0.01205001      -0.00053589      -0.01104039
C        7.35405869       1.41738121       3.69858204      -0.00418320      -0.00353193      -0.01007587
C        6.11779451       3.55972953       3.51663680      -0.00373424       0.00937573      -0.00011436
C        5.16320450       5.73925912       2.73692477       0.00232172      -0.00022873      -0.00157469
C        3.60446078       7.74371462       3.90273980      -0.00704639      -0.00584376       0.00422437
C        2.42149036       9.95491049       3.83895552       0.00808543      -0.00178199       0.00593813
C        9.83481847       1.41579002       3.90604880       0.00192119      -0.00390338       0.00611458
C        8.59588505       3.54983075       3.79769959      -0.00467092       0.00229435      -0.00090394
C        7.37869924       5.68381919       3.70199856       0.00722741       0.00984635       0.01078219
C        6.10911575       7.80045686       3.78091315       0.00475073      -0.00454187      -0.00438131
C        4.87043352       9.92359023       3.90972262       0.00222044      -0.00698560       0.01010829
W        3.19801145       5.52920168       4.04978761       0.00470280       0.00258361      -0.00852335
O        2.71144580       5.85755198       7.33587665      -0.01163214       0.01449899      -0.00235115
O        3.16853406       5.40600639       8.53970273      -0.00608252      -0.00431059      -0.01003119
H        4.13993174       5.55862235       8.52758642      -0.00556184       0.00419455      -0.00178742
