51
Lattice="12.336457 0.0 0.0 -6.168228499999997 10.683685154694365 0.0 0.0 0.0 15.0" Properties=species:S:1:pos:R:3:initial_magmoms:R:1:forces:R:3 energy=-446.1001580975793 free_energy=-446.1001580975793 stress="0.0024800542746400505 0.0003563462275400908 3.990234830148047e-05 0.0003563462275400908 0.005830253536240017 6.598215035612883e-05 3.990234830148047e-05 6.598215035612883e-05 2.888007793348302e-05" pbc="T T T"
C        0.04160613      -0.01622505       3.72074848       0.00000000       0.02686234       0.00886925      -0.02435616
C       -1.20458630       2.10468276       3.42704224       0.00000000      -0.00021109       0.02259376       0.01166152
C       -2.49362562       4.24876462       3.40839135       0.00000000      -0.00478725      -0.01838529      -0.00148242
C       -3.70405858       6.38743152       3.67547715       0.00000000       0.03092431      -0.00786467       0.04617141
C       -4.90242153       8.52290852       3.81877396       0.00000000      -0.02848254      -0.00745826       0.01739872
C        2.51687046      -0.00643140       3.83421782       0.00000000      -0.01101643      -0.00380105      -0.01487745
C        1.29843907       2.07994295       3.40009589       0.00000000       0.04732797       0.00021527       0.01471202
C       -0.15201355       4.26083059       2.85007091       0.00000000       0.03211779      -0.01359155      -0.01292450
C       -1.27438796       6.40545658       3.34848080       0.00000000      -0.00737900       0.03869912      -0.07306823
C       -2.42174134       8.50476273       3.78962291       0.00000000       0.00254953       0.02026332       0.04695247
C        4.97647155      -0.04401847       3.91231846       0.00000000      -0.01961189      -0.00817278      -0.00212980
C        3.77463776       2.11273622       3.90774030       0.00000000       0.01989385      -0.02138224       0.04037946
O        0.63486130       6.27841806       1.87968765       0.00000000      -0.03643803       0.00027291      -0.01635675
C        0.06091745       8.46783400       3.96757164       0.00000000       0.01509231       0.00958107      -0.01631749
C        7.44142516      -0.04485007       3.87788785       0.00000000      -0.01198369       0.04477723       0.02527123
C        6.20307351       2.10734744       3.91175185       0.00000000      -0.02361959      -0.01047197      -0.00431527
C        4.96513364       4.22564577       4.05730387       0.00000000       0.00518886       0.02584928      -0.00711206
N        3.77798194       6.41520573       4.20385262       0.00000000       0.01295232       0.00929386      -0.04433381
C        2.51263422       8.50605109       4.07755283       0.00000000       0.00475615      -0.04341123       0.02012732
C        9.90747359      -0.02882986       3.76546116       0.00000000       0.03312128      -0.04715037      -0.01195284
C        8.66176586       2.10450241       3.67984306       0.00000000      -0.00207006       0.00255733       0.02762879
C        7.40406733       4.24764705       3.77473489       0.00000000      -0.03998524       0.01297421       0.03900022
C        6.17172627       6.37071765       3.90989848       0.00000000      -0.02860624       0.03417706      -0.02539447
C        4.97956497       8.51662057       3.91111839       0.00000000      -0.02265282      -0.01549744      -0.01141871
C        0.04937190       1.41421128       3.50647041       0.00000000       0.02686329       0.01021545      -0.00657323
C       -1.26501896       3.52236957       3.22545692       0.00000000       0.03815890       0.02245779       0.00002452
C       -2.48345269       5.68040832       3.46297099       0.00000000       0.02805797      -0.02219401       0.00019046
C       -3.67187426       7.80654335       3.75713241       0.00000000       0.00305047       0.01047152       0.01859376
C       -4.89322470       9.95905593       3.79846822       0.00000000       0.00720346      -0.00757031       0.00437119
C        2.53000604       1.43134738       3.75271612       0.00000000       0.01430319      -0.00655543      -0.00570347
S        1.43273511       3.66189681       2.68524563       0.00000000      -0.04914105      -0.00592696      -0.03335440
C       -0.18085083       5.72604283       2.63143315       0.00000000       0.01844487      -0.00434757       0.04367216
C       -1.19336205       7.77895232       3.71465514       0.00000000       0.00405824       0.00484685       0.02855203
C       -2.42378762       9.93930974       3.88255032       0.00000000      -0.01472731       0.02377415      -0.03927374
C        4.96952688       1.40137421       3.94248545       0.00000000      -0.01159779      -0.03538960      -0.05702558
O        3.80168634       3.48387874       4.14371181       0.00000000       0.03536807       0.01237938      -0.03092764
C        1.29825830       7.82904737       4.24755257       0.00000000       0.00089280      -0.02015835       0.02577505
C        0.04352505       9.91406170       3.92375251       0.00000000      -0.00470423       0.00884443       0.03101622
C        7.43022638       1.39243770       3.82964071       0.00000000      -0.01956458       0.03391721      -0.03223714
C        6.17757178       3.53314092       3.92216045       0.00000000      -0.03311854      -0.01294267      -0.01559458
C        4.93688657       5.65972989       4.06338237       0.00000000       0.00665486       0.03480228       0.01746875
C        3.76688262       7.78987811       4.06548866       0.00000000       0.00862373      -0.02567759      -0.03014478
C        2.51221072       9.94128065       3.88141985       0.00000000      -0.00502334      -0.02998414       0.05273805
C        9.90848816       1.39796430       3.61807590       0.00000000      -0.00176603      -0.01309075       0.00478625
C        8.63772042       3.53282330       3.62408197       0.00000000      -0.03564530      -0.00245832      -0.02500120
C        7.39807169       5.66584218       3.78470231       0.00000000      -0.02201839       0.02042052      -0.01732982
C        6.20081311       7.80070111       3.87651188       0.00000000      -0.04337613       0.01019702       0.00734265
C        4.97477077       9.94813176       3.79952688       0.00000000       0.03251838      -0.02953268      -0.01353470
W        1.93508140       6.03257245       5.23893556       0.00000000       0.00311851       0.06045414       0.10586434
O        2.51674922       6.50545324       6.80622526       1.00000000      -0.10497970      -0.07094634      -0.10352932
O        0.51295296       5.02365610       5.46856984       1.00000000       0.12440279       0.00105716       0.04657093
