51
Lattice="12.336457 0.0 0.0 -6.168228499999997 10.683685154694365 0.0 0.0 0.0 15.0" Properties=species:S:1:pos:R:3:initial_magmoms:R:1:forces:R:3 energy=-442.339480060982 free_energy=-442.339480060982 stress="-0.006143842573796034 0.004068231333232523 6.154596855980346e-06 0.004068231333232523 -0.008466620215409193 -3.493895960198049e-05 6.154596855980346e-06 -3.493895960198049e-05 3.7544073690273574e-05" pbc="T T T"
C        0.20625362       0.01434647       3.49719301       0.00000000       0.00256139       0.00265638      -0.00521521
C       -1.00251364       2.18160238       3.44311743       0.00000000      -0.00102204      -0.00013351      -0.00428280
C       -2.23685871       4.30375250       3.59933745       0.00000000       0.00088232      -0.00234466      -0.00031978
C       -3.49826291       6.43339208       3.67475688       0.00000000      -0.00132591       0.00651454       0.00612460
C       -4.75325697       8.55026949       3.66077507       0.00000000      -0.00261555      -0.00710525      -0.00507165
C        2.66637225      -0.02923171       3.46458315       0.00000000       0.00796680      -0.00381344       0.00353311
C        1.48020154       2.10302620       3.28178977       0.00000000       0.00407589       0.00387676      -0.00359165
C        0.22222715       4.38678488       3.50784806       0.00000000       0.00589585      -0.00431993      -0.00004800
C       -1.06767481       6.48377902       3.55170580       0.00000000      -0.00967709      -0.00079859       0.00277126
C       -2.27916494       8.57038423       3.50294258       0.00000000       0.00030944       0.00192062       0.00842418
C        5.15070824       0.01042435       3.52135210       0.00000000      -0.00164975      -0.00130071       0.00772757
C        3.90717126       2.03826117       3.78470865       0.00000000       0.00003034      -0.00356284       0.00498422
N        1.35332418       6.51526664       3.67514142       0.00000000       0.00608360      -0.00332284      -0.01450342
C        0.19814939       8.58538194       3.49141075       0.00000000      -0.00208243       0.00720432       0.00183128
C        7.61954521       0.03447839       3.52429671       0.00000000      -0.00138457      -0.00101663      -0.00078767
C        6.40263396       2.14882634       3.77409965       0.00000000      -0.00191761      -0.01143592      -0.00127740
C        5.28708224       4.29995184       4.34504176       0.00000000       0.00500636       0.00773809      -0.00202169
S        3.76888078       6.43187009       4.90776371       0.00000000       0.01036173      -0.00331840       0.00130701
C        2.66130755       8.58792683       3.72645095       0.00000000       0.00077791       0.00140035       0.00817025
C       10.08678466       0.03407284       3.55145675       0.00000000      -0.00963504       0.00326967      -0.00164638
C        8.86752919       2.16812307       3.58955898       0.00000000      -0.00271233       0.00104617      -0.00499187
C        7.65114415       4.29142701       3.83052924       0.00000000      -0.00005430       0.00147211      -0.00678526
C        6.41197379       6.44568298       4.06465168       0.00000000       0.00331093      -0.00232517       0.00219134
C        5.12836286       8.57614623       3.86453653       0.00000000      -0.00028877      -0.00094239      -0.00036839
C        0.22660480       1.44828665       3.37559687       0.00000000       0.00313245       0.00805373      -0.00148031
C       -1.00483856       3.60078915       3.50345396       0.00000000       0.00350901      -0.00307552       0.00756248
C       -2.27026321       5.72968287       3.60175916       0.00000000      -0.00862306      -0.00279302      -0.00515650
C       -3.51200085       7.85108603       3.60802251       0.00000000       0.00008578       0.00564955       0.00338643
C       -4.74517833       9.96555310       3.51698181       0.00000000       0.00457328      -0.00465314       0.00588773
C        2.68047851       1.37534938       3.47794603       0.00000000       0.00432594      -0.00309817       0.00140530
P        1.75167734       3.80817052       2.73116942       0.00000000      -0.00038771      -0.00649486       0.00493204
C        0.15228450       5.83658991       3.60876412       0.00000000      -0.00060004      -0.00264177       0.00492941
C       -1.04651817       7.88908336       3.49462978       0.00000000      -0.00145687       0.00244456       0.00531155
C       -2.25990859       9.98017004       3.48343745       0.00000000       0.00561743      -0.00279920       0.00891387
C        5.16951409       1.41971857       3.70070753       0.00000000      -0.00291774      -0.00554702      -0.00334850
P        3.72114929       3.56379728       4.56662393       0.00000000       0.00172832      -0.00848086      -0.00039035
C        1.41758961       7.87905792       3.63218405       0.00000000       0.00185543       0.00588147      -0.00671307
C        0.21570139      10.00354554       3.49098251       0.00000000      -0.00119452       0.00621184       0.00112505
C        7.62754377       1.45420130       3.61181894       0.00000000       0.00093453      -0.00484451      -0.00451147
C        6.44009611       3.56050146       3.97452905       0.00000000      -0.00045594      -0.00365883       0.00001872
C        5.27650742       5.69726534       4.43393997       0.00000000      -0.00029631       0.00643968      -0.00173223
C        3.86828503       7.93895500       4.07135054       0.00000000       0.00225101      -0.00378749      -0.00437617
C        2.68118077      10.00826528       3.56369840       0.00000000      -0.00592353      -0.00126986       0.00588639
C       10.09943395       1.46355944       3.50691663       0.00000000      -0.00618726       0.00152566      -0.00997073
C        8.87388893       3.58788633       3.66265426       0.00000000      -0.00082144       0.00080403      -0.00290010
C        7.62967041       5.71696005       3.85306053       0.00000000       0.00313796       0.00230992       0.00388919
C        6.36222555       7.85676964       3.88887663       0.00000000      -0.00139164      -0.00867168       0.00110187
C        5.14180107       9.99493811       3.61880696       0.00000000      -0.00453907       0.00408415      -0.00437546
W        1.91766630       4.91822577       4.83373914       0.00000000      -0.00239297       0.00866258       0.01653006
O       -3.10234176       4.02994403       8.02391123       1.00000000      -0.00445316       0.00585600      -0.01211202
O       -3.28142363       4.13732778       6.80684764       1.00000000      -0.00240707       0.01253399      -0.00996682
