52
Lattice="12.336457 0.0 0.0 -6.168228499999997 10.683685154694365 0.0 0.0 0.0 15.0" Properties=species:S:1:pos:R:3:forces:R:3 energy=-447.5662798799156 free_energy=-447.5662798799156 stress="0.0004255695532202959 0.0022498244845368595 2.3278310372522445e-05 0.0022498244845368595 0.003849061394749304 1.2960923416898418e-05 2.3278310372522445e-05 1.2960923416898418e-05 -2.2329643780505647e-06" pbc="T T T"
C       -0.05113089       0.15841177       3.80049001      -0.00447680       0.00639961       0.00674741
C       -1.28026760       2.29652127       3.85344240       0.00273003      -0.00400234       0.00456383
C       -2.50148469       4.42313439       3.84363474       0.00153942      -0.00154237      -0.00081988
C       -3.75770049       6.56035302       3.74320487      -0.00112160      -0.00271043       0.00285491
C       -5.00898398       8.69562580       3.81502552       0.00282743       0.00186240       0.00080542
C        2.40400182       0.20625945       3.65668250      -0.00205509      -0.00435942      -0.00710199
C        1.14785031       2.30685865       3.59594268       0.00074441      -0.00021965       0.00054650
C       -0.01465577       4.40821977       4.04125700      -0.00329747      -0.00345994      -0.00463070
C       -1.29681586       6.56271609       3.71804645       0.00226710       0.00418725       0.00283375
C       -2.54097134       8.71128381       3.65326148       0.00468267      -0.00239972       0.00683722
C        4.86794418       0.16017988       3.60338015      -0.00304114       0.00203619      -0.00387238
C        3.68536919       2.31208435       3.60193847       0.00165961       0.00022527       0.00199205
N        1.07057260       6.62136358       4.04812014       0.00120435      -0.00492447       0.00290436
C       -0.07332107       8.69783458       3.70162209      -0.00161909       0.00109469      -0.00038742
C        7.34892043       0.13760059       3.71041069      -0.00243526      -0.00325013       0.00353446
C        6.13008275       2.26993122       3.64224251      -0.00040838       0.00315306      -0.00701206
C        4.93297317       4.34695067       3.89601032       0.00051279       0.00825070      -0.00288071
S        3.63799171       6.44779221       5.03854692       0.00175486      -0.00038617      -0.00435500
C        2.39350355       8.68110182       4.03218172      -0.00140097       0.00542176      -0.00297480
C        9.81453477       0.14113691       3.85248243       0.00636421       0.00757939       0.00475906
C        8.59356654       2.28021891       3.76100327       0.00050767      -0.00469710      -0.00831750
C        7.36811588       4.41406284       3.75432006       0.00043783      -0.00254196      -0.00477597
C        6.11304362       6.52909721       3.97221211       0.00332128      -0.00273428      -0.00229222
C        4.87083128       8.68856767       4.07099200       0.00243570      -0.00047605       0.00530167
C       -0.04371689       1.59462314       3.74859501       0.00180117       0.00282516       0.00022286
C       -1.27068196       3.70983618       3.96255240       0.00024180      -0.00678377       0.00310479
C       -2.52164413       5.84454546       3.75067065       0.00161327       0.00213273       0.01116242
C       -3.77103384       7.98911786       3.72726033       0.00336724      -0.00153713      -0.00017026
C       -4.98885816      10.14192682       3.75582574      -0.00608723       0.00413874      -0.00695227
C        2.41131483       1.65659392       3.60137224      -0.00012505      -0.00366406      -0.00988833
O        1.08098110       3.68641434       3.46804491       0.00466508       0.00126920       0.00656397
C       -0.07455849       5.86911320       3.90432785      -0.00139799      -0.00165683       0.00231035
C       -1.30868414       7.99254887       3.65973352       0.00389634       0.00153666      -0.01471939
C       -2.54092412      10.15028421       3.62813963       0.00022911      -0.00376461      -0.00562371
C        4.87650678       1.58922057       3.59799962       0.00020537       0.00240753       0.00002045
O        3.73855231       3.67246533       3.77366714       0.00559790       0.00266453       0.00166760
C        1.13962069       7.98125647       3.91556312      -0.00381603      -0.00111047       0.00731054
C       -0.06340263      10.12513623       3.65564084      -0.00588603       0.00021803       0.00247492
C        7.35447627       1.56426973       3.68609326      -0.00259511      -0.00485216       0.00475643
C        6.14327781       3.68148535       3.72110539      -0.00191758       0.00468489       0.00262628
C        4.95117352       5.72923259       4.18499650      -0.00025473       0.00867083      -0.00334140
C        3.62233992       8.03372529       4.31235943      -0.00213947       0.00391560       0.00818900
C        2.40822823      10.10998254       3.84373196       0.00507887       0.00750528       0.00419592
C        9.82819816       1.57395678       3.81707562       0.00354634       0.00284993       0.00183125
C        8.60259116       3.70460680       3.77341008       0.00090901      -0.00373759       0.00159692
C        7.35235282       5.83574510       3.80203833       0.00009973      -0.00565566       0.00321916
C        6.10052349       7.96770663       3.98443504       0.00338232      -0.00296434      -0.00459239
C        4.88025806      10.11915217       3.90783143       0.00054605       0.00181404      -0.00620158
W        1.71870769       5.29543529       5.53298557      -0.01544868       0.00055169      -0.00814164
O        2.44237415       3.85920651       6.24105609      -0.00713161      -0.00270189       0.00038215
O        3.20954551       2.29917242       6.50021943      -0.00253843      -0.01855524      -0.00354904
H        2.95650567       2.37914237       7.44977119       0.00102478       0.00729266       0.00728501
