52
Lattice="12.336457 0.0 0.0 -6.168228499999997 10.683685154694365 0.0 0.0 0.0 15.0" Properties=species:S:1:pos:R:3:forces:R:3 energy=-447.7319533356349 free_energy=-447.7319533356349 stress="0.001768864349418873 0.0021082763387219603 -1.208125624579481e-05 0.0021082763387219603 0.0038109838397634163 -4.694974275127577e-06 -1.208125624579481e-05 -4.694974275127577e-06 7.63736440204756e-06" pbc="T T T"
C        0.03682755       0.11595943       3.84379861      -0.00171115       0.00463158      -0.00305223
C       -1.19027362       2.25860539       3.66710117      -0.00485166       0.00044880      -0.00093011
C       -2.46422886       4.39240528       3.71057314       0.00785637       0.00067114      -0.00399874
C       -3.71411275       6.52928263       3.88958958      -0.00490158      -0.00773880      -0.00032713
C       -4.91870565       8.65986057       3.96171849      -0.00256703      -0.00285583       0.00078954
C        2.51125745       0.13045715       3.90707414       0.00307900      -0.00103219      -0.00654335
C        1.29936962       2.20034434       3.46683112       0.00297533       0.00079211      -0.00523282
C       -0.05497092       4.44295434       3.33535126      -0.00497272      -0.01131920      -0.00161933
C       -1.29086574       6.56815599       3.58787235      -0.00366489       0.00512702       0.00545478
C       -2.44414868       8.65843685       3.95074756      -0.00217444       0.00349984      -0.00478427
C        4.97891805       0.09270433       3.97107561      -0.00282137       0.00666289       0.00047542
C        3.78411213       2.22914339       3.82253160      -0.00316711      -0.00227485       0.00130502
O        0.31108123       6.25184395       1.78435313       0.00253859      -0.00504175      -0.00169167
C        0.06256263       8.61663915       4.00153491       0.00699532       0.00747841       0.00579770
C        7.44350791       0.10103026       3.98755010      -0.00072519      -0.00810449      -0.00413970
C        6.20620502       2.24503048       3.95642227       0.00116950      -0.00373825       0.00539070
C        4.95684767       4.36144759       3.96005543      -0.00480943       0.00448492       0.00896268
N        3.70485034       6.52765453       4.02943201       0.00380490       0.00889921      -0.00667446
C        2.49744864       8.62994779       4.05628908      -0.00060131       0.00593396      -0.00169243
C        9.90660405       0.10857779       3.90529255       0.00543344      -0.00451624       0.00207581
C        8.67306538       2.25077613       3.87262529      -0.00060172       0.00057295      -0.00101213
C        7.40673991       4.38811270       3.91605560       0.00454958       0.00382009       0.00677608
C        6.14214693       6.50615299       3.97495297       0.00229501       0.00454623      -0.00665698
C        4.96067495       8.64212346       3.97002432      -0.00578623      -0.00946681       0.00056964
C        0.05762239       1.54851870       3.65904402      -0.00295358       0.00923879      -0.00232969
C       -1.23024128       3.68121016       3.58869637      -0.00023037      -0.00538622      -0.00079100
C       -2.48334654       5.82560034       3.72921181      -0.00184582      -0.00310204       0.00197671
C       -3.68670347       7.94926442       3.94311695      -0.00258412      -0.00661144      -0.01264107
C       -4.90049885      10.09155357       3.91446284       0.00065570       0.00147828      -0.00087820
C        2.53345064       1.55699491       3.75704352      -0.00096149      -0.00122069       0.00614282
S        1.36664756       3.73861869       2.64959620      -0.00243336       0.00542645      -0.00136764
C       -0.20032646       5.86566653       2.87428894       0.00501092       0.00094148      -0.00005933
C       -1.20979812       7.94214060       3.86339180       0.00213630       0.00899638       0.00929487
C       -2.43176735      10.08432910       3.97031536       0.00123504       0.00409471       0.00779816
C        4.97718990       1.53079163       3.93380911      -0.00117182       0.00187685       0.00186384
O        3.80635906       3.60797139       3.88261240      -0.00876273      -0.00234745       0.00753398
C        1.29368968       7.92603451       4.12459843       0.00758126       0.00054622      -0.00497201
C        0.04618624      10.06252046       4.00416540      -0.00444823       0.00444272      -0.00579050
C        7.43512298       1.53768349       3.94939720       0.00014869      -0.00975467      -0.00188840
C        6.17777448       3.66991133       3.95654205      -0.00030703       0.00243033       0.00197450
C        4.89396639       5.79185497       3.99447896       0.00247671       0.01092738      -0.00585270
C        3.73907501       7.90045571       4.02077838      -0.00592025       0.00179418       0.00776784
C        2.50818137      10.07786075       3.98546721       0.00408223       0.00149622       0.00710674
C        9.91784449       1.54306737       3.82058326      -0.00244249      -0.00141188      -0.00004352
C        8.65001672       3.67614028       3.84077112       0.00894138       0.00603941       0.00250206
C        7.38343459       5.80793197       3.93159919      -0.00249989       0.00022998       0.00337254
C        6.17923813       7.93405902       3.97203352      -0.00377762      -0.00239454       0.00000442
C        4.96768581      10.07679554       3.91189842       0.00207932      -0.01054469       0.00040403
W        1.67206598       5.74769184       4.32635052      -0.00080561      -0.01628242       0.00304365
O        1.92662299       4.61413725       5.64209042       0.01038174      -0.00407609      -0.00946535
O        2.25641178       3.04092623       6.41616244      -0.01396989      -0.00818273      -0.00891353
H        2.08251856       3.48023609       7.28185137       0.01304383       0.00987477       0.00496477
