51
Lattice="12.336457 0.0 0.0 -6.168228499999997 10.683685154694365 0.0 0.0 0.0 15.0" Properties=species:S:1:pos:R:3:initial_magmoms:R:1:forces:R:3 energy=-442.76888152425164 free_energy=-442.76888152425164 stress="-0.0007474828249896936 -0.0015854686473244911 3.60662903277998e-06 -0.0015854686473244911 -0.00265309173617636 2.479507054596378e-06 3.60662903277998e-06 2.479507054596378e-06 -9.667732768557638e-06" pbc="T T T"
C        0.11113488       0.12421782       3.64895650       0.00000000       0.00221865       0.00361290      -0.00575511
C       -1.12493672       2.26361637       3.48959573       0.00000000      -0.00023899      -0.00307254       0.00182824
C       -2.38648063       4.40196515       3.54614099       0.00000000      -0.00180040      -0.00241633       0.00212152
C       -3.60718925       6.54174597       3.70184250       0.00000000       0.00394201      -0.00166181       0.00224525
C       -4.82162374       8.67596443       3.73353221       0.00000000      -0.00084015      -0.00628192      -0.00294398
C        2.57711904       0.09743714       3.81873184       0.00000000      -0.00167688       0.00274724      -0.00278146
C        1.37019634       2.18713297       3.47948367       0.00000000      -0.00219541      -0.00394173       0.00008793
C       -0.01580454       4.41901511       2.98952414       0.00000000      -0.00322256       0.00422583      -0.00184840
C       -1.18118557       6.56832226       3.40299689       0.00000000      -0.00176208       0.00152934      -0.00268924
C       -2.35304757       8.66929884       3.74575336       0.00000000       0.00699021      -0.00002769       0.00197777
C        5.05211172       0.10923540       3.94945742       0.00000000      -0.00293266      -0.00205028       0.00609224
C        3.77210750       2.20022733       4.15665083       0.00000000      -0.00127463       0.00395249       0.00186367
P        1.37042585       6.74583477       2.16938639       0.00000000      -0.00174631       0.00754960      -0.00551704
C        0.12037669       8.65931827       3.69317267       0.00000000       0.00221808      -0.00049731      -0.00151196
C        7.51693077       0.13027387       3.88498254       0.00000000      -0.00151123       0.00301960       0.00571317
C        6.26895329       2.27463899       4.06125708       0.00000000      -0.00028577       0.00263521      -0.00044466
C        5.07371825       4.49354677       4.18026419       0.00000000       0.00012526       0.00071604       0.00336397
N        3.82282364       6.57915608       3.92146696       0.00000000      -0.00054203      -0.00478193      -0.00662056
C        2.61164012       8.67878826       3.75478724       0.00000000      -0.00270283      -0.00100686       0.00156646
C        9.98622169       0.13637909       3.74644683       0.00000000       0.00137662      -0.00687345      -0.00018126
C        8.73968185       2.27007071       3.78476559       0.00000000       0.00694241       0.00078361       0.00218435
C        7.49877543       4.41166348       3.86296888       0.00000000      -0.00154600       0.00257828      -0.00295457
C        6.27447917       6.56874038       3.82860061       0.00000000       0.00061295      -0.00379289       0.00467415
C        5.05678006       8.67804002       3.76292284       0.00000000      -0.00279991       0.00006337       0.00416539
C        0.11573083       1.55122757       3.52241006       0.00000000      -0.00045659       0.00160870      -0.00393047
C       -1.15666535       3.68284627       3.34467873       0.00000000      -0.00290743      -0.00201270      -0.00202813
C       -2.38544213       5.83134916       3.56148088       0.00000000       0.00141032      -0.00279461       0.00380384
C       -3.59099330       7.96265758       3.72864574       0.00000000       0.00628648      -0.00143815      -0.00073779
C       -4.82782363      10.09297926       3.72017200       0.00000000      -0.00108441      -0.00162874       0.00016372
C        2.56801578       1.51118470       3.85327123       0.00000000      -0.00378934       0.00271118       0.00037434
S        1.55501154       3.75957035       2.69473951       0.00000000       0.00462850      -0.00003482      -0.00152627
C       -0.00620138       5.85775025       2.98903967       0.00000000       0.00091803       0.00717986      -0.00032467
C       -1.11934604       7.96655846       3.61531231       0.00000000       0.00381479      -0.00005818      -0.00681837
C       -2.35046547      10.08228389       3.85776023       0.00000000      -0.00090965       0.00103637       0.00243444
C        5.03604506       1.54200456       4.09362160       0.00000000      -0.00230111      -0.00062126      -0.00037525
P        3.55959294       3.84987397       4.78398402       0.00000000      -0.00332560      -0.00263260      -0.00305394
C        1.38918640       7.93251902       3.58248370       0.00000000      -0.00091592      -0.00070013      -0.00383318
C        0.11949089      10.07941424       3.87139606       0.00000000      -0.00058484      -0.00085793       0.00008585
C        7.50459449       1.55967448       3.92614376       0.00000000       0.00371693       0.00586784       0.00334653
C        6.26747217       3.71181355       4.05075637       0.00000000      -0.00105800       0.00299152       0.00051311
C        5.03967242       5.89622911       3.97537245       0.00000000      -0.00003517      -0.00115736       0.00348949
C        3.83632525       7.96004815       3.80466133       0.00000000      -0.00257991      -0.00142885      -0.00283790
C        2.59052947      10.10538604       3.81589956       0.00000000      -0.00379963      -0.00216086      -0.00178463
C        9.98525446       1.56290906       3.67796132       0.00000000       0.00498655      -0.00720240       0.00596953
C        8.72907464       3.69485662       3.73987271       0.00000000      -0.00068011       0.00112738       0.00395613
C        7.49641503       5.83542066       3.79718112       0.00000000       0.00214250       0.00080538      -0.00020406
C        6.28314618       7.97570730       3.76280853       0.00000000      -0.00474359      -0.00554441      -0.00108327
C        5.04904690      10.10185235       3.70908874       0.00000000       0.00385264       0.00086540       0.00036429
W        1.97092835       5.64316115       4.10771473       0.00000000       0.00051287       0.00531690      -0.00201613
O        1.04711033       0.87896258       6.47857582       1.00000000      -0.01172076      -0.01107188       0.00434324
O       -0.17374410       1.01835771       6.43031015       1.00000000       0.01127409       0.01482559      -0.00292633
