51
Lattice="12.336457 0.0 0.0 -6.168228499999997 10.683685154694365 0.0 0.0 0.0 15.0" Properties=species:S:1:pos:R:3:initial_magmoms:R:1:forces:R:3 energy=-443.04863723396306 free_energy=-443.04863723396306 stress="0.001813186032378507 0.0012211086021557131 -1.3790711897403018e-05 0.0012211086021557131 0.0005008141975715696 -4.5281832488461104e-05 -1.3790711897403018e-05 -4.5281832488461104e-05 2.580977517026686e-05" pbc="T T T"
C       -0.42083864      -0.16156672       3.34788850       0.00000000       0.00751158      -0.00589354      -0.01297648
C       -1.65290264       1.96822031       3.65480113       0.00000000      -0.00792789       0.03804653      -0.00971140
C       -2.94169483       4.09567258       3.80120671       0.00000000       0.01199493      -0.00892329       0.00050477
C       -4.17324671       6.22729731       3.60500209       0.00000000       0.00569025       0.00262956       0.00017612
C       -5.37391621       8.36411369       3.32897898       0.00000000      -0.00911604      -0.01213276      -0.00278722
C        2.05508332      -0.17675687       3.21348417       0.00000000       0.01162685      -0.00866746      -0.01241595
C        0.86671538       1.93167653       3.53530649       0.00000000       0.01196076      -0.00179195       0.00654978
C       -0.52361566       4.11210145       4.18874682       0.00000000       0.01773676      -0.00626000      -0.00388207
C       -1.74008314       6.25939703       3.99290822       0.00000000      -0.01338989      -0.02101514       0.00455806
C       -2.90595629       8.36026938       3.52207802       0.00000000      -0.01478630       0.01458067       0.00239242
C        4.50828333      -0.19292249       3.38522135       0.00000000      -0.00049565       0.00069056      -0.00643706
C        3.34231555       1.93559652       3.04841710       0.00000000      -0.00725720      -0.00234182       0.01833858
P        0.92910964       6.23397857       4.87013845       0.00000000       0.01227225       0.00025208       0.01443606
C       -0.44256436       8.38513595       3.81022657       0.00000000       0.00366197       0.00849547      -0.01837248
C        6.97115586      -0.17123607       3.54285292       0.00000000       0.00008529       0.00817737      -0.00523806
C        5.72859968       1.96377231       3.54345209       0.00000000      -0.00076890      -0.02063032      -0.02803000
C        4.36800151       4.04402279       3.70205010       0.00000000       0.00248071      -0.01357849       0.01450346
N        3.32135983       6.29771012       3.76506357       0.00000000      -0.01277792       0.00890419      -0.01490387
C        2.04818087       8.39498701       3.69945980       0.00000000       0.00613192      -0.01579289      -0.00873315
C        9.44721472      -0.16134986       3.46449914       0.00000000      -0.00985681      -0.00800747       0.01863846
C        8.19992731       1.96523748       3.62396900       0.00000000       0.00194289       0.00405725       0.00533228
C        6.91013175       4.08833210       3.70997162       0.00000000       0.02399852       0.01039914      -0.00285817
C        5.69345590       6.21653224       3.43629012       0.00000000      -0.01656523       0.01498289       0.00371406
C        4.50531855       8.37549284       3.37617071       0.00000000      -0.01093663      -0.00840172       0.00078140
C       -0.40358981       1.26556541       3.51081928       0.00000000      -0.00191070       0.01925140      -0.00493527
C       -1.70362725       3.37334087       3.87151809       0.00000000       0.00686331       0.01708207       0.01539224
C       -2.95288998       5.52631776       3.80513826       0.00000000      -0.00412554      -0.02442899      -0.00715278
C       -4.14747038       7.64932942       3.47107734       0.00000000      -0.00807828      -0.00119376      -0.01103038
C       -5.36059623       9.79878044       3.27220919       0.00000000       0.01080585      -0.01603751       0.00589063
C        2.08053730       1.25733113       3.17741699       0.00000000       0.00710478      -0.01069904       0.01359789
P        1.09414673       3.45521588       4.34681077       0.00000000      -0.01639340       0.03788739       0.01596426
C       -0.58112892       5.51637608       4.34469855       0.00000000       0.00139743      -0.01489808       0.00235406
C       -1.68999599       7.66987423       3.80163925       0.00000000      -0.01610460       0.00424741       0.00171581
C       -2.89391716       9.78060393       3.33747303       0.00000000       0.00442194       0.01190692       0.00761350
C        4.52536065       1.23297681       3.29080940       0.00000000      -0.01884093      -0.01427280       0.01353793
O        3.45403366       3.29128217       2.78326673       0.00000000       0.00187933      -0.00667898      -0.00251309
C        0.82113152       7.75463806       4.02639225       0.00000000       0.00877239      -0.00332833       0.00422718
C       -0.43256985       9.79236715       3.56968988       0.00000000       0.00325826       0.01276964      -0.01736925
C        6.96293932       1.25636452       3.56253961       0.00000000       0.00536537       0.00047997       0.00242988
C        5.67617381       3.36836165       3.73682120       0.00000000       0.02238524      -0.01884230      -0.00783328
C        4.46000475       5.53654491       3.58541131       0.00000000      -0.01117446       0.01215711       0.00814431
C        3.28370776       7.66151785       3.58085982       0.00000000       0.00385012      -0.00430429       0.00195661
C        2.04590336       9.81091471       3.53726354       0.00000000      -0.00942212      -0.01105346       0.00935372
C        9.44792515       1.25979063       3.56377158       0.00000000      -0.00442934       0.00846876       0.00651635
C        8.16590463       3.38425689       3.71308156       0.00000000       0.01956713       0.00323910      -0.01167836
C        6.92435088       5.50917478       3.57549090       0.00000000      -0.00074492       0.02344022       0.00883667
C        5.72426935       7.65197523       3.34462370       0.00000000      -0.01341444       0.00283018       0.01066221
C        4.50999419       9.80766382       3.37785449       0.00000000      -0.00308966      -0.01082144      -0.00615738
W        2.77225497       4.84366150       5.15263001       0.00000000      -0.00219411       0.00477895      -0.03785423
O       13.38988252       8.82381094       9.83628410       1.00000000      -0.00463795       0.04896980      -0.07894278
O       13.32753813       9.48467185       8.79140914       1.00000000       0.00567309      -0.04872877       0.09369399
