51
Lattice="12.336457 0.0 0.0 -6.168228499999997 10.683685154694365 0.0 0.0 0.0 15.0" Properties=species:S:1:pos:R:3:initial_magmoms:R:1:forces:R:3 energy=-439.14312654703565 free_energy=-439.14312654703565 stress="-0.00018446148492372105 0.0024745264376484556 2.899171021995586e-05 0.0024745264376484556 -0.0031515304590082906 -5.3785597396168416e-05 2.899171021995586e-05 -5.3785597396168416e-05 -1.726850670771973e-05" pbc="T T T"
C        0.04110895      -0.01948907       3.69965570       0.00000000       0.02451768       0.02979854       0.00725850
C       -1.18740450       2.10340602       3.42975451       0.00000000      -0.00441094      -0.01158389      -0.00040374
C       -2.43796927       4.24844045       3.42716320       0.00000000       0.00832575      -0.01279734       0.03465047
C       -3.65452249       6.38264498       3.66258186       0.00000000      -0.00751855      -0.00507947       0.02144981
C       -4.91109057       8.50620649       3.77403710       0.00000000      -0.02814342      -0.00138836       0.04194950
C        2.50558392      -0.05021573       3.71290899       0.00000000      -0.00097607       0.02140794       0.01149663
C        1.30768734       2.13193333       3.52705335       0.00000000      -0.02665832      -0.02052086      -0.05122321
C       -0.07775905       4.23150567       2.85377676       0.00000000       0.03570183      -0.01635258      -0.01463620
C       -1.19085813       6.39308851       3.40396712       0.00000000      -0.00264617       0.01926640      -0.05009574
C       -2.41627767       8.50446233       3.64530824       0.00000000       0.00303450       0.01874334       0.01445257
C        4.96864939      -0.03199506       3.73499139       0.00000000      -0.01157734       0.02573851      -0.00592098
C        3.73865042       2.01383746       4.16081337       0.00000000      -0.01001342      -0.01334298      -0.04369589
O        1.23921784       6.11621711       3.10487716       0.00000000      -0.04337187      -0.01795151       0.01635350
C        0.02354673       8.54369635       3.87552458       0.00000000       0.00234826      -0.01086608      -0.03002674
C        7.44193043      -0.01912930       3.76719032       0.00000000      -0.02449477       0.00295489       0.02582979
C        6.22189629       2.09737900       3.94167356       0.00000000       0.01539246       0.00967421      -0.00382163
C        5.12200603       4.23522236       4.48109897       0.00000000       0.01954732      -0.02612915      -0.01675107
S        3.56873022       6.27802093       4.94594578       0.00000000      -0.03724985       0.05363357      -0.02415714
C        2.48928352       8.58674440       4.14632901       0.00000000       0.03188933      -0.01936382      -0.00200753
C        9.91650741      -0.02051836       3.71901249       0.00000000       0.00005876      -0.00336296       0.00718711
C        8.68213632       2.11276370       3.64077321       0.00000000       0.01059481       0.00182243      -0.03169120
C        7.46805802       4.24465737       3.84459691       0.00000000       0.00713540       0.01059407      -0.01643127
C        6.23651048       6.38380373       4.07793913       0.00000000      -0.00021670      -0.01271138       0.00989734
C        4.95479010       8.52138606       4.01959921       0.00000000      -0.00298444      -0.00645931       0.00132398
C        0.04887466       1.41230971       3.55654123       0.00000000       0.00115510       0.01968791      -0.00821145
C       -1.23592575       3.51049222       3.23466966       0.00000000       0.01983778      -0.02670330       0.02241903
C       -2.42113701       5.68077679       3.47323834       0.00000000      -0.00053847       0.00242584       0.01271784
C       -3.66357760       7.80049811       3.67802657       0.00000000      -0.01634215       0.00745800       0.03297456
C       -4.90205843       9.93319321       3.71888417       0.00000000       0.00932428       0.01087596      -0.02753007
C        2.52201031       1.38453699       3.80633880       0.00000000      -0.01430292       0.00316084      -0.02485259
S        1.33737813       3.35514197       2.14338917       0.00000000       0.02336120      -0.03194199      -0.00657742
C       -0.00005737       5.65017316       3.07773128       0.00000000       0.03701898       0.02695387      -0.00692122
C       -1.17125413       7.80483914       3.64567865       0.00000000       0.01827938       0.00450045      -0.01170118
C       -2.42492299       9.93088441       3.69700019       0.00000000      -0.00167984       0.02046967       0.01395034
C        4.98683279       1.38197516       3.92719084       0.00000000       0.00714884       0.00883105       0.01065699
S        3.75644097       3.40398261       5.22085537       0.00000000      -0.01218256      -0.00590571      -0.03353146
C        1.19860908       7.98816667       4.56901667       0.00000000       0.02831625      -0.04256084       0.03112204
C        0.03859561       9.94263377       3.76159104       0.00000000      -0.02550400       0.00169333       0.01065997
C        7.44263876       1.40267015       3.75508957       0.00000000       0.00918158       0.00449865       0.00497976
C        6.26314671       3.50984746       4.08049778       0.00000000       0.01664777       0.00426715      -0.03654953
C        5.09130099       5.61905666       4.43302860       0.00000000       0.03880225      -0.02137075      -0.00483231
C        3.69835387       7.89690021       4.28888390       0.00000000       0.01800945      -0.02720985       0.03762313
C        2.50685632       9.96268221       3.83337217       0.00000000      -0.02038505      -0.01937029       0.02497426
C        9.91472579       1.39884487       3.57535030       0.00000000      -0.00134347      -0.01117075       0.01448417
C        8.68084663       3.53479749       3.62153942       0.00000000       0.00928110       0.00465912       0.01899561
C        7.46162880       5.66864958       3.85535036       0.00000000      -0.01282775      -0.00800097      -0.03428501
C        6.19730542       7.80319733       3.96983213       0.00000000      -0.04402734      -0.01804608       0.00088287
C        4.97016039       9.94722794       3.79658453       0.00000000       0.01811058       0.02304992       0.00905487
W        1.80622928       4.48129777       4.25380212       0.00000000      -0.08915548       0.02429193      -0.00307145
O        1.09165067       7.18688297       5.51626195       1.00000000       0.01790497      -0.05178676       0.01264101
O        0.99474502       4.28300896       5.76112514       1.00000000       0.00762529       0.08151937       0.03894039
