52
Lattice="12.336457 0.0 0.0 -6.168228499999997 10.683685154694365 0.0 0.0 0.0 15.0" Properties=species:S:1:pos:R:3:forces:R:3 energy=-440.4515717350562 free_energy=-440.4515717350562 stress="0.004728704045527395 0.005508780426422563 -5.728145989304475e-06 0.005508780426422563 -0.001964060937498845 7.52585024207726e-06 -5.728145989304475e-06 7.52585024207726e-06 -7.367726465573807e-06" pbc="T T T"
C        0.00558605      -0.02075364       3.50209239       0.00515677      -0.00682670      -0.00665629
C       -1.16859850       2.16030853       3.35164012       0.00274245      -0.00056765      -0.00414800
C       -2.39719969       4.28474637       3.52038816      -0.00498042       0.00259479       0.00254985
C       -3.67318436       6.39556652       3.66876958      -0.00126995      -0.00035171      -0.00200008
C       -4.96529942       8.50135664       3.62028386      -0.00077894      -0.00402920       0.00066532
C        2.46925681      -0.06263653       3.63455333      -0.00503255       0.00942376       0.00174564
C        1.30456355       2.11267603       3.57177824      -0.00410457      -0.00311251      -0.00611792
C        0.04619753       4.36281197       3.14613703      -0.00247579       0.01416539      -0.00108704
C       -1.19057024       6.44418169       3.54593418       0.00683191      -0.00022768       0.00238421
C       -2.46607623       8.52479817       3.53549038      -0.00012188       0.00420270      -0.00022310
C        4.95107882      -0.01668783       3.56527855       0.00121835      -0.00651681      -0.00130021
C        3.72624092       1.99611340       4.05094894       0.00999122      -0.00276594       0.00197064
O        1.03330980       6.58261339       2.57377586      -0.00717613      -0.00190749      -0.00149368
C       -0.01676319       8.57400639       3.22581709      -0.00088250      -0.00375274       0.00533630
C        7.41885835       0.01383657       3.33522726       0.00051812       0.00286564       0.01058751
C        6.22060728       2.10821846       3.81078792       0.00249817      -0.00311098      -0.00179371
C        5.07795368       4.24267892       4.32244369       0.00635646      -0.00258143      -0.01183920
S        3.34965123       6.22505180       4.14103966       0.00995882      -0.00457193       0.00871920
C        2.42728361       8.54127085       3.15890049      -0.00252641      -0.00015167       0.00232224
C        9.88807291      -0.00156320       3.33098879      -0.00044298       0.00154287      -0.00453153
C        8.68704733       2.14337354       3.48752374       0.00071126       0.00036800       0.00562530
C        7.46726034       4.25400315       3.79641232      -0.00129405      -0.00411162       0.00187826
C        6.17140946       6.37835180       3.84923807      -0.00692985       0.00239381       0.00657652
C        4.88323421       8.50012344       3.56085293      -0.00143992       0.00496347      -0.00832175
C        0.04365213       1.42596798       3.45461709       0.00058371      -0.00527240      -0.00634952
C       -1.16280903       3.59163085       3.33060965      -0.00439019       0.00548240      -0.00580375
C       -2.41121461       5.70645769       3.60304706       0.00292168       0.00107160       0.00479777
C       -3.70821452       7.80955754       3.61895952      -0.00001203       0.00391313      -0.00744310
C       -4.94790877       9.92694150       3.57439561       0.00140249      -0.00302994      -0.00410333
C        2.49834470       1.35426300       3.76357652       0.00393719       0.00969970      -0.00236373
S        1.53055778       3.55773562       2.54210803       0.00189187      -0.00008027       0.00129027
C        0.09638807       5.81582868       3.37061933       0.00535141       0.00858122      -0.00366027
C       -1.23198254       7.84157943       3.43147104      -0.00004242      -0.00235132       0.00406380
C       -2.45677792       9.94244475       3.57273713      -0.00622559       0.00424198       0.00168457
C        4.98144104       1.38562908       3.81131339       0.00702155      -0.00785390      -0.01084419
S        3.65641554       3.43863065       4.96462445      -0.00535198      -0.00161298       0.00499491
C        1.16189050       7.89472523       2.96565072      -0.00437044      -0.00313839       0.00239188
C        0.01344064       9.98809139       3.36063540       0.00281721      -0.00384974       0.00229263
C        7.43779295       1.43046151       3.53292625       0.00294979       0.00373696       0.01323623
C        6.25440164       3.51612515       3.99172150       0.00274253      -0.00197237       0.00182742
C        4.99257584       5.61535915       4.12256308      -0.00719268      -0.00171586      -0.00518189
C        3.60847638       7.83669186       3.53562018      -0.00096839       0.00415798      -0.00021222
C        2.47166458       9.97511783       3.23005876      -0.00339569       0.00241877       0.00062581
C        9.91940615       1.43732041       3.36880156      -0.00009665      -0.00219411      -0.00604721
C        8.70216644       3.56038485       3.60172359      -0.00411617      -0.00214414      -0.00046462
C        7.43212872       5.67836271       3.78157944      -0.00294545      -0.00401860       0.00559808
C        6.12818230       7.79131900       3.68301315      -0.00307116      -0.00171000       0.00269237
C        4.92917897       9.94447878       3.43853464       0.00336507       0.00059111      -0.00084909
W        1.69468091       4.61582184       4.62949968       0.00075081      -0.00105120       0.00582057
O        1.27797833       5.44364406      10.42633253       0.00407909      -0.00057507       0.00121845
O        1.80885988       4.64225980      11.38185368       0.00418734      -0.00257638       0.00249912
H        2.77574308       4.61054701      11.20502506      -0.00835053       0.00331742      -0.00255945
