52
Lattice="12.336457 0.0 0.0 -6.168228499999997 10.683685154694365 0.0 0.0 0.0 15.0" Properties=species:S:1:pos:R:3:initial_magmoms:R:1:forces:R:3 energy=-451.3490481560053 free_energy=-451.3490481560053 stress="0.004170898615366839 0.00024572296064412325 7.90026844383133e-06 0.00024572296064412325 -0.0027145479459201225 9.78922153288876e-05 7.90026844383133e-06 9.78922153288876e-05 -9.864236137798871e-05" pbc="T T T"
C       -0.05102768      -0.07396579       3.88100714       0.00000000       0.00912559      -0.00084943      -0.01564550
C       -1.26990077       2.07457065       3.96365501       0.00000000       0.00540958      -0.00229333       0.00839224
C       -2.49925298       4.21328003       3.96177174       0.00000000      -0.00388139       0.00900432       0.00272713
C       -3.74191959       6.34296987       3.89589164       0.00000000      -0.00995266       0.00536659      -0.01691823
C       -4.98728651       8.46923594       3.82306828       0.00000000      -0.00764929       0.00742904       0.00615949
C        2.42260440      -0.08287587       3.97041510       0.00000000      -0.00282977       0.00532051      -0.00796379
C        1.19602790       2.04620299       4.08661468       0.00000000      -0.00317607      -0.02861141      -0.00766853
C       -0.00273433       4.18761568       3.96311093       0.00000000       0.01334719      -0.00428151       0.00123653
C       -1.24310288       6.34635305       3.76015248       0.00000000      -0.01191099       0.00742645       0.00184433
C       -2.50245693       8.47131709       3.80678632       0.00000000      -0.00162428       0.00565790       0.00602405
C        4.89393181      -0.06922272       3.84538095       0.00000000       0.00916655      -0.00800041       0.00311096
C        3.64936618       2.04773541       4.05845679       0.00000000      -0.00062004      -0.00407399       0.00392447
O        2.42430452       4.11246042       4.06359569       0.00000000      -0.01154898       0.01006948      -0.01171547
P        0.98132441       6.25156077       2.25807501       0.00000000      -0.01901932      -0.00183497      -0.01511693
C       -0.05528516       8.51399212       3.44516876       0.00000000      -0.00648718       0.00224100       0.00061916
C        7.35576752      -0.02997668       3.62907679       0.00000000      -0.00363375      -0.00052424       0.00557975
C        6.11682467       2.07590005       3.94548436       0.00000000       0.00723999       0.00122614      -0.00686340
C        4.85323376       4.18688292       3.93142549       0.00000000       0.00534689       0.00210954      -0.00721852
P        3.86858299       6.24213129       2.24530988       0.00000000       0.00044982       0.00900861      -0.01588682
C        2.42622887       8.61476698       3.02160951       0.00000000       0.00073828       0.00583639      -0.00715843
C        9.82775027      -0.03334484       3.64693883       0.00000000       0.00053328       0.00283415       0.00266970
C        8.59249087       2.08592450       3.89092493       0.00000000       0.00024745       0.00119145      -0.00796960
C        7.35049757       4.21291123       3.95719743       0.00000000      -0.00121826       0.00020426       0.00095523
C        6.09586860       6.34306227       3.75466054       0.00000000       0.00407368      -0.00041080      -0.01295576
C        4.90049332       8.50801141       3.46519877       0.00000000       0.00889990       0.00779692       0.00929946
C       -0.04836187       1.34589882       3.99108808       0.00000000      -0.00613695       0.00157551       0.00810753
C       -1.26186191       3.49449463       3.99021662       0.00000000      -0.00808611      -0.00598992       0.01220250
C       -2.48924402       5.64129526       3.90448542       0.00000000      -0.01757706      -0.00425369       0.00946350
C       -3.74358159       7.76269745       3.85609557       0.00000000      -0.00934974       0.00900554      -0.00522153
C       -4.98585996       9.88882503       3.90075524       0.00000000       0.00495658      -0.00203320      -0.00670077
C        2.42283982       1.32647501       4.06378367       0.00000000      -0.00065992       0.00250095      -0.01722585
C        1.17150911       3.43784947       4.08186176       0.00000000       0.00738214       0.02463777      -0.02199061
C        0.03092028       5.62087138       3.70561531       0.00000000       0.00889207      -0.01239937      -0.00289946
C       -1.25711509       7.76927073       3.65598680       0.00000000       0.00486372       0.01043613       0.01851830
C       -2.50617016       9.89114286       3.87638415       0.00000000       0.00298707       0.00370414       0.01551471
C        4.89314880       1.34881028       3.96024396       0.00000000       0.01590151      -0.00054820       0.01252672
C        3.67636170       3.43878922       4.04615954       0.00000000       0.01219943      -0.00205591      -0.00647107
C        1.17669613       7.87287281       3.04294618       0.00000000       0.00198046      -0.02341896       0.00870100
C       -0.04492631       9.92279884       3.64327446       0.00000000       0.00412402      -0.00069029      -0.00421935
C        7.35615981       1.37381663       3.83681422       0.00000000       0.00440208       0.00986349       0.00268144
C        6.11123877       3.49478025       3.97498212       0.00000000       0.00840645      -0.00329021       0.00017103
C        4.82825218       5.61577899       3.66765465       0.00000000       0.00241177      -0.00043980       0.00741983
C        3.67245535       7.86775815       3.03993129       0.00000000       0.00367763      -0.00632095       0.01027191
C        2.42463550       9.97527419       3.40801140       0.00000000      -0.00441627       0.00688548       0.00303540
C        9.82792592       1.37183896       3.84893329       0.00000000      -0.00243201       0.01336837       0.00310975
C        8.59363267       3.50876805       3.95997339       0.00000000      -0.00773253      -0.00380271       0.00365369
C        7.34167441       5.64102942       3.90283366       0.00000000      -0.00839533      -0.00668242      -0.00464468
C        6.10474920       7.76629526       3.67205774       0.00000000      -0.00338960       0.00284898       0.01292976
C        4.88918575       9.91558749       3.67363397       0.00000000       0.00278819       0.00791694      -0.00457468
W        2.42893829       6.12947181       4.09259444       0.00000000       0.03632531       0.05762597      -0.08221978
O        3.32315246       6.65352704       5.98005344       1.00000000       0.05335137       0.00544576      -0.01972765
O        2.14593306       7.36695009       5.71699169       1.00000000      -0.08750050      -0.11573206       0.12812682
