53
Lattice="12.336457 0.0 0.0 -6.168228499999997 10.683685154694365 0.0 0.0 0.0 15.0" Properties=species:S:1:pos:R:3:forces:R:3 energy=-457.52635974943064 free_energy=-457.52635974943064 stress="0.005889797950205063 0.002139940753706387 -1.0153648560363334e-05 0.002139940753706387 -0.004017600635424785 2.4781666269061585e-05 -1.0153648560363334e-05 2.4781666269061585e-05 1.0960760714305863e-05" pbc="T T T"
C       -0.01601612       0.12294414       3.82508136      -0.00746227       0.00216275       0.00093491
C       -1.21969939       2.28390292       3.73813202       0.00468284      -0.00581198       0.00279487
C       -2.44025025       4.41633514       3.77053535       0.00440986       0.00608485      -0.00154415
C       -3.71108405       6.53374787       3.90123181       0.00147407       0.00179665       0.00263557
C       -4.97345280       8.65322772       3.93726022      -0.00270007      -0.00366321       0.00425669
C        2.45172593       0.10674401       3.72376344      -0.00033309      -0.01022294      -0.00185577
C        1.23802739       2.22984089       3.58574719       0.00592687       0.00137557      -0.00168595
C        0.08111267       4.40039858       3.71835250       0.00185740       0.00085446      -0.00196089
C       -1.20837803       6.55324388       3.88565714       0.00646227       0.01286163      -0.01134804
C       -2.48076329       8.66743099       3.89399916      -0.00525897       0.00248833      -0.00135305
C        4.92498070       0.12675958       3.75740924       0.00803634       0.00337248       0.00667381
C        3.68432662       2.23585487       3.54681846      -0.00168052       0.00888461      -0.00872942
O        2.46873188       4.24169012       3.30376848       0.00314169      -0.00366209       0.01212117
O        0.54286688       6.20570007       2.17926259      -0.00217106      -0.00297101       0.00182838
C        0.00187985       8.70430072       4.09370805      -0.01161035      -0.00771126       0.00804689
C        7.38493725       0.17660893       3.87667700      -0.00448106      -0.00134703      -0.00425908
C        6.15104654       2.27649476       3.65857147      -0.00246059      -0.00108928      -0.00746514
C        4.87097727       4.37507747       3.71535717       0.01172198       0.00393729      -0.00819380
S        3.43458434       6.43682891       4.69953929       0.00076774      -0.01358100      -0.00208086
C        2.41702074       8.76815243       4.30099734      -0.00141442       0.00380926      -0.00831568
C        9.85963160       0.16650397       3.91824023       0.00059053       0.00031922       0.00577128
C        8.63549770       2.29540395       3.74794453       0.00011190       0.00246259      -0.00182627
C        7.38528792       4.40940162       3.76468815      -0.00873638       0.00404487      -0.00197952
C        6.10983088       6.51447586       4.02239529      -0.00433417       0.00322232      -0.01111885
C        4.90523499       8.69316346       4.12929736      -0.00083565      -0.00934010      -0.00582695
C       -0.00451270       1.54435627       3.70869073       0.00498403       0.00126969      -0.00328495
C       -1.19786400       3.70630034       3.73829615       0.00221475      -0.00768276       0.00585026
C       -2.45396818       5.83552895       3.85513729       0.01242170       0.01296136      -0.00546783
C       -3.72102703       7.95127730       3.91339341      -0.00288970      -0.00015581       0.00816717
C       -4.95786518      10.07841301       3.83169576      -0.00930920      -0.00346651       0.00019209
C        2.45747950       1.51215549       3.58689592       0.00213396      -0.00357468       0.00708367
C        1.26646779       3.61776008       3.52349947       0.00199037       0.00431470      -0.00193364
C       -0.03932493       5.83895572       3.23531613       0.00089260       0.00847802       0.00560811
C       -1.23223731       7.97218504       3.96471494      -0.01225222       0.00493162      -0.00311660
C       -2.47821751      10.08550081       3.79319980       0.00735636      -0.00004454      -0.00362774
C        4.92606193       1.54701136       3.63903060      -0.00296758       0.00615141       0.00857601
C        3.67741866       3.62131234       3.51722696       0.00667920       0.00703605      -0.00289191
C        1.20619021       8.06937856       4.43286837      -0.00256580       0.00268642      -0.00376433
C       -0.00896468      10.13552974       3.89853957       0.00002817      -0.01030414       0.00480823
C        7.39295397       1.58832284       3.74381931      -0.00371037       0.00015794       0.00151322
C        6.13665811       3.69729715       3.67903277       0.00027412      -0.00258194       0.00370276
C        4.89727568       5.75591460       4.06938969       0.00539766      -0.00094575       0.00096309
C        3.65252609       8.08830225       4.35735921      -0.00118199      -0.00899110       0.00679263
C        2.44675768      10.17673485       4.02007379      -0.00178275       0.00825673       0.00221954
C        9.87161202       1.58534165       3.79261026       0.00183456      -0.00295575      -0.00518738
C        8.64092071       3.71183584       3.74449714      -0.00206147       0.00683900       0.00386841
C        7.37648561       5.82299725       3.88625351      -0.00649144       0.00255011       0.00746000
C        6.12101207       7.94488376       4.05871360       0.00138773      -0.00331056      -0.00363109
C        4.91578987      10.12003796       3.96130787      -0.00324192      -0.00617288       0.00367314
W        1.10942205       6.02442573       5.15196243      -0.00471606      -0.00873285      -0.00098404
O        1.81526805       4.67165825       6.04948836      -0.00737850      -0.00994122      -0.00888741
O        2.59331486       3.07552126       6.30473658       0.00425991       0.01204251       0.00926154
H        2.38807872       3.19531693       7.26182592       0.01298901      -0.00709204      -0.00248306
