52
Lattice="12.336457 0.0 0.0 -6.168228499999997 10.683685154694365 0.0 0.0 0.0 15.0" Properties=species:S:1:pos:R:3:initial_magmoms:R:1:forces:R:3 energy=-453.61102670760863 free_energy=-453.61102670760863 stress="0.007225747735971266 0.003984471747111923 1.3501624000498357e-05 0.003984471747111923 -0.000334107244562658 -9.870082665402424e-06 1.3501624000498357e-05 -9.870082665402424e-06 9.23452272282243e-05" pbc="T T T"
C       -0.11760978       0.10983366       3.93797851       0.00000000      -0.00759058      -0.01350748       0.01191689
C       -1.32108581       2.26207521       3.76132689       0.00000000       0.00809624      -0.01378181       0.02708735
C       -2.54818636       4.38870147       3.61853461       0.00000000       0.00066465       0.01764938       0.00961171
C       -3.82694905       6.49851246       3.75088883       0.00000000      -0.01658655       0.02508986       0.02333278
C       -5.08825357       8.61941476       3.91481166       0.00000000      -0.01559148       0.01384728      -0.00718427
C        2.33944999       0.08808747       3.83509232       0.00000000      -0.00434702       0.01929706      -0.00147014
C        1.15028166       2.25755000       3.84832824       0.00000000      -0.00739864      -0.00721707      -0.00368898
C       -0.03590765       4.38936143       3.51268826       0.00000000      -0.02752572      -0.01684666       0.00153158
C       -1.31515069       6.52621072       3.68199751       0.00000000      -0.00226803      -0.02423543      -0.00649133
C       -2.60266669       8.63634925       3.78675892       0.00000000       0.00474807       0.02040220       0.00260579
C        4.81857500       0.08831063       3.72881309       0.00000000       0.00747276       0.00487101       0.02343079
C        3.58903108       2.19881805       3.61300790       0.00000000      -0.00405638      -0.01526496      -0.01148288
O        2.38502265       4.12214119       3.00293915       0.00000000      -0.00490769      -0.02159603       0.02208624
O        0.17521278       6.06345331       1.73254787       0.00000000       0.03543821       0.00640872      -0.02697949
C       -0.11709334       8.64901534       3.87931090       0.00000000      -0.01753636      -0.00311738       0.01209586
C        7.28068315       0.12916604       3.80370868       0.00000000       0.00267200      -0.00641891       0.00453591
C        6.05529420       2.23417485       3.61534073       0.00000000      -0.00726448      -0.00994638      -0.03094961
C        4.78000865       4.32534384       3.54047788       0.00000000       0.00492474       0.01410445       0.03451696
S        3.21914067       6.33392102       4.33336994       0.00000000       0.01669326       0.02131726      -0.00903962
C        2.29694039       8.69367263       4.11358476       0.00000000       0.01928310      -0.01633497       0.01736686
C        9.75259164       0.12796307       3.91812730       0.00000000      -0.00838547       0.00665606      -0.01118593
C        8.53580350       2.25658642       3.68697228       0.00000000       0.00700377       0.01018741       0.00879058
C        7.28099969       4.37088114       3.62631372       0.00000000       0.02418343      -0.00836722      -0.00799197
C        5.99013604       6.47408812       3.87017689       0.00000000      -0.00129440       0.00022168      -0.00427962
C        4.78701737       8.64552010       4.06688681       0.00000000       0.00281036      -0.00534020      -0.00066787
C       -0.09296847       1.54756087       3.86913414       0.00000000       0.00161658      -0.01875339       0.01117549
C       -1.30587001       3.67960009       3.62183323       0.00000000      -0.01365295      -0.00986024       0.01170660
C       -2.56805405       5.80417667       3.67725126       0.00000000      -0.02120656       0.01062329      -0.01077032
C       -3.84091601       7.91806566       3.81826300       0.00000000      -0.01133578       0.03237451       0.01033309
C       -5.06897432      10.05537123       3.91836744       0.00000000      -0.00246789       0.00571018      -0.02468249
C        2.34936759       1.50797501       3.77673882       0.00000000      -0.01243093       0.00584965      -0.01223777
C        1.22635703       3.68458016       3.68639064       0.00000000      -0.00213175      -0.02716161       0.00023935
C       -0.21401092       5.79905207       2.89577411       0.00000000       0.00035584       0.02457390      -0.00613944
C       -1.35275818       7.94649834       3.75945102       0.00000000      -0.01159051      -0.02561562       0.02443175
C       -2.59369645      10.05744368       3.78430205       0.00000000       0.00732772       0.02700860       0.00506140
C        4.82972485       1.50827230       3.65304784       0.00000000      -0.00443680      -0.00676632      -0.00756451
C        3.58726306       3.56431670       3.38975825       0.00000000       0.01464077      -0.01243751      -0.02311086
C        1.08343530       7.96040993       4.14366133       0.00000000      -0.00146029       0.01610309       0.00662714
C       -0.11479664      10.08881951       3.79146495       0.00000000      -0.00074480      -0.00146495      -0.01709072
C        7.29453547       1.54436837       3.69315541       0.00000000       0.00358367      -0.00558427      -0.02735453
C        6.04245425       3.64943071       3.56243391       0.00000000       0.01204055       0.00178233      -0.02102519
C        4.77649064       5.70969345       3.85219457       0.00000000      -0.01817577       0.02929164       0.01152612
C        3.52274718       8.01286858       4.18297411       0.00000000       0.02172603      -0.01102233       0.00351616
C        2.33831824      10.12227455       3.94170483       0.00000000       0.00647998      -0.00822564       0.00219814
C        9.77044500       1.55107597       3.78833658       0.00000000       0.00013469       0.00760328      -0.00776056
C        8.53503320       3.67456159       3.62479135       0.00000000       0.02316079       0.01051019       0.02149319
C        7.26083719       5.78658145       3.73876802       0.00000000       0.00155481      -0.01078443       0.00091098
C        6.00472033       7.90385309       3.97792674       0.00000000      -0.00985552      -0.00346180      -0.02601181
C        4.80975136      10.08683169       3.99130517       0.00000000      -0.01332375      -0.00167581      -0.02271424
W        0.86311538       5.92643583       4.72576888       0.00000000       0.01088305      -0.05486677       0.16210961
O        5.77542262       4.05980357       6.49780880       1.00000000      -0.05653790      -0.08396733      -0.04165088
O        5.01820615       3.09236853       6.43448853       1.00000000       0.06660893       0.11213946      -0.10071332
