52
Lattice="12.336457 0.0 0.0 -6.168228499999997 10.683685154694365 0.0 0.0 0.0 15.0" Properties=species:S:1:pos:R:3:initial_magmoms:R:1:forces:R:3 energy=-456.12524471390134 free_energy=-456.12524471390134 stress="0.0019578096804890458 0.0008764870921637892 1.9173397487252755e-05 0.0008764870921637892 -0.00397529622190506 8.083886501057692e-06 1.9173397487252755e-05 8.083886501057692e-06 1.8011982190201398e-05" pbc="T T T"
C       -0.01616728      -0.00010901       3.72167217       0.00000000      -0.00286667       0.00574125       0.00189133
C       -1.23669857       2.15455711       3.75975813       0.00000000      -0.00650389       0.00192271      -0.00297246
C       -2.46394634       4.27471231       3.84094011       0.00000000       0.00130390       0.00480785       0.00095835
C       -3.72759139       6.40031774       3.85676568       0.00000000      -0.00004849      -0.00409338       0.00433365
C       -4.95298520       8.53791626       3.77306356       0.00000000       0.00570234      -0.00649537      -0.01042938
C        2.44868096      -0.01341601       3.77093972       0.00000000      -0.00932938      -0.00442877       0.00509647
C        1.22500402       2.12551201       3.72821970       0.00000000       0.00607232      -0.00114945      -0.00506609
C        0.05765736       4.29680477       3.82629394       0.00000000       0.00270734      -0.00037183      -0.00021300
C       -1.23179369       6.40078519       3.92978053       0.00000000      -0.00583168       0.00261004      -0.00261622
C       -2.48035361       8.53016679       3.87025808       0.00000000      -0.00040070       0.00034650      -0.00089594
C        4.91696075      -0.01047935       3.79471774       0.00000000      -0.00482602       0.00131454       0.01576213
C        3.67799682       2.10112344       3.65233325       0.00000000       0.00407823       0.00535371      -0.00624761
O        2.45282614       4.12402120       3.45494619       0.00000000       0.00487475       0.00002445       0.00878575
O        1.17712889       6.45956636       3.89065062       0.00000000      -0.00344195       0.00533953       0.00237254
C       -0.02516633       8.54938052       3.87416613       0.00000000      -0.00459940       0.00031435       0.00294308
C        7.37668857       0.01040079       3.73284117       0.00000000       0.00591721       0.00084148      -0.01669719
C        6.14232597       2.13344104       3.75139240       0.00000000       0.00007926       0.00087392      -0.00306096
C        4.86996058       4.23218406       3.65176158       0.00000000       0.00479814      -0.00451298      -0.00685234
P        3.75265678       6.34127967       2.48552130       0.00000000       0.01169611      -0.00498812       0.01053584
C        2.40003688       8.56613895       3.53974288       0.00000000       0.00265391       0.00028508      -0.00558165
C        9.84728453       0.01967053       3.65346399       0.00000000       0.01119574      -0.00709004       0.01355521
C        8.61904694       2.14618945       3.76095002       0.00000000       0.00283146       0.00545909       0.00703019
C        7.37289761       4.26715097       3.80340526       0.00000000      -0.00826447       0.00656085      -0.01503742
C        6.12517037       6.40407945       3.73847781       0.00000000      -0.00862345       0.00200208       0.00148136
C        4.93586214       8.56355324       3.56175084       0.00000000       0.00166527      -0.00332597       0.00546549
C       -0.01673194       1.42473313       3.74639246       0.00000000      -0.00270918       0.00736471       0.00238099
C       -1.20942086       3.58025028       3.81288081       0.00000000      -0.00123913       0.00254773      -0.00545994
C       -2.48246636       5.69137116       3.88424096       0.00000000       0.00090750       0.00155731       0.00067967
C       -3.72534087       7.82370118       3.84622820       0.00000000       0.00627967      -0.00631417      -0.00671903
C       -4.95553255       9.95800286       3.75974659       0.00000000      -0.00865209      -0.00510739      -0.00082655
C        2.44989950       1.39610523       3.71094163       0.00000000       0.00543322      -0.00231482      -0.00255688
C        1.24718258       3.51034145       3.68929870       0.00000000       0.00756318      -0.00036420      -0.01438362
C       -0.03868315       5.69452371       3.94971387       0.00000000      -0.00738752      -0.00035212       0.00050509
C       -1.25114116       7.83047364       3.91291880       0.00000000      -0.00666874      -0.00121174       0.00124332
C       -2.48369717       9.95578081       3.81699451       0.00000000      -0.00753252      -0.00032058      -0.00341026
C        4.91960138       1.40978948       3.73462439       0.00000000      -0.00028668       0.00287678       0.00137759
C        3.67874881       3.48939422       3.52175317       0.00000000       0.00419292       0.00419892       0.00537558
C        1.20366976       7.88200643       3.82729376       0.00000000      -0.01039715       0.01412299      -0.00634049
C       -0.01874526       9.97588736       3.80622298       0.00000000      -0.00025614       0.00161630      -0.00023679
C        7.38158256       1.43296299       3.75455749       0.00000000       0.00292734       0.00411290      -0.00485440
C        6.12403758       3.55363241       3.74602229       0.00000000      -0.00142259      -0.00163183      -0.00122143
C        4.85474764       5.68722729       3.71316408       0.00000000      -0.00023650      -0.01243942       0.01335194
C        3.67245732       7.86812988       3.37129023       0.00000000       0.00143648      -0.00236055      -0.00117232
C        2.43433550       9.99627929       3.62359228       0.00000000       0.01083342      -0.00266184       0.00063601
C        9.85532803       1.43900759       3.72654736       0.00000000      -0.00039681      -0.00571633       0.01170396
C        8.61855193       3.56594250       3.80802577       0.00000000      -0.00256412       0.00912787      -0.00114860
C        7.36452483       5.69227208       3.81363124       0.00000000      -0.00886285       0.00581168       0.00462668
C        6.13667782       7.82452189       3.68423496       0.00000000       0.00012675       0.00002878       0.00752354
C        4.91865657       9.98207651       3.65155356       0.00000000       0.00696401      -0.00346156       0.00658701
W        2.93582394       6.54376676       5.01818638       0.00000000       0.01142133      -0.00839243      -0.01198287
O        3.03240604       4.97904453       5.82354698       1.00000000      -0.00725193      -0.00744784       0.00536128
O        3.18783542       7.82950992       6.18211920       1.00000000      -0.00306175      -0.00061064      -0.00558060
