53
Lattice="12.336457 0.0 0.0 -6.168228499999997 10.683685154694365 0.0 0.0 0.0 15.0" Properties=species:S:1:pos:R:3:forces:R:3 energy=-460.09354769304224 free_energy=-460.09354769304224 stress="0.0016574250421970845 0.000574264339352631 -0.00022485365038241216 0.000574264339352631 -0.004308972505890451 -4.4190222516879416e-05 -0.00022485365038241216 -4.4190222516879416e-05 -0.00010173355374355403" pbc="T T T"
C       -0.00422379      -0.02662501       3.75791659      -0.02496258      -0.06160968       0.04522999
C       -1.23369448       2.12039181       3.82153139       0.05221322       0.03914195       0.05500751
C       -2.46244514       4.24181026       3.89544797       0.06586439       0.01864749       0.04319931
C       -3.72135004       6.36889245       3.92805636       0.02621949      -0.01995590      -0.00654642
C       -4.94419594       8.50482231       3.80300501       0.01898130      -0.01912309      -0.04902088
C        2.46095889      -0.05320931       3.84920172      -0.00658920       0.06159605      -0.02807895
C        1.23616704       2.08716661       3.94670965      -0.01067793      -0.00618505      -0.09782212
C        0.06056601       4.25486619       3.99371772       0.01471203       0.00451218      -0.00946196
C       -1.22232904       6.36503897       3.99035019      -0.03485775      -0.01819011      -0.05174660
C       -2.47041923       8.49207184       3.88231012      -0.02198904       0.05649929      -0.02392932
C        4.93130999      -0.04919086       3.77614973      -0.05221603       0.03477091       0.12867241
C        3.69070673       2.06289131       3.90243897      -0.04314474      -0.04840285      -0.00987630
O        2.47033177       4.09825603       3.95627898       0.01853853       0.02884895       0.01979613
O        1.18191464       6.40004381       3.76310519      -0.18097053      -0.01851174      -0.00734519
C       -0.01809547       8.51321955       3.87971944       0.03392772      -0.00320994      -0.04199585
C        7.38837997      -0.02661702       3.69519029      -0.01050814       0.02231670       0.06646548
C        6.15422116       2.10274852       3.80322170      -0.07096725      -0.06782016       0.06599512
C        4.88231912       4.19801286       3.99488614      -0.04134016      -0.00741781       0.00778617
P        3.75388949       6.19108524       2.64856750      -0.06078147      -0.00617706      -0.08327465
C        2.42067155       8.52693589       3.53912630       0.04485020       0.03118728      -0.06760536
C        9.85528228      -0.01086312       3.67328370       0.06673032      -0.05072721      -0.09380017
C        8.62004509       2.11766640       3.74757217       0.09630659      -0.04126749       0.10994903
C        7.38011949       4.23735020       3.89498117       0.00472007      -0.00730437       0.00332088
C        6.12995232       6.37408130       3.86754070       0.00926072       0.10013619      -0.05165442
C        4.95572084       8.54007468       3.50563965      -0.03873030      -0.00810886       0.00536383
C       -0.00739437       1.39456015       3.83995775      -0.02034392      -0.01944782       0.04848862
C       -1.20787369       3.54330723       3.90546141       0.03142029       0.04015990       0.00275876
C       -2.47647518       5.65892356       3.95790129       0.01407632      -0.02449723      -0.03337223
C       -3.71676777       7.79016603       3.88356764       0.00545489      -0.00804214       0.01870167
C       -4.94618046       9.92548306       3.81036792       0.02719681      -0.01010863      -0.06078341
C        2.46263935       1.35690699       3.89809298      -0.02275480       0.04131594       0.03681948
C        1.25183100       3.47012174       4.00508445      -0.05155954      -0.02966029      -0.11766186
C       -0.02552243       5.65896069       4.01394163      -0.00861058       0.01410608      -0.03166370
C       -1.24231373       7.79332814       3.92617075      -0.02332169      -0.01162526       0.06776781
C       -2.46932997       9.91635123       3.82542551      -0.04147106       0.05623386       0.05331300
C        4.93429275       1.37354918       3.81257102      -0.08152829      -0.01659316       0.02383229
C        3.68868457       3.45534449       3.95506646      -0.00000736      -0.01980988      -0.04142555
C        1.20667898       7.83519472       3.83189741       0.14756133       0.02150563      -0.05583329
C       -0.00511838       9.93525972       3.76935263      -0.08051361       0.06167955       0.02835640
C        7.38811851       1.39867829       3.73105343       0.02302627       0.02841038       0.02289252
C        6.13587654       3.52148310       3.90386900      -0.03475188      -0.06492637       0.06075266
C        4.85680934       5.65959931       3.95406154       0.02159942      -0.01851634      -0.03018268
C        3.69878238       7.85519844       3.27517707      -0.04836593       0.05314852       0.02970789
C        2.44882751       9.95886148       3.63176541       0.01259086       0.03610240      -0.09882643
C        9.85597318       1.41029505       3.74806900       0.11807871      -0.07099594      -0.05752369
C        8.62096820       3.53660841       3.83312652       0.06523481      -0.01491122       0.06805327
C        7.36944238       5.66244826       3.92342246       0.01920351       0.03804858      -0.02453226
C        6.15021070       7.78977264       3.69676416      -0.08514846       0.05709908       0.07934605
C        4.93182881       9.95689979       3.64346549       0.01703758      -0.07232564       0.00199307
W        2.88067122       6.62198292       4.93076404       0.00993394      -0.17121193      -0.10344325
O        2.60144569       5.41163814       6.16770694      -0.00277377      -0.30500197      -0.14319330
O        3.50073442       8.07336120       6.07802695       0.07910342       0.26931210       0.46831349
H        3.46061475       7.82364375       7.01961640       0.05504328       0.12690615      -0.14128300
