51
Lattice="12.336457 0.0 0.0 -6.168228499999997 10.683685154694365 0.0 0.0 0.0 15.0" Properties=species:S:1:pos:R:3:initial_magmoms:R:1:forces:R:3 energy=-440.94533883639343 free_energy=-440.94533883639343 stress="0.006866485034154954 -0.0038970727433121255 -1.0663184824066223e-05 -0.0038970727433121255 0.0001499927452007986 -1.6646404456218777e-05 -1.0663184824066223e-05 -1.6646404456218777e-05 3.504512497376399e-05" pbc="T T T"
C        0.19316844      -0.17750371       3.61729842       0.00000000       0.00364108      -0.00465186      -0.00442173
C       -1.03357467       1.98478713       3.65895663       0.00000000       0.00171570      -0.00274915      -0.00080991
C       -2.22675520       4.13060376       3.79466039       0.00000000      -0.00122242       0.00014836      -0.00343023
C       -3.45700980       6.26032274       3.78628495       0.00000000      -0.00174644       0.00448687       0.00891964
C       -4.71998077       8.38375367       3.65215897       0.00000000      -0.00159981      -0.00382649      -0.00318422
C        2.66048285      -0.18516588       3.77922732       0.00000000       0.00509956       0.00285032      -0.00222426
C        1.39316126       1.92833211       4.00893435       0.00000000       0.00149954       0.00354494       0.00418890
C        0.12660720       4.24811204       2.98835129       0.00000000       0.00075654       0.00143009      -0.00333384
C       -0.97753940       6.26885097       3.87620450       0.00000000      -0.00962308      -0.00005258       0.00616870
C       -2.23753380       8.38892078       3.77738640       0.00000000      -0.00341970      -0.00415418       0.00315644
C        5.12659187      -0.12527235       3.81114453       0.00000000      -0.00505261      -0.00182322      -0.00269529
C        3.83301053       1.95574240       4.00250567       0.00000000       0.00253828       0.00152786       0.00255104
O        1.35365882       6.39342308       3.15916256       0.00000000       0.00489442      -0.00242780      -0.00073458
C        0.21731331       8.41382350       3.67110073       0.00000000       0.00139291       0.00198774       0.00084707
C        7.59786526      -0.12998896       3.68096113       0.00000000       0.00436656       0.00126610       0.00281956
C        6.33369818       2.03618408       3.86169328       0.00000000      -0.00517582      -0.00258666       0.00371447
C        5.11881440       4.25502373       3.94902463       0.00000000       0.00055094       0.00476228      -0.00182362
O        3.97038802       6.32338715       3.71790059       0.00000000      -0.00411680       0.00013176      -0.00269735
C        2.67568201       8.36556028       3.50560460       0.00000000       0.00554611      -0.00108199      -0.00381165
C       10.05616053      -0.14912504       3.58427860       0.00000000      -0.00267778       0.00361694       0.00226919
C        8.82655330       2.00788740       3.73272452       0.00000000       0.00231769       0.00067063      -0.00238136
C        7.60225454       4.14683711       3.83126771       0.00000000       0.00530013      -0.00091485       0.00210552
C        6.39819591       6.29035048       3.70292141       0.00000000       0.00171572      -0.00148857       0.00229315
C        5.13145597       8.38830290       3.53588012       0.00000000      -0.00220191       0.00328781       0.00287922
C        0.18858702       1.26000719       3.72650452       0.00000000       0.00309785      -0.00286053       0.00281658
C       -0.97132444       3.41745192       3.71862739       0.00000000      -0.00424425      -0.00106482      -0.00403870
C       -2.20500922       5.54600982       3.83719934       0.00000000      -0.00904412       0.00029621      -0.00280988
C       -3.47097862       7.67567342       3.74179945       0.00000000      -0.00292244       0.00177268       0.00230890
C       -4.73650079       9.80349847       3.66597841       0.00000000       0.00635405      -0.00316462      -0.00494691
C        2.62400831       1.23950200       3.93842755       0.00000000       0.00283523       0.00500374       0.00029916
O        0.49218307       4.13075985       1.79551485       0.00000000      -0.00731798      -0.00226698      -0.00243366
C        0.30859285       5.62453892       3.75022023       0.00000000      -0.00274385       0.00211772       0.00334310
C       -1.00403142       7.68509713       3.79438908       0.00000000      -0.00354298      -0.00124408       0.00033305
C       -2.26023595       9.82027176       3.78284969       0.00000000      -0.00088810      -0.00588893      -0.00548075
C        5.10190900       1.31524587       3.89634113       0.00000000      -0.00412302      -0.00423362      -0.00544323
S        3.48174558       3.64139167       4.18769505       0.00000000       0.00141042      -0.01435240       0.00956014
C        1.41231532       7.72001507       3.45623969       0.00000000       0.00412618       0.00089535      -0.00350149
C        0.20166052       9.84769286       3.72340759       0.00000000      -0.00028492       0.00474385      -0.00089605
C        7.57570380       1.31134686       3.75808532       0.00000000       0.00126252       0.00158859      -0.00085609
C        6.32625562       3.47070580       3.89016161       0.00000000      -0.00067489       0.00154812      -0.00136194
C        5.17519034       5.64185864       3.78820629       0.00000000      -0.00182053       0.00432204       0.00251795
C        3.93275046       7.69049537       3.54863490       0.00000000       0.00147264      -0.00076344       0.00348871
C        2.66053964       9.80887593       3.58335099       0.00000000       0.00265229      -0.00148779       0.00190591
C       10.05601646       1.28586980       3.64781661       0.00000000      -0.00058395       0.00073500      -0.00519477
C        8.85125772       3.42904269       3.79943216       0.00000000       0.00377711      -0.00102797      -0.00346568
C        7.63506981       5.55928208       3.77500699       0.00000000       0.00597314      -0.00063927      -0.00043756
C        6.38580745       7.69610114       3.60553789       0.00000000      -0.00352623      -0.00256385      -0.00030696
C        5.12324863       9.81880810       3.54982761       0.00000000      -0.00269487       0.00314313       0.00468826
W        1.15834699       3.85015882       4.80138529       0.00000000       0.00692261       0.00327239       0.02961494
O       -2.60802187       7.16149134       8.05061309       1.00000000       0.00513025       0.00287531      -0.01801794
O       -2.55873577       7.18864597       6.81771853       1.00000000      -0.00510100       0.00528982      -0.01204992
