52
Lattice="12.336457 0.0 0.0 -6.168228499999997 10.683685154694365 0.0 0.0 0.0 15.0" Properties=species:S:1:pos:R:3:forces:R:3 energy=-445.2304687094395 free_energy=-445.2304687094395 stress="0.003945151461528273 -0.0023855943558214457 1.5292460878144458e-05 -0.0023855943558214457 0.00015410882999601617 1.0777716035879835e-05 1.5292460878144458e-05 1.0777716035879835e-05 2.378333913420098e-05" pbc="T T T"
C       -0.03144168      -0.17067318       3.91103095      -0.01086009      -0.00295495      -0.00543222
C       -1.25219698       1.99544490       3.84570887      -0.00048417       0.00013240       0.00550582
C       -2.47049716       4.12115261       3.82695829      -0.00181670       0.00768253      -0.00060051
C       -3.70147452       6.25441234       3.88532460       0.00713544       0.00118266      -0.00140186
C       -4.95685926       8.38267467       3.87736325       0.00152666      -0.00233362      -0.00870332
C        2.43313142      -0.19662156       4.04263350       0.00574935      -0.00922739      -0.00066843
C        1.18656085       1.92879814       4.32499711       0.00695874      -0.00809848      -0.00068786
C       -0.06084067       4.21628741       3.22779845      -0.00034699      -0.00041060       0.00092875
C       -1.23323820       6.26314521       3.93380308      -0.00269577       0.00104386      -0.00017945
C       -2.47066686       8.38241869       3.92765071       0.00009319      -0.00910117       0.00014803
C        4.90896206      -0.15305276       3.95204100      -0.00160300       0.00256606      -0.00727780
C        3.63037823       1.91563550       4.16116845      -0.00514684       0.01091769      -0.00103397
O        1.11328858       6.35594624       3.30382110       0.00420648       0.00379363      -0.00256840
C       -0.00835435       8.39040821       3.77151857      -0.00264439      -0.00498922      -0.00274354
C        7.37681273      -0.15360440       3.78794243       0.00253448      -0.00703136       0.01342182
C        6.11614730       2.01262425       3.94180131      -0.00249691       0.00088885       0.00218949
C        4.91965854       4.24005870       4.00075932      -0.00117007      -0.00377667      -0.00524482
O        3.73808365       6.30025621       3.76496491       0.00283995       0.00699224       0.00832178
C        2.44735357       8.34526055       3.62172067       0.00188056       0.00571463      -0.00186975
C        9.83434345      -0.15964791       3.76465343      -0.00851543      -0.00115675       0.00548160
C        8.60356195       1.99230990       3.82224811       0.00537598       0.00037933       0.00486354
C        7.37445751       4.13345769       3.88629107       0.00353426       0.00604449       0.00134718
C        6.16593925       6.28784188       3.82352787       0.00096797      -0.00046622      -0.00585785
C        4.90154570       8.38506449       3.73616262      -0.00574668       0.00284472       0.00861151
C       -0.01659406       1.27298832       4.02105271       0.00184727      -0.00040458      -0.00334942
C       -1.23594348       3.41571451       3.75150981      -0.00495413       0.00311365       0.01231864
C       -2.45908216       5.54355598       3.88530519       0.00161621       0.00371197       0.00719497
C       -3.71015984       7.67410882       3.90519758       0.00223146      -0.00264951      -0.00811665
C       -4.96720523       9.80066545       3.94611836      -0.00339651       0.00069513      -0.01763989
C        2.40058255       1.22645682       4.20467881       0.00470214      -0.00686454      -0.00217378
O        0.59846690       3.97382859       2.17162604       0.00807070       0.00266234       0.00396774
C        0.02773090       5.61363350       3.82658231      -0.00009028       0.00407622       0.00316424
C       -1.23850085       7.67774202       3.88640020      -0.00362013      -0.00460153       0.00656906
C       -2.48717877       9.80937628       3.97526861       0.00543385      -0.01007265      -0.00946822
C        4.89042440       1.28470069       4.01606615      -0.00733993       0.00708820       0.00112646
S        3.35084978       3.59685724       4.23519504       0.00512764       0.00304110      -0.00318567
C        1.18279761       7.69103748       3.55608042       0.00405191       0.00227620       0.00710328
C       -0.02086563       9.82240406       3.83374514      -0.00008663      -0.00435820       0.00806007
C        7.35504224       1.28798219       3.84845102       0.00409042      -0.00313233       0.00097469
C        6.11204628       3.44703526       3.94709145       0.00070682       0.00181075       0.00130083
C        4.94646211       5.63602712       3.85949736      -0.00028631      -0.00105441       0.00429333
C        3.70541668       7.67408793       3.66475992      -0.00173312       0.00421423       0.00114253
C        2.43952632       9.78616006       3.71531762      -0.00123092      -0.00122628       0.00065954
C        9.83876787       1.27660092       3.80317570       0.00198914      -0.00479858       0.00055805
C        8.61414677       3.41326542       3.85151168       0.00186327       0.00460139      -0.00426730
C        7.39487198       5.55069165       3.86627035       0.00863419       0.00563766      -0.00148826
C        6.15212277       7.69589488       3.79993457      -0.00269660       0.00068759      -0.00109454
C        4.90230182       9.81658501       3.78664645      -0.01313311      -0.00162657      -0.00671593
W        1.17454701       3.98339666       5.05634152      -0.00656985       0.00290418       0.00057566
O        1.99008255       5.36732964       5.80531157      -0.00040611      -0.00662022       0.00226368
O        2.37837630       7.00566103       6.31122943      -0.00139002      -0.00085947      -0.00125067
H        2.76150735       6.61981596       7.13140993      -0.00270738       0.00111160      -0.00907219
