52
Lattice="12.336457 0.0 0.0 -6.168228499999997 10.683685154694365 0.0 0.0 0.0 15.0" Properties=species:S:1:pos:R:3:forces:R:3 energy=-449.63534251901183 free_energy=-449.63534251901183 stress="0.0022530292940956954 8.880028826857499e-05 2.9484290083173785e-05 8.880028826857499e-05 0.01046963110625076 -2.8956821355455517e-05 2.9484290083173785e-05 -2.8956821355455517e-05 -1.3495799858696305e-07" pbc="T T T"
C       -0.04238731       0.01630344       3.76874266      -0.00888918      -0.01254703       0.00483643
C       -1.28115337       2.14188142       3.72786066      -0.00366003       0.00028536      -0.00073878
C       -2.50604946       4.27421395       3.74685365      -0.00301574      -0.00245122       0.00264206
C       -3.73865530       6.41342662       3.79571815      -0.00015332       0.00225448      -0.00066093
C       -4.97993305       8.56171595       3.80767020      -0.00047593      -0.00168163      -0.00398380
C        2.42019595       0.06284860       3.77682305       0.00225644       0.00325773      -0.00223231
C        1.15483788       2.20124825       3.70836928      -0.01026950       0.00502362       0.00678672
C       -0.05509514       4.27759521       3.65369415      -0.00381940      -0.00739689      -0.00347361
C       -1.26775222       6.39723891       3.71661606       0.00184981      -0.00828377      -0.00393778
C       -2.50839825       8.55604068       3.76375594       0.00236161      -0.00188681       0.01617364
C        4.88741486       0.01083706       3.81080983       0.00177369       0.00019954       0.00429092
C        3.66748196       2.14812172       3.89410244       0.00786335      -0.01001843       0.00476356
O        1.11928427       6.38759146       3.82682511       0.00541975       0.00435942       0.00201277
C       -0.03695443       8.50874032       3.78727178      -0.00574023       0.00960106      -0.00704007
C        7.36220458      -0.03552229       3.81208787      -0.00276441       0.00628498       0.00636734
C        6.13423590       2.13120027       3.90135605       0.00932637       0.00301621       0.00578282
C        4.93568511       4.25843341       4.21692921       0.00662405      -0.00006423       0.00766987
O        3.67055985       6.39632392       4.06540967       0.00189960       0.00185743      -0.00586839
C        2.41029067       8.44785665       3.84713637       0.00421323      -0.00733208       0.00315111
C        9.81614129      -0.03358041       3.79117634      -0.00038686      -0.00513912       0.00212028
C        8.59258957       2.12291021       3.80455045       0.00346536      -0.00223182      -0.00430485
C        7.36648894       4.27049070       3.89982777       0.00542355       0.00578000      -0.00124751
C        6.14887065       6.41743849       3.96911479      -0.00234458       0.00043495      -0.00073690
C        4.87921026       8.51874582       3.86539268       0.00990610      -0.00421226      -0.00534985
C       -0.03582496       1.45888418       3.72724566      -0.00417976      -0.00531246       0.00446013
C       -1.26868627       3.57021025       3.70132213      -0.00351812       0.00075417       0.00160830
C       -2.50547859       5.69259075       3.74459656      -0.00126667      -0.00434864      -0.00337550
C       -3.74379100       7.84476306       3.78481218       0.00123974      -0.00144272      -0.00211331
C       -4.97269792      10.00547970       3.77823608       0.00208920      -0.00410963      -0.00063182
C        2.41569910       1.52349920       3.78788621      -0.00208067       0.00645010      -0.00251540
O        1.12779284       3.57252783       3.65334074       0.00618490       0.00553219      -0.00605890
C       -0.05961551       5.68821855       3.69355840       0.00224545      -0.00725581       0.00181971
C       -1.28263715       7.82625229       3.75421701       0.00192908      -0.00061390      -0.00992931
C       -2.52037912      10.00318313       3.78286778       0.00217227       0.00152888       0.00124827
C        4.87702566       1.45325647       3.86904116       0.00975629      -0.00485082      -0.00026970
O        3.67019407       3.57232419       4.05186430      -0.01852225       0.00635686      -0.00044722
C        1.15062878       7.76802478       3.81956615      -0.00329440       0.00631891      -0.00249203
C       -0.04358022       9.95338068       3.80623591      -0.00552487       0.00823314      -0.00361416
C        7.35562376       1.40741432       3.83449704       0.00347035       0.00219914      -0.00031970
C        6.14608447       3.54684314       4.00470652       0.00935505       0.00669483      -0.00131305
C        4.94776487       5.69964774       4.19040021       0.00395017       0.00129849      -0.00458458
C        3.66685715       7.82997627       3.92251162       0.01034695       0.00040555       0.00156379
C        2.41818708       9.90949853       3.80992108      -0.00247793      -0.00447578       0.00501349
C        9.82849528       1.41242305       3.76817136       0.00278114       0.00233136      -0.00177011
C        8.59668630       3.55318636       3.81085767       0.00310936      -0.00341275      -0.01116699
C        7.36941542       5.69351772       3.88407427      -0.00767190       0.00499812       0.00301896
C        6.13604672       7.83750356       3.87660750       0.00190887      -0.00341233      -0.00406044
C        4.88874391       9.96041229       3.80021038      -0.00682762      -0.01029578       0.00140455
W        3.36740014       5.06354849       5.68048960       0.00131130       0.00242525       0.01514331
O        4.31738431       5.30504441       7.11222479      -0.00362796       0.00047269      -0.01319432
O        1.49419636       4.60745688       5.97848855      -0.01787195      -0.00287874       0.00211727
H        0.99616609       4.81955087       6.78530497      -0.00584977       0.01730020       0.00343600
