52
Lattice="12.336457 0.0 0.0 -6.168228499999997 10.683685154694365 0.0 0.0 0.0 15.0" Properties=species:S:1:pos:R:3:forces:R:3 energy=-441.27737458744633 free_energy=-441.27737458744633 stress="-0.0042865251615908755 0.0026682107873150515 3.636355506466039e-06 0.0026682107873150515 -0.0074207126501052816 1.7166618345696265e-06 3.636355506466039e-06 1.7166618345696265e-06 -9.578691942652051e-06" pbc="T T T"
C       -0.03869259      -0.01573867       3.55965379      -0.00124398      -0.00371502       0.00407731
C       -1.24505643       2.15401624       3.67481987      -0.00067649      -0.00178124      -0.00284226
C       -2.49245978       4.28535302       3.70024266      -0.00153407       0.00803446      -0.00919125
C       -3.73517524       6.40999198       3.63402556       0.00350369       0.00569187       0.00336576
C       -4.98858302       8.52508944       3.58837357      -0.00635380       0.00098033      -0.00916742
C        2.43047380      -0.04942848       3.39334692      -0.00181286       0.00180648      -0.00227466
C        1.23662086       2.04818717       3.60625779      -0.00469416      -0.00763936       0.00835501
C       -0.10460769       4.32259411       4.20524686      -0.00977703       0.00944694       0.00376552
C       -1.30873289       6.44749276       4.05679517       0.00891737      -0.00273078       0.00541801
C       -2.50542464       8.54746337       3.65904959       0.00115862       0.00030854       0.00201696
C        4.91010173      -0.00090490       3.38110939       0.00398107      -0.00157592      -0.00481510
C        3.67416343       2.10173050       3.11517665       0.00197386       0.00221810       0.00800671
P        1.24139717       6.52760019       5.22809240      -0.00622363      -0.00853211      -0.01011600
C       -0.05853975       8.61288102       3.93525078      -0.00459103      -0.00853047      -0.00620027
C        7.36978792       0.03266451       3.49479644       0.00048710       0.00568673      -0.00042416
C        6.16851094       2.12347986       3.07591323      -0.00572788       0.00041083      -0.00223809
C        5.04057627       4.31846211       2.70396893       0.00015773       0.00293151       0.00106211
P        3.45830311       6.20827591       4.16410681      -0.00083190       0.00031722      -0.00876270
C        2.40618265       8.65589806       3.97036870       0.00448893      -0.00161916       0.00782474
C        9.84733853       0.02778767       3.58554554       0.00253989      -0.00451482       0.00018149
C        8.63207331       2.15132542       3.40086792       0.00580140      -0.00184840       0.01155262
C        7.40783317       4.27665490       3.30081299      -0.00255272      -0.00365211       0.00143453
C        6.14350365       6.39664776       3.51601687      -0.00313626       0.00190973      -0.00995489
C        4.88582866       8.54748167       3.73394019       0.00908006       0.00670147       0.00576353
C       -0.03385400       1.40882449       3.62081765      -0.00430224      -0.00787710       0.00174517
C       -1.26534397       3.57318466       3.84757540      -0.00707973       0.00670093      -0.00129232
C       -2.51014904       5.71002448       3.78633315       0.00859458       0.00500685      -0.00351396
C       -3.74410437       7.82951275       3.62931502      -0.00224920       0.00678789      -0.00293534
C       -4.98227227       9.94166777       3.51461313      -0.00162314      -0.00106022       0.00047194
C        2.42546945       1.35554144       3.32974496      -0.00025266       0.00245331       0.00038761
P        1.48816710       3.61663235       4.29471088      -0.00608541      -0.00310720      -0.00657287
C       -0.14622974       5.72529392       4.40468830       0.00759190       0.00795059       0.01458180
C       -1.29019353       7.87036885       3.91367935      -0.00106721      -0.01029345      -0.00000766
C       -2.49390890       9.95292373       3.45897765       0.00164273       0.00081363      -0.00888945
C        4.94086263       1.41182284       3.14948201      -0.00171412      -0.00187318       0.00303244
S        3.57744600       3.55940564       1.98417770       0.00305540      -0.00208454      -0.00185492
C        1.17284894       8.01107339       4.26642606      -0.00423069      -0.00119407      -0.00327064
C       -0.03475710      10.00215549       3.57877621       0.00270093      -0.00573368      -0.00915095
C        7.39910835       1.43358905       3.29057772       0.00078719       0.00733636      -0.00019946
C        6.20663538       3.54916471       2.98514119      -0.00482385      -0.00100803       0.00328972
C        4.93176031       5.62941701       3.33892452      -0.00053185      -0.00292517       0.00014643
C        3.63127475       7.91755608       3.96923118       0.01443894      -0.00076347      -0.00278094
C        2.43204694      10.03234566       3.65942681      -0.00033287      -0.00184622       0.00386839
C        9.86181907       1.44873507       3.53671392       0.00345582      -0.00616968       0.00884069
C        8.63490573       3.57185293       3.44556566       0.00066283      -0.00163001       0.00237994
C        7.37785640       5.69329612       3.47605115       0.00026329       0.00096287      -0.01637120
C        6.11016013       7.81440575       3.64118055      -0.00210531       0.00049723      -0.00110824
C        4.89698970       9.97254297       3.62748916       0.00170534       0.00279712       0.00128362
W        3.77596025       3.97787423       4.40445682      -0.00105007       0.00555567       0.01850496
O        3.18586084       4.57683235      10.17234321       0.00709473       0.00053720      -0.00086157
O        4.10334557       3.87408544      10.88025292       0.01155188      -0.00462734       0.00231181
H        4.95123826       3.95635800      10.38830191      -0.01903112       0.00448886       0.00112747
