51
Lattice="12.336457 0.0 0.0 -6.168228499999997 10.683685154694365 0.0 0.0 0.0 15.0" Properties=species:S:1:pos:R:3:initial_magmoms:R:1:forces:R:3 energy=-437.8079665897395 free_energy=-437.8079665897395 stress="-0.004309305104643101 0.0026931380435343743 -3.5232937001761884e-07 0.0026931380435343743 -0.007499139528437493 -2.785531174699478e-06 -3.5232937001761884e-07 -2.785531174699478e-06 1.5107475973556533e-05" pbc="T T T"
C        0.00062691      -0.07749313       3.53936759       0.00000000      -0.00180700       0.00594566       0.01070516
C       -1.20494803       2.09271268       3.66616356       0.00000000      -0.01323253      -0.00106519       0.00746781
C       -2.45375687       4.22422067       3.70223034       0.00000000       0.00215969       0.00019994       0.00724212
C       -3.69581583       6.34822704       3.63033875       0.00000000       0.00542168       0.00472607      -0.00020287
C       -4.94929086       8.46394138       3.56655520       0.00000000       0.00708897      -0.00894463       0.00133755
C        2.47073269      -0.11154163       3.38385530       0.00000000       0.00017968      -0.00348155      -0.00681632
C        1.27561431       1.98620591       3.59673003       0.00000000       0.00442920      -0.00774912      -0.00548855
C       -0.06726272       4.26131024       4.20891514       0.00000000       0.00115636      -0.00583678      -0.00545103
C       -1.27126384       6.38594863       4.07296941       0.00000000      -0.00869501      -0.00460513      -0.00735923
C       -2.46662554       8.48478183       3.66207633       0.00000000       0.00973555       0.00548706      -0.00510347
C        4.95072820      -0.06549339       3.38518116       0.00000000      -0.00805320       0.00901338      -0.00374313
C        3.71526367       2.03821522       3.11224765       0.00000000       0.00312857       0.00691823       0.00216746
P        1.28798903       6.46018076       5.23054238       0.00000000       0.00071098       0.00472883       0.00287322
C       -0.01914913       8.54944521       3.94727936       0.00000000      -0.00469460      -0.00341096      -0.00841508
C        7.40906769      -0.03048470       3.50160536       0.00000000       0.00039513       0.00482718      -0.00239868
C        6.20828108       2.05917102       3.08093257       0.00000000      -0.00345305       0.00083151       0.00335058
C        5.08313456       4.25226741       2.69237724       0.00000000      -0.00907669      -0.00484596      -0.00245103
P        3.49940896       6.14645505       4.13219521       0.00000000       0.00956176      -0.00897183      -0.00710879
C        2.44589596       8.59208261       3.96652266       0.00000000       0.01012362       0.00459977      -0.00164456
C        9.88661909      -0.03495325       3.57695773       0.00000000       0.00326317       0.00260124       0.00648904
C        8.67114045       2.08874700       3.40533012       0.00000000       0.00818546      -0.00045533       0.00905299
C        7.44722103       4.21336908       3.30180759       0.00000000       0.00046383       0.00104942      -0.01135873
C        6.18429609       6.33595793       3.48750695       0.00000000      -0.01018815       0.00033158       0.00676659
C        4.92559015       8.48535407       3.70750065       0.00000000      -0.00456994       0.00479381       0.00553300
C        0.00540722       1.34680933       3.60669667       0.00000000      -0.00758625       0.00679145       0.00625392
C       -1.22631299       3.51208395       3.84522347       0.00000000      -0.00645917      -0.00473798       0.00877700
C       -2.47162753       5.64875528       3.79419260       0.00000000      -0.00037890       0.00013833      -0.01077885
C       -3.70540620       7.76777093       3.62091341       0.00000000       0.01680966       0.00122491       0.00337078
C       -4.94280275       9.88038610       3.49554302       0.00000000      -0.00067387      -0.00790252       0.00376783
C        2.46515090       1.29334732       3.32262500       0.00000000       0.00786483      -0.00240740       0.00240129
P        1.52608663       3.55745175       4.27865153       0.00000000       0.00481888      -0.00656953       0.00152988
C       -0.10919689       5.66273497       4.41997692       0.00000000      -0.00715269      -0.00500205      -0.00595520
C       -1.25223985       7.80844132       3.92766424       0.00000000      -0.00270868      -0.00570899      -0.01107276
C       -2.45401499       9.88934555       3.45645501       0.00000000      -0.00031195       0.00575820       0.00520091
C        4.98152556       1.34702264       3.15321628       0.00000000      -0.00363269       0.00861743      -0.00394815
S        3.62586147       3.48799421       1.96852379       0.00000000       0.00093060      -0.00275870       0.01127662
C        1.21374941       7.94691346       4.27251336       0.00000000       0.00599668       0.00513807      -0.00843253
C        0.00530898       9.93798841       3.58747547       0.00000000      -0.00955556       0.00262121      -0.00680740
C        7.43840237       1.37035545       3.29686089       0.00000000       0.00607558       0.00504406       0.00374992
C        6.24654568       3.48464457       2.98744126       0.00000000      -0.00737874      -0.00681448      -0.00696921
C        4.97298967       5.57003264       3.31097445       0.00000000      -0.00236560      -0.01226497       0.00545292
C        3.67136427       7.85496359       3.94451861       0.00000000       0.00452137      -0.00754982       0.01026463
C        2.47146253       9.96910207       3.65939450       0.00000000       0.00693189       0.00694746       0.00272727
C        9.90156583       1.38646812       3.53388694       0.00000000      -0.00118302      -0.00497838       0.00029162
C        8.67363342       3.50932131       3.45019632       0.00000000       0.00824168       0.00135647      -0.00543407
C        7.41851906       5.63134145       3.46298244       0.00000000      -0.00319966       0.00625545      -0.00287547
C        6.14999522       7.75332172       3.61253747       0.00000000      -0.00807632       0.00186419       0.00216150
C        4.93655042       9.91038306       3.60761460       0.00000000      -0.00173867       0.00672137       0.00143364
W        3.81205918       3.91790911       4.39129449       0.00000000       0.00049787      -0.00041348      -0.00215239
O        3.32286546       5.34925386       9.97220823       1.00000000       0.00043511       0.00019796       0.00302812
O        2.38352728       6.12574580       9.76322744       1.00000000      -0.00295583       0.00174452      -0.00270588
