51
Lattice="12.336457 0.0 0.0 -6.168228499999997 10.683685154694365 0.0 0.0 0.0 15.0" Properties=species:S:1:pos:R:3:initial_magmoms:R:1:forces:R:3 energy=-439.9435391442497 free_energy=-439.9435391442497 stress="-0.0010610568551458381 -0.0008542590254139866 4.423011169515068e-05 -0.0008542590254139866 -0.010560317344096069 -1.7942847663896305e-05 4.423011169515068e-05 -1.7942847663896305e-05 -1.952575203018862e-05" pbc="T T T"
C       -0.08728223      -0.02124217       3.96386388       0.00000000       0.00223404      -0.00114226      -0.00321294
C       -1.32796078       2.13564678       4.11119466       0.00000000      -0.00265015       0.00104761      -0.00402709
C       -2.56543545       4.27053283       3.84518421       0.00000000      -0.00413948      -0.00544518      -0.00569926
C       -3.78764036       6.39254823       3.62904180       0.00000000      -0.00011624       0.00041376       0.00042725
C       -5.02535907       8.51611874       3.72603267       0.00000000       0.00030997       0.00490488      -0.00214655
C        2.38407353      -0.06913010       3.84932415       0.00000000      -0.00029409       0.00031966      -0.00094717
C        1.17285395       2.03529742       4.25134700       0.00000000       0.00315267       0.00190525      -0.00363348
C       -0.14502296       4.30618025       4.18169554       0.00000000       0.00047584      -0.00166558      -0.00283928
C       -1.30196697       6.38534795       3.61850871       0.00000000       0.00263135       0.00020631       0.00435750
C       -2.54145952       8.50735522       3.62798491       0.00000000       0.00330399       0.00239007      -0.00098649
C        4.84892497      -0.03032516       3.63232004       0.00000000      -0.00329138      -0.00532220       0.00393258
C        3.58140711       2.03341453       3.57855572       0.00000000       0.00250919       0.00063920       0.00148373
P        1.50803836       6.22020399       3.13389611       0.00000000      -0.00607827      -0.00098638      -0.00062284
C       -0.07532925       8.54025852       3.50266586       0.00000000       0.00288196      -0.00082077      -0.00273891
C        7.30284381       0.02706370       3.65777666       0.00000000       0.00106571      -0.00040111      -0.00322219
C        6.06559171       2.12873876       3.50568939       0.00000000       0.00121358       0.00461624       0.00009415
C        4.89709962       4.28077598       3.13586003       0.00000000       0.00383081      -0.00054136      -0.00102018
B        3.46185469       6.43708121       3.39805164       0.00000000       0.00245998       0.00140598      -0.00195226
C        2.39433647       8.64477508       3.54538407       0.00000000      -0.00433484      -0.00304727      -0.00186668
C        9.78737074       0.03419937       3.84300078       0.00000000       0.00386043      -0.00206188      -0.00581963
C        8.53994009       2.14923847       3.78579623       0.00000000       0.00046031       0.00212318      -0.00035760
C        7.31424378       4.27069571       3.55192717       0.00000000       0.00459292      -0.00809426      -0.00225742
C        6.06586723       6.40940898       3.50402749       0.00000000      -0.00174491      -0.00748497       0.00049328
C        4.85143698       8.56756301       3.67817274       0.00000000      -0.00179641      -0.00125270       0.00121948
C       -0.08776325       1.39998280       4.14663017       0.00000000      -0.00008741      -0.00369732      -0.00122258
C       -1.34719836       3.55863990       4.08819104       0.00000000      -0.00237007      -0.00173995      -0.00277114
C       -2.55009086       5.68459054       3.69548499       0.00000000       0.00079799       0.00583131      -0.00409299
C       -3.78490944       7.80875550       3.65494436       0.00000000       0.00064156      -0.00333185       0.00287161
C       -5.02833743       9.92823339       3.86671335       0.00000000      -0.00070085       0.00024096       0.00103932
C        2.37715345       1.34189637       3.94052781       0.00000000       0.00249455       0.00127950       0.00654743
P        1.31468533       3.65212595       4.89908135       0.00000000      -0.00033459       0.00054074      -0.00041804
C       -0.08241521       5.63488953       3.71416357       0.00000000      -0.00037001       0.00251089      -0.00041410
C       -1.30407304       7.80504086       3.54348266       0.00000000       0.00242902      -0.00368303       0.00621479
C       -2.54726805       9.92564996       3.69364895       0.00000000      -0.00293234       0.00422191      -0.00108658
C        4.84218601       1.39797677       3.56770275       0.00000000       0.00191177       0.00533823       0.00351312
S        3.39957928       3.50177750       2.67235956       0.00000000      -0.00432844      -0.00160801      -0.00081152
C        1.18436216       7.91456470       3.40012005       0.00000000       0.00183679      -0.00301079      -0.00655756
C       -0.08324967       9.96852061       3.59067977       0.00000000      -0.00212448       0.00467100       0.00567861
C        7.30112129       1.44363639       3.65694776       0.00000000      -0.00224120       0.00119771       0.00157901
C        6.08432726       3.54566191       3.39130205       0.00000000       0.00099721      -0.00213832       0.00246247
C        4.81320304       5.70164035       3.34053306       0.00000000       0.00135430       0.00053362      -0.00184624
C        3.60773771       7.92972842       3.53291264       0.00000000       0.00379940      -0.00539556       0.00266736
C        2.38100400      10.04115361       3.69787054       0.00000000       0.00664796       0.00340146       0.00222218
C        9.77938933       1.44581962       3.93433414       0.00000000       0.00321546       0.00308119       0.00261292
C        8.54092279       3.56452695       3.73762529       0.00000000       0.00413710      -0.00359608       0.00528121
C        7.30393926       5.69232228       3.55869654       0.00000000       0.00022825      -0.00046511      -0.00175975
C        6.07545116       7.82510785       3.64420538       0.00000000      -0.00530411       0.00115450      -0.00244292
C        4.84951808       9.98693234       3.84305398       0.00000000       0.00037841       0.00503122       0.00201689
Y        3.95156972       4.46176497       5.56958275       0.00000000       0.01863342      -0.00364647      -0.00900969
O        5.13977262       4.33573563       7.24979150       1.00000000       0.00889325      -0.00514131      -0.00754624
O        4.77571645       5.73437318       6.96719923       1.00000000      -0.04813991       0.01671334       0.02661443
