52
Lattice="12.336457 0.0 0.0 -6.168228499999997 10.683685154694365 0.0 0.0 0.0 15.0" Properties=species:S:1:pos:R:3:forces:R:3 energy=-452.52110053501247 free_energy=-452.52110053501247 stress="0.001037821196177367 -0.0006687989233935025 -2.040681259095185e-05 -0.0006687989233935025 -0.001985513296155332 5.807024268668929e-05 -2.040681259095185e-05 5.807024268668929e-05 2.6856946786604542e-05" pbc="T T T"
C       -0.00616531      -0.00546058       3.67865365       0.00815974       0.00654231       0.00023693
C       -1.24568934       2.13808002       3.67793054      -0.00495522       0.00042907      -0.00025718
C       -2.47589027       4.28416128       3.66476716      -0.00712008      -0.00418710       0.00569892
C       -3.70617115       6.41309586       3.67169816       0.00423146      -0.00543928      -0.00556388
C       -4.93895328       8.54677353       3.67492509       0.00406525       0.00216390       0.00223556
C        2.46084376       0.01737296       3.71106574       0.00177811       0.00399548       0.00791692
C        1.18894338       2.10358643       3.86244769       0.00376976      -0.00319203      -0.00076384
C       -0.04438953       4.23902224       3.85081936      -0.00526493       0.00205779       0.00201839
C       -1.20910732       6.39560765       3.71038793      -0.00929075       0.00366105       0.00685986
C       -2.46687639       8.54383030       3.66114504      -0.00440504       0.00238792       0.00899258
C        4.92275492       0.00680063       3.64500639      -0.01353942       0.00443835       0.00003222
C        3.72088575       2.11083391       3.81497843      -0.00242434       0.00679796       0.00180518
B        1.33218731       6.44491606       3.84269435      -0.00812589       0.00549544       0.00971251
C       -0.00681374       8.56399420       3.64745836      -0.00028867      -0.00248719       0.00039120
C        7.39224758       0.02291385       3.60018791      -0.00664594       0.00538302       0.01034445
C        6.15817040       2.15070468       3.64758827       0.00408924       0.00181119      -0.00267069
C        4.95535970       4.26659236       3.82584011       0.00612730       0.00383336      -0.00607572
C        3.63398841       6.41619952       3.89824503      -0.00390034      -0.01225524      -0.00745476
C        2.46730318       8.58952627       3.68044741       0.00247159      -0.00136620       0.00527351
C        9.86676171       0.01517089       3.62817584       0.00238360       0.00156439      -0.00384589
C        8.62674409       2.15396279       3.61197493       0.00796096      -0.00227738       0.00784756
C        7.38960962       4.29029351       3.66109290       0.00958686      -0.00463891       0.00005492
C        6.14000998       6.40983320       3.71338482       0.00684458       0.00245124       0.00595128
C        4.92602618       8.54274125       3.69299976      -0.00432354      -0.00096404       0.00960936
C       -0.00711358       1.42613363       3.71874235       0.00203750       0.00708655      -0.00035542
C       -1.24917889       3.55139424       3.70523387      -0.00695928       0.00166976      -0.00428384
C       -2.46115904       5.70260086       3.68097725      -0.00323068      -0.00739166      -0.00390223
C       -3.70442021       7.83633509       3.66818477       0.00252342      -0.00358139       0.00294891
C       -4.93641621       9.97766865       3.68769346       0.00876368       0.00336277      -0.00078641
C        2.45716147       1.46763289       3.80680252       0.00359664      -0.00031759      -0.00058092
O        1.11230418       3.48361134       4.10411227       0.00257254      -0.00513601      -0.00580534
C        0.03413036       5.65290008       3.80778047      -0.00658827       0.00552700       0.00431568
C       -1.22658812       7.82553366       3.67245350      -0.00338156       0.00504500      -0.00630255
C       -2.47725414       9.97971187       3.66953792      -0.00863736       0.00154123      -0.00206442
C        4.92025593       1.43844858       3.68089675      -0.00394076       0.00477162      -0.00668710
O        3.78137841       3.50273680       3.96562725      -0.00444780       0.00579638      -0.00524740
C        1.24134609       7.89556703       3.69302829       0.00267324      -0.00036838      -0.00272682
C       -0.01009896       9.99028931       3.61586683      -0.01209944      -0.00096586      -0.00132739
C        7.38476095       1.44692247       3.60463646       0.00754560       0.00553199       0.00124636
C        6.15513304       3.57029200       3.68766712       0.00481855       0.00438510      -0.00135796
C        4.86851975       5.69561764       3.81006102       0.00375993       0.00349046      -0.00559794
C        3.67883534       7.81854035       3.75436436      -0.00385311      -0.01238625      -0.00380299
C        2.46484554      10.00472606       3.61894839      -0.00187666       0.00053577      -0.00607618
C        9.86697220       1.43848911       3.62456045      -0.00071630       0.00033095       0.00092529
C        8.62395841       3.57758466       3.63506328       0.00350684      -0.00833296       0.00354625
C        7.37810028       5.70858613       3.68153558       0.00461593      -0.00604395      -0.00334894
C        6.15628679       7.83145970       3.69291558      -0.00040419       0.00379293      -0.00042641
C        4.92623441       9.96684462       3.65861252       0.00435149       0.00391858       0.00073039
Y        2.55200291       4.82998370       5.28622078       0.00706108      -0.00894630      -0.00050535
O        2.83338270       4.70996819       7.27530278       0.00414888       0.00057182      -0.00602337
O        2.49381158       4.71213250       8.63613985       0.00031487      -0.01490466      -0.00247569
H        3.36359759       4.80302834       9.07490962       0.00266095      -0.00518801      -0.00237761
