52
Lattice="12.336457 0.0 0.0 -6.168228499999997 10.683685154694365 0.0 0.0 0.0 15.0" Properties=species:S:1:pos:R:3:initial_magmoms:R:1:forces:R:3 energy=-452.699863937957 free_energy=-452.699863937957 stress="-0.004537697221202948 0.0035063749324078406 -2.609500214481101e-06 0.0035063749324078406 -0.00307204678382488 -8.946445032794461e-07 -2.609500214481101e-06 -8.946445032794461e-07 -2.4794435358526563e-05" pbc="T T T"
C        0.06037928       0.05692722       3.78605131       0.00000000      -0.00115605       0.00462868       0.00259614
C       -1.16176091       2.18933280       3.70823491       0.00000000       0.00004735      -0.00192468      -0.00163822
C       -2.39517264       4.32722450       3.65186459       0.00000000       0.00022016      -0.00442341      -0.00130762
C       -3.64637024       6.46324176       3.73567839       0.00000000       0.00331670       0.00192871       0.00232849
C       -4.89847292       8.59038065       3.82202848       0.00000000      -0.00451562       0.00483428      -0.00696104
C        2.52089568       0.06136001       3.75828610       0.00000000      -0.00362259      -0.00143195       0.00261083
C        1.30901192       2.22334488       3.79571056       0.00000000       0.00284845      -0.00063084       0.00250360
C        0.06076093       4.32385644       3.52727670       0.00000000       0.00011248       0.00316809       0.00069173
C       -1.20840685       6.47992908       3.38379490       0.00000000      -0.00309443      -0.00405491       0.00694237
C       -2.42421391       8.60562163       3.58047950       0.00000000       0.00118498      -0.00000629       0.00109612
C        4.99409081       0.05252190       3.63534249       0.00000000      -0.00307976       0.00200521       0.00413044
C        3.78666890       2.18224546       3.83404303       0.00000000      -0.00313452      -0.00160419       0.00497971
B        2.64118715       4.41102144       3.96854986       0.00000000      -0.00071351       0.00422440       0.00228666
S        1.29475190       6.45835902       2.29474136       0.00000000       0.01002702      -0.00062021       0.00583215
C        0.03930250       8.61698042       3.32915724       0.00000000       0.00132425      -0.00076216      -0.00368193
C        7.46653524       0.05594208       3.55881613       0.00000000       0.00467362      -0.00155605       0.00850541
C        6.26232643       2.16107086       3.76871576       0.00000000       0.00034927      -0.00067647       0.00040360
C        5.08214269       4.26641060       4.02008293       0.00000000      -0.00023526      -0.00319174      -0.00229368
S        3.46255480       6.26002351       4.38767961       0.00000000      -0.00861939       0.00230812       0.00058238
C        2.51968645       8.62096578       3.45868378       0.00000000       0.00099382      -0.00266864       0.00287064
C        9.94056480       0.05323086       3.67324925       0.00000000       0.00273924      -0.00093424      -0.00481821
C        8.71869035       2.18305832       3.70315100       0.00000000      -0.00165946       0.00677564      -0.00469441
C        7.50438733       4.31463626       3.84820312       0.00000000      -0.00171792       0.00315068      -0.00240043
C        6.22963550       6.44366753       4.01790692       0.00000000       0.00236273      -0.00301612      -0.00263951
C        4.95953040       8.57058453       3.83957469       0.00000000      -0.00206353      -0.00216555      -0.00160808
C        0.07362684       1.48762587       3.76204165       0.00000000       0.00227987       0.00195995       0.00371562
C       -1.17910336       3.60825715       3.62338142       0.00000000       0.00235815      -0.00213829      -0.00381698
C       -2.42021933       5.75346453       3.59727487       0.00000000      -0.00144215      -0.00565536       0.00286002
C       -3.65685834       7.88799314       3.71834165       0.00000000      -0.00129569       0.00379173      -0.00155053
C       -4.88176855      10.02423244       3.79366022       0.00000000      -0.00480564       0.00452460       0.00145253
C        2.53052052       1.49058426       3.80641900       0.00000000      -0.00051899      -0.00381254      -0.00041019
C        1.31188747       3.67185446       3.78209639       0.00000000      -0.00025342       0.00000383       0.00249014
C       -0.00689776       5.72894886       3.20087719       0.00000000      -0.00414198       0.00293560      -0.00665879
C       -1.19916047       7.90317856       3.38554441       0.00000000       0.00017673      -0.00285391      -0.00054217
C       -2.41750069      10.03118481       3.65659245       0.00000000      -0.00297081       0.00040878       0.00197748
C        5.01890018       1.46158414       3.75339328       0.00000000      -0.00307719       0.00259709      -0.00989672
C        3.85748342       3.58627852       3.94457124       0.00000000      -0.00232307      -0.00110597      -0.00365577
C        1.28133732       7.96408727       3.15709060       0.00000000       0.00304497       0.00058637       0.00129216
C        0.05650085      10.03660551       3.51007072       0.00000000       0.00007458       0.00109805       0.00080975
C        7.48654337       1.46686814       3.67605514       0.00000000       0.00232457       0.00021118       0.00688063
C        6.30216873       3.57306941       3.88940348       0.00000000       0.00108957      -0.00156208      -0.00043167
C        5.07411618       5.66030491       4.17412388       0.00000000      -0.00044898      -0.00215790      -0.00580426
C        3.69944998       7.91256965       3.77862881       0.00000000      -0.00131592      -0.00429280      -0.00272357
C        2.53372177      10.04145108       3.54726770       0.00000000       0.00469650      -0.00429424       0.00125025
C        9.94617374       1.47538965       3.69488211       0.00000000      -0.00286459       0.00142915      -0.00248528
C        8.72338347       3.60474476       3.74168396       0.00000000      -0.00362672       0.00586300      -0.00669268
C        7.47818683       5.73827705       3.88459235       0.00000000       0.00421963       0.00163457      -0.00109262
C        6.20411710       7.87093989       3.92285956       0.00000000      -0.00165846      -0.00003126       0.00360626
C        4.99193215      10.01660683       3.75901826       0.00000000       0.00185340      -0.00035297      -0.00423405
Y        0.81958818       5.81929062       5.68232390       0.00000000       0.00697097      -0.00441601      -0.03017334
O       -0.59630870       4.84170821       6.67598411       1.00000000       0.00941015       0.00182090      -0.00371908
O        0.72246687       4.28638203       6.93644129       1.00000000      -0.00434346       0.00045216       0.04123575
