52
Lattice="12.336457 0.0 0.0 -6.168228499999997 10.683685154694365 0.0 0.0 0.0 15.0" Properties=species:S:1:pos:R:3:forces:R:3 energy=-444.2724143297049 free_energy=-444.2724143297049 stress="-0.00235145260039576 -0.002001036108989502 -2.595947950106756e-05 -0.002001036108989502 -0.012834638114767325 -2.6610105811663526e-05 -2.595947950106756e-05 -2.6610105811663526e-05 5.685071762407e-06" pbc="T T T"
C       -0.05851990      -0.04136933       3.69210515       0.00302726       0.00539904       0.00147056
C       -1.30550484       2.10308413       3.88999553      -0.00832131      -0.00842203      -0.00073702
C       -2.53921198       4.24809688       3.84745707       0.00063845       0.00190560      -0.00681864
C       -3.74926570       6.37558011       3.75263394      -0.00322055      -0.00485406       0.00235028
C       -4.98699526       8.49710258       3.67892625       0.00976555      -0.00265485      -0.00284574
C        2.41408010      -0.09125261       3.70014358      -0.00254232       0.00127219      -0.00271228
C        1.18261087       1.98495760       4.11844263       0.00706736       0.00377484      -0.00085152
C       -0.15531126       4.22927734       4.37085715      -0.00045822      -0.00057633      -0.00570428
C       -1.26511305       6.37299050       3.94964852      -0.00885926      -0.00395804       0.00513817
C       -2.50103107       8.48821999       3.73000434       0.00266086      -0.00142575      -0.00040890
C        4.87855372      -0.04266050       3.57876921      -0.00263007       0.00014709       0.00151156
C        3.60136898       2.02011930       3.49944452       0.00200229       0.00817338       0.01066360
P        1.58138240       6.27404607       4.39190255       0.01190060       0.01003653      -0.00597481
C       -0.03768819       8.53345699       3.79732462      -0.00537202      -0.00797834       0.00586111
C        7.33005944       0.01521320       3.52455899       0.00401549      -0.00243112      -0.00275685
C        6.08501062       2.12538864       3.42986396       0.00032108       0.00162811       0.00133908
C        4.90471234       4.29362770       3.39409798      -0.00395576       0.00106851      -0.00512163
B        3.49582643       6.44197280       3.86103432      -0.00079367      -0.00688590       0.00563894
C        2.42197187       8.62888437       3.64253810       0.00125758       0.00208688      -0.00508389
C        9.81933461       0.01982130       3.54324728       0.00261113      -0.00129248      -0.00125357
C        8.56808841       2.13548935       3.58598668       0.00096256       0.00204403       0.00269232
C        7.33773108       4.25798487       3.60253546       0.00064124      -0.00583953       0.00935036
C        6.10678998       6.39692096       3.71220991       0.00149378       0.00440718      -0.00208994
C        4.88409268       8.54919196       3.58529680      -0.00407613       0.00585388      -0.00633632
C       -0.06780658       1.36929827       3.90321146       0.00201094       0.00584236      -0.00548058
C       -1.33036545       3.51444292       4.04329772      -0.00711245      -0.00538655       0.00228984
C       -2.51373553       5.66856845       3.84754871      -0.00594287       0.00020672       0.00402565
C       -3.74526143       7.78990595       3.72419534       0.00842742      -0.00508664       0.00557152
C       -4.99649220       9.90938184       3.68711890       0.00108274      -0.00146071      -0.00146949
C        2.39803340       1.31715876       3.79150644       0.00211298       0.00185744      -0.00183403
P        1.23728043       3.43054984       5.09085325       0.01839255      -0.00373646       0.00101623
C       -0.06244646       5.62166276       4.18851364      -0.00045498       0.00109924       0.00592909
C       -1.26283951       7.79174401       3.83094640      -0.00526101      -0.00780380       0.00424181
C       -2.51035034       9.90594367       3.65452299      -0.00352410      -0.00028937      -0.00075792
C        4.85933852       1.38928769       3.47085022       0.00039484       0.00387175       0.00184303
S        3.38634495       3.61886833       2.87334929      -0.01601506      -0.00706889       0.00954516
C        1.22610952       7.91409634       3.90825119       0.00024639       0.00454083      -0.00434736
C       -0.05297619       9.95650556       3.61439150      -0.00155785      -0.00508138       0.00653699
C        7.32528849       1.43295056       3.48684812       0.00290779       0.00100041       0.00179065
C        6.10450153       3.54209453       3.45294040      -0.00303128       0.00217663      -0.00450974
C        4.84282797       5.69073886       3.72701844       0.00166824       0.00052191      -0.00201036
C        3.63434206       7.91253329       3.62237882      -0.00245758      -0.00269767       0.00193489
C        2.40799423      10.02647792       3.51824588       0.00580238      -0.00002652      -0.00407832
C        9.81022283       1.42797342       3.65088391      -0.00662414      -0.00559385      -0.00457331
C        8.57014607       3.54837253       3.66770536       0.00491401       0.00142402       0.00073479
C        7.33757983       5.67866942       3.69231672      -0.00208045      -0.00525743       0.00073909
C        6.11187503       7.81004584       3.66518186       0.00219200       0.00722209      -0.00296607
C        4.87998329       9.97130071       3.57593614       0.00239527       0.00641845      -0.01140700
Y        3.72363688       4.54241776       5.63372020      -0.00935107      -0.00140853       0.00542397
O        5.14260343       4.50438960       7.20205713      -0.00819058       0.00722017      -0.00453407
O        4.16128911       5.61439084       7.63718594      -0.00401724      -0.00050302      -0.00829262
H        4.09371036       5.35699835       8.57138738       0.01493719       0.00651999       0.00731759
