51
Lattice="12.336457 0.0 0.0 -6.168228499999997 10.683685154694365 0.0 0.0 0.0 15.0" Properties=species:S:1:pos:R:3:initial_magmoms:R:1:forces:R:3 energy=-451.85050457827276 free_energy=-451.85050457827276 stress="0.011009392616457723 -0.0005656917102996291 -1.0950629332458884e-05 -0.0005656917102996291 -0.00315245621000687 -1.4121782892494432e-05 -1.0950629332458884e-05 -1.4121782892494432e-05 -7.975288378108468e-05" pbc="T T T"
C        0.00178702       0.04917640       3.67771874       0.00000000      -0.00532378       0.00031217      -0.00172123
C       -1.21693468       2.21220259       3.67996410       0.00000000       0.00389514       0.00258722      -0.00184828
C       -2.43975450       4.34413012       3.65677239       0.00000000      -0.00132241       0.00110098      -0.00062655
C       -3.69540273       6.45528914       3.65054196       0.00000000      -0.00062854      -0.00375527      -0.00011310
C       -4.93924476       8.57957615       3.65526546       0.00000000       0.00156649       0.00176741       0.00053374
C        2.47621607       0.02374328       3.70964291       0.00000000      -0.00041381       0.00205221       0.00092774
C        1.24327974       2.17956857       3.85658811       0.00000000       0.00315706      -0.00407703       0.00359378
C        0.08370768       4.31574300       3.79959717       0.00000000      -0.00260225      -0.00315498       0.00064358
C       -1.12865860       6.44799104       3.66611931       0.00000000      -0.00154685      -0.00041721       0.00080595
C       -2.43970487       8.57703740       3.64181740       0.00000000       0.00019282      -0.00322107      -0.00023068
C        4.94838198       0.05172951       3.64273193       0.00000000      -0.00103769       0.00260207       0.00266918
C        3.70321112       2.17928364       3.82668246       0.00000000       0.00183022       0.00117458       0.00175993
B        1.60501478       6.47403013       3.69161347       0.00000000      -0.00175216       0.00073750      -0.00419255
C        0.03957620       8.60674063       3.61164311       0.00000000      -0.00139341       0.00139554       0.00246265
C        7.40235281       0.10424096       3.58770656       0.00000000      -0.00183161      -0.00469734      -0.00580452
C        6.15893092       2.21940481       3.64532738       0.00000000      -0.00162349       0.00447507      -0.00053802
C        4.85235341       4.32594540       3.77236432       0.00000000       0.00016771      -0.00082610      -0.00573656
C        3.45489929       6.49909063       3.72874276       0.00000000       0.00097568       0.00098130      -0.00403317
C        2.48036855       8.69475466       3.61550833       0.00000000      -0.00106994       0.00184785       0.00050501
C        9.88307466       0.10018415       3.60951887       0.00000000       0.00072761      -0.00183741       0.00104768
C        8.64035479       2.23090632       3.61029408       0.00000000      -0.00192369      -0.00359817      -0.00155399
C        7.37747376       4.34870017       3.64341191       0.00000000       0.00068599       0.00131716      -0.00000573
C        6.07752247       6.45787375       3.66609548       0.00000000       0.00308148      -0.00057815      -0.00032003
C        4.91820200       8.60389699       3.64808460       0.00000000       0.00018353      -0.00266054      -0.00096817
C       -0.00170610       1.46903045       3.72757289       0.00000000       0.00292763      -0.00017548      -0.00109944
C       -1.20368513       3.62961506       3.69746422       0.00000000       0.00016680       0.00209650      -0.00389914
C       -2.41995973       5.76159686       3.66001781       0.00000000      -0.00119425       0.00088766      -0.00039725
C       -3.69148958       7.87364727       3.64865148       0.00000000       0.00007776      -0.00547413       0.00279553
C       -4.93450062       9.99945397       3.68030002       0.00000000      -0.00375245       0.00354909       0.00202036
C        2.47429741       1.43270998       3.81403962       0.00000000       0.00355612       0.00037296       0.00008164
C        1.23300945       3.55364278       4.02407486       0.00000000      -0.00427428      -0.00628061       0.00017723
C        0.16841375       5.75795852       3.72355122       0.00000000      -0.00343386      -0.00059684      -0.00031855
C       -1.18684788       7.87209862       3.63565726       0.00000000       0.00041760      -0.00128166       0.00300751
C       -2.44952255       9.99964087       3.66153101       0.00000000      -0.00019832       0.00040227      -0.00223492
C        4.94721098       1.47355632       3.68861943       0.00000000      -0.00058282       0.00519066      -0.00007458
C        3.71761454       3.55441015       3.98958346       0.00000000       0.00166026      -0.00115753       0.00088637
C        1.29499997       7.95042955       3.62364556       0.00000000      -0.00056210       0.00345166       0.00138975
C        0.01819380      10.04259024       3.60128918       0.00000000      -0.00277083       0.00097938       0.00036361
C        7.40282772       1.52134035       3.60152638       0.00000000      -0.00512234      -0.00441524       0.00109271
C        6.13963986       3.63909857       3.66863635       0.00000000      -0.00052947       0.00377903      -0.00156504
C        4.76279820       5.78107004       3.71556561       0.00000000       0.00357001       0.00133145      -0.00203908
C        3.66568009       7.91803467       3.66044569       0.00000000      -0.00000521       0.00135894      -0.00020922
C        2.47567881      10.10230752       3.58788775       0.00000000       0.00109068       0.00007162       0.00324644
C        9.87823756       1.51618068       3.62294681       0.00000000       0.00405296      -0.00010910      -0.00454481
C        8.63702342       3.64921619       3.63052799       0.00000000      -0.00045418      -0.00144521      -0.00019298
C        7.35834758       5.76736010       3.65468454       0.00000000       0.00131407      -0.00027616       0.00725158
C        6.14150399       7.87528306       3.65597585       0.00000000       0.00206177       0.00072966      -0.00012235
C        4.93235661      10.03412425       3.63721331       0.00000000      -0.00339484      -0.00297804       0.00138442
Y        2.49475757       4.68562849       5.72291225       0.00000000       0.01568180      -0.00625837      -0.10811555
O        1.68304501       3.67751886       7.41612894       1.00000000       0.00848936       0.00014731      -0.01672446
O        2.98750526       3.12179710       7.05673457       1.00000000      -0.01278597       0.01257238       0.13058358
