52
Lattice="12.336457 0.0 0.0 -6.168228499999997 10.683685154694365 0.0 0.0 0.0 15.0" Properties=species:S:1:pos:R:3:forces:R:3 energy=-449.2946247629389 free_energy=-449.2946247629389 stress="-0.0018228654267765708 0.0015290866501328274 5.28752184277504e-05 0.0015290866501328274 -0.006547665215862579 3.096089955706921e-05 5.28752184277504e-05 3.096089955706921e-05 6.815159074353458e-06" pbc="T T T"
C       -0.00013688       0.02701744       3.66465739      -0.00034332       0.00343616       0.01140596
C       -1.23596586       2.16382247       3.43296908       0.01064529      -0.00471830      -0.00551019
C       -2.49540192       4.30096770       3.57467927       0.00604239       0.00130670       0.00329831
C       -3.73038494       6.42102334       3.81461468      -0.00781769       0.00602836      -0.00536477
C       -4.95592557       8.55269104       3.84667663      -0.00466208      -0.00661016      -0.00338760
C        2.46626888       0.00460433       3.76996356      -0.00467979       0.00438120      -0.00505063
C        1.26323394       2.11698598       3.38342646       0.00265675       0.00130940       0.00337185
C       -0.07354145       4.32102225       3.26805707      -0.00315989      -0.00270798      -0.00164150
C       -1.24472111       6.42703991       3.77735496      -0.00662373      -0.00244446       0.00687194
C       -2.47555011       8.55023267       3.87211869       0.00747895       0.01077650       0.01057128
C        4.93249980       0.00448812       3.79656288       0.00861105      -0.00248702       0.00778314
C        3.73185238       2.13369830       3.82402028       0.00378045      -0.00328498       0.00485333
P        1.55381376       6.23291348       4.23253499       0.00829214       0.01458263      -0.00052316
C       -0.00171829       8.57211844       3.94817492       0.00320681       0.00399191      -0.00230955
C        7.39313231       0.04419655       3.77219524       0.00183670      -0.00576784       0.00036922
C        6.16509306       2.15190800       3.72790496      -0.00374559      -0.00357162       0.01206459
C        4.92435557       4.22700377       3.97285764      -0.00247421       0.01288132      -0.00344141
B        3.53321351       6.43011971       4.08962870       0.00535970       0.00208228       0.00727190
C        2.47424596       8.65606935       3.95833044      -0.00568841      -0.00275358      -0.01270151
C        9.87626794       0.05654752       3.70076208      -0.00244834      -0.01108855      -0.00070250
C        8.62971986       2.17066395       3.61681584       0.00082439       0.00534604      -0.00602622
C        7.37794632       4.29328082       3.74884779      -0.00938689       0.00396454      -0.00540162
C        6.10792241       6.40546778       3.92568737       0.00934729       0.00004492      -0.00552444
C        4.92685082       8.58653432       3.87718306      -0.00116433      -0.00699036       0.00038791
C        0.00638765       1.44792289       3.47036367       0.00859602       0.00413363       0.00743190
C       -1.27359069       3.58222703       3.38324909       0.00674904      -0.00632746      -0.00457135
C       -2.49034212       5.71942175       3.71884948      -0.01025448       0.00332639      -0.00829520
C       -3.71965701       7.84265508       3.85728068       0.00165846       0.00675604       0.00494591
C       -4.94416651       9.98108486       3.76641520      -0.00651899      -0.00299845      -0.00419940
C        2.47975590       1.42620918       3.66768947       0.00106451       0.00381777       0.00278332
P        1.40504335       3.68443509       2.59970016      -0.00902045      -0.00581399       0.01097338
C       -0.02965161       5.68617979       3.64500469      -0.00587248      -0.00207849       0.00000293
C       -1.24015622       7.84409552       3.89827548       0.00573782       0.00342646      -0.00544574
C       -2.47298375       9.97369173       3.83411576       0.00311920       0.01121978       0.00907383
C        4.94506130       1.42617069       3.75162909       0.00144352      -0.00767550       0.00785365
N        3.78418788       3.46754573       4.15856478       0.01206529      -0.00453009       0.00507198
C        1.25489605       7.94403240       4.06462546      -0.00257208       0.00362487      -0.01145199
C       -0.00115925       9.99630381       3.84155602       0.00720415      -0.00037948       0.00269405
C        7.39819293       1.45824785       3.69083718      -0.00225462      -0.00299677      -0.00030322
C        6.15797227       3.56307540       3.77651768      -0.00710424      -0.00007198       0.01326912
C        4.86743248       5.66622015       4.02393203       0.00859708       0.01252396      -0.00338200
C        3.68498294       7.92958455       3.96900628      -0.00470166       0.00356859      -0.01283829
C        2.46914366      10.05654614       3.80691994      -0.00326872      -0.00940176      -0.00061739
C        9.87218111       1.46691751       3.57112225       0.00472292      -0.00618713      -0.00344490
C        8.61578986       3.59026432       3.63498493      -0.00164385       0.01095460      -0.00924062
C        7.36180453       5.71249247       3.83401041       0.00043742       0.00296181      -0.00776556
C        6.14325121       7.84064026       3.89103047      -0.00024680      -0.00932506       0.00202784
C        4.93684630      10.01658593       3.74721558       0.00099986      -0.00620057      -0.00676084
Y        2.61966053       4.35613265       5.89260833       0.00362655       0.00261333       0.00313736
O        4.16491947       4.93618866       7.11796536      -0.00830930      -0.01288744      -0.00291306
O        3.04011014       4.49782249       8.06411527      -0.00399055      -0.00327997       0.00037984
H        3.32642317       4.95707883       8.87094174      -0.01615123      -0.00648019       0.00092012
