51
Lattice="12.336457 0.0 0.0 -6.168228499999997 10.683685154694365 0.0 0.0 0.0 15.0" Properties=species:S:1:pos:R:3:initial_magmoms:R:1:forces:R:3 energy=-448.814351900783 free_energy=-448.814351900783 stress="0.011413043256869065 -0.0005864534104610793 -8.676700531165624e-06 -0.0005864534104610793 0.0005842577539007383 1.2594106755627435e-05 -8.676700531165624e-06 1.2594106755627435e-05 2.7982532910160483e-05" pbc="T T T"
C       -0.01174145       0.03639561       3.68644152       0.00000000       0.00596525       0.00045567      -0.00325325
C       -1.23546135       2.20285488       3.66568559       0.00000000       0.00550945       0.00176473       0.00236164
C       -2.46194688       4.34203476       3.64771535       0.00000000       0.00063464      -0.00599066       0.00423770
C       -3.70782444       6.45259035       3.67320965       0.00000000      -0.00342848       0.00806080      -0.00613406
C       -4.95222490       8.57671213       3.69104837       0.00000000      -0.01209644      -0.00559555      -0.00891730
C        2.45830747       0.04685380       3.72690205       0.00000000       0.01147749       0.00438891       0.00161954
C        1.19532548       2.14422805       3.85592800       0.00000000      -0.00681061       0.00596308       0.00003825
C        0.00100156       4.30580481       3.78776213       0.00000000      -0.00076055      -0.00368390      -0.00019406
C       -1.14961903       6.43260351       3.67938443       0.00000000      -0.00051398      -0.00268214       0.00277463
C       -2.45902674       8.57388459       3.67097946       0.00000000       0.00227509       0.00390298      -0.00449031
C        4.92438301       0.04462594       3.64292026       0.00000000       0.01054805      -0.00000458       0.00739405
C        3.71325903       2.15187525       3.80150031       0.00000000       0.00070701      -0.00293198       0.00268265
B        1.55499245       6.46695158       3.70352407       0.00000000      -0.00581779       0.00031276      -0.00223220
C        0.01579439       8.59777337       3.62082303       0.00000000       0.00481255       0.01349899       0.00734753
C        7.38494192       0.09038539       3.58639655       0.00000000      -0.00308269      -0.00099462       0.00007936
C        6.14496754       2.21273677       3.62112231       0.00000000       0.00013904      -0.00692433       0.00949729
C        4.90732204       4.32439501       3.74632605       0.00000000      -0.00125528       0.00366292      -0.00419627
C        3.45710639       6.46938928       3.75482760       0.00000000      -0.00558050      -0.00046593      -0.00103184
C        2.46378068       8.67281397       3.62543437       0.00000000       0.00144495      -0.00147915       0.00579212
C        9.86727388       0.08416676       3.61463448       0.00000000      -0.00725749      -0.00421419       0.00657923
C        8.62502004       2.22116930       3.60107956       0.00000000       0.00038198      -0.00316738      -0.00006440
C        7.37304200       4.34673599       3.63623566       0.00000000      -0.00460902       0.00748663       0.00012927
C        6.07463023       6.44357260       3.68570432       0.00000000      -0.00207505      -0.00546736       0.00150341
C        4.90365439       8.58721353       3.67307925       0.00000000       0.00241765      -0.00353492       0.00167004
C       -0.00520507       1.47103569       3.71718032       0.00000000      -0.00042264       0.00129936       0.00647631
C       -1.22372722       3.62025703       3.67625758       0.00000000       0.00576312      -0.00077287       0.00086579
C       -2.43339213       5.75459295       3.66937478       0.00000000      -0.00464875      -0.00311361      -0.00293850
C       -3.70671321       7.87116196       3.68324017       0.00000000      -0.00728973       0.00624243      -0.00799140
C       -4.94420021      10.00871716       3.70459756       0.00000000       0.00735883      -0.00233328       0.00123036
C        2.45654821       1.49640281       3.81291140       0.00000000      -0.00393871       0.00810914      -0.00828502
O        1.14040322       3.53099933       4.04277696       0.00000000      -0.00604284       0.00105417      -0.00401845
C        0.14478961       5.71513472       3.72646040       0.00000000      -0.00129928      -0.00434114      -0.00074466
C       -1.20780881       7.86051017       3.65565745       0.00000000       0.00565302       0.00509922       0.00124719
C       -2.47520223      10.00992416       3.68024127       0.00000000       0.01344454       0.00385381      -0.00094321
C        4.91502548       1.48090144       3.66740166       0.00000000       0.00144094      -0.00646094       0.00164279
O        3.75424714       3.54583253       3.90856918       0.00000000       0.00279231      -0.00197634       0.00547553
C        1.27096198       7.93734783       3.62845286       0.00000000       0.00000192       0.00546814       0.00126582
C       -0.00465860      10.03452888       3.60510315       0.00000000       0.00484349       0.00807417       0.00068494
C        7.37723128       1.51492782       3.59005028       0.00000000      -0.00003823      -0.00646726       0.00641739
C        6.12849148       3.63470597       3.64271530       0.00000000      -0.00275259      -0.00131327       0.00428852
C        4.76612155       5.74179850       3.72174636       0.00000000       0.00061874       0.00480496      -0.01424749
C        3.65175581       7.89020446       3.68210071       0.00000000       0.00193051      -0.00129041       0.00189751
C        2.45988185      10.08507320       3.59369907       0.00000000      -0.00882310      -0.00349331       0.00362120
C        9.87098589       1.50777978       3.61639788       0.00000000       0.00427437      -0.00075221       0.00094142
C        8.62309057       3.64112298       3.62234835       0.00000000      -0.00409883      -0.00043218      -0.00222734
C        7.34879004       5.75977436       3.66756534       0.00000000      -0.00093202       0.00762631       0.00185609
C        6.13088282       7.86552594       3.68753592       0.00000000      -0.00715771      -0.01092971      -0.01123731
C        4.91763282      10.01920453       3.65266479       0.00000000       0.00088996      -0.00048551      -0.00037934
Y        2.53688187       4.67552204       5.46558145       0.00000000       0.00330857      -0.00413012       0.01324267
O        2.69273819       4.19637174       7.53464535       1.00000000       0.01038514      -0.00198631      -0.01004369
O        2.67142468       2.99392337       6.78808164       1.00000000      -0.00828627      -0.00371404      -0.01129015
