53
Lattice="12.336457 0.0 0.0 -6.168228499999997 10.683685154694365 0.0 0.0 0.0 15.0" Properties=species:S:1:pos:R:3:forces:R:3 energy=-457.0361706477814 free_energy=-457.0361706477814 stress="-0.005323457346360126 0.0023048140219059554 3.419354484414288e-05 0.0023048140219059554 -0.0036056959862563794 1.5802589606457396e-05 3.419354484414288e-05 1.5802589606457396e-05 -2.2759724867100155e-05" pbc="T T T"
C        0.07108924       0.03841780       3.86800094      -0.00077675      -0.00011926      -0.00051832
C       -1.15862413       2.16528704       3.76670050      -0.00124211       0.00434303      -0.00257471
C       -2.39459200       4.30247125       3.64818024      -0.00111393       0.00772473      -0.00058836
C       -3.63994243       6.44361709       3.73199726       0.00300446      -0.00181541       0.00403300
C       -4.88493695       8.57189487       3.86809948       0.00059928      -0.00180393       0.00171161
C        2.53039794       0.04111631       3.80488293       0.00462531      -0.00053330      -0.00478723
C        1.31147129       2.19823751       3.89564474       0.00808522       0.00063075      -0.00525927
C        0.06002531       4.29434819       3.58728292       0.00073138       0.00135257      -0.00243247
C       -1.20111766       6.45227946       3.39944427      -0.00279295       0.00335091       0.00342264
C       -2.41573662       8.58543029       3.60321812       0.00246481       0.00027721       0.00060900
C        5.00113084       0.03182530       3.64058694      -0.00477196      -0.00078257       0.00088652
C        3.79209925       2.16343102       3.85408932      -0.00124281       0.00130751       0.00167800
B        2.64837373       4.37390853       4.11790303       0.00042382       0.00350699      -0.00522808
S        1.38907413       6.41779241       2.44169579      -0.00598537       0.00349411      -0.01157783
C        0.05282747       8.58756867       3.40183177      -0.00038031      -0.00164778       0.00102206
C        7.47412934       0.03248994       3.59101657       0.00037388      -0.00296537       0.00176268
C        6.26391186       2.14473932       3.72308152      -0.00285822       0.00376303      -0.00091189
C        5.08532135       4.25504911       4.00396598      -0.00316413      -0.00471066       0.00682657
S        3.52905629       6.27391176       4.60729378       0.00291302       0.01597724      -0.00426494
C        2.53890071       8.59814773       3.62001393       0.00225834      -0.00691047       0.00001723
C        9.94890207       0.03425161       3.75043185       0.00127494      -0.00509065      -0.00281996
C        8.72077927       2.16171172       3.69469170       0.00626282       0.00197337      -0.00221737
C        7.50468174       4.29612293       3.79925623       0.00268358       0.00037023      -0.00347530
C        6.24340298       6.42486824       4.04335651       0.00237932      -0.00342091       0.00048069
C        4.98043651       8.55989885       3.95312751      -0.00465376      -0.00282584       0.00475659
C        0.07977774       1.46785687       3.84736492       0.00193452       0.00408743       0.00169563
C       -1.18024544       3.58008723       3.66304912      -0.00277893       0.00636166      -0.00517983
C       -2.41687022       5.72880637       3.59528665      -0.00051165       0.00282487      -0.00069198
C       -3.64641101       7.86844936       3.73712754       0.00461228      -0.00266327       0.00175041
C       -4.87068856      10.00549874       3.85647967       0.00315437      -0.00033734      -0.00270168
C        2.53653056       1.47047619       3.86614826       0.00605859      -0.00191418       0.00229020
C        1.30966394       3.65212253       3.91102990       0.00601691       0.00243700       0.00087213
C       -0.00988961       5.68227522       3.19153039      -0.00328429       0.00443125       0.00162270
C       -1.18653800       7.87881023       3.42267260      -0.00103203       0.00252826      -0.00511700
C       -2.40915652      10.01031239       3.68023517       0.00025380      -0.00086606       0.00079731
C        5.02189646       1.44351183       3.73547061      -0.00513358       0.00169111      -0.00216714
C        3.86023284       3.57040857       3.98075771      -0.00559624       0.00151711       0.00111063
C        1.30568633       7.92334542       3.31850113       0.00208493      -0.00341944       0.00442894
C        0.06548427      10.01310619       3.53881421      -0.00407661      -0.00267769       0.00212530
C        7.48928119       1.44687656       3.66005461       0.00195044       0.00225412       0.00511498
C        6.30085736       3.55912245       3.82771558       0.00029507       0.00184853       0.00616564
C        5.08951054       5.64158301       4.21560692       0.00419616      -0.00599723      -0.00199219
C        3.71912608       7.90462961       3.95686226      -0.00015277      -0.00940897      -0.00125176
C        2.54378730      10.02001506       3.63656830       0.00223573      -0.00779323       0.00356264
C        9.94963237       1.45423104       3.73519448       0.00328469      -0.00259280      -0.00228786
C        8.72226071       3.58283280       3.71059560       0.00312942       0.00366106       0.00225453
C        7.48430187       5.71948398       3.86777818       0.00228598      -0.00134379      -0.01191792
C        6.22127390       7.85387525       3.98951077      -0.00589979       0.00068711       0.00659110
C        5.00383618      10.00133058       3.85313411      -0.00238830      -0.00316398       0.00092089
Y        0.90805361       5.82409612       5.40498989      -0.00483232      -0.00302045       0.00493238
O        0.15812500       4.57937520       6.92681547       0.00223555       0.00599703      -0.00053627
O        0.30689624       5.92285524       7.64554532       0.00063063      -0.00354807       0.00347604
H        0.69858477       5.59026344       8.47064260      -0.01777047      -0.00702557       0.00358132
