51
Lattice="12.336457 0.0 0.0 -6.168228499999997 10.683685154694365 0.0 0.0 0.0 15.0" Properties=species:S:1:pos:R:3:initial_magmoms:R:1:forces:R:3 energy=-452.6580897626517 free_energy=-452.6580897626517 stress="-0.0047546368261007456 -0.0013491109846707917 2.7311970666221534e-05 -0.0013491109846707917 -0.0003886021688057113 -1.6174278958791286e-05 2.7311970666221534e-05 -1.6174278958791286e-05 -2.6172679159713046e-05" pbc="T T T"
C       -0.03392414       0.01154478       3.61866131       0.00000000      -0.00628207       0.01310200      -0.01211577
C       -1.28710250       2.12939748       3.59852863       0.00000000      -0.00134369      -0.01298646       0.02754946
C       -2.51684956       4.27709458       3.56421479       0.00000000       0.00453778      -0.00305735      -0.01102476
C       -3.73585608       6.42749889       3.53621451       0.00000000      -0.01570373       0.00008930       0.00961599
C       -4.96055694       8.57290069       3.57120749       0.00000000       0.00739998      -0.00056851       0.00307775
C        2.43257632       0.05448417       3.67494031       0.00000000       0.00160062      -0.02033086       0.00784705
C        1.15633177       2.17059096       3.89421100       0.00000000       0.00742986       0.01562579       0.00959877
C       -0.08810288       4.19802425       3.94804856       0.00000000      -0.01585894       0.00163291      -0.00108439
C       -1.28748633       6.41191517       3.75720454       0.00000000      -0.00603341       0.00756080       0.01230994
C       -2.50099251       8.56915887       3.62384552       0.00000000       0.00188185       0.00773580       0.01056408
C        4.89055982       0.02707730       3.60863803       0.00000000       0.00663297      -0.00075764       0.01879175
C        3.68413255       2.19379081       3.77244461       0.00000000       0.00126401       0.01088731       0.00194012
B        1.05961715       6.49920808       4.16218393       0.00000000       0.00769193       0.00004492       0.01191694
C       -0.04764643       8.57400737       3.74465382       0.00000000      -0.01627568      -0.00942508       0.00247938
C        7.36861654       0.00101976       3.57558379       0.00000000      -0.00917833      -0.00280837       0.00799574
C        6.13214636       2.14836636       3.52631900       0.00000000       0.00573264      -0.00725414      -0.00033172
C        4.91803926       4.26590865       3.73100851       0.00000000       0.00903221       0.01389889      -0.01591750
N        3.74611110       6.43992478       3.98391688       0.00000000       0.00263168       0.00295071       0.00744631
C        2.46027327       8.54887326       3.78988683       0.00000000       0.00120469       0.00164782       0.00382093
C        9.83469299      -0.00463054       3.56919125       0.00000000      -0.00330565       0.00943821      -0.00084884
C        8.59418306       2.13954942       3.48375694       0.00000000       0.01221551      -0.00123895      -0.00562845
C        7.36687711       4.29011291       3.48173884       0.00000000      -0.00460524      -0.01875635       0.00846424
C        6.14158224       6.43169040       3.57853543       0.00000000      -0.01139147      -0.00416238       0.01231007
C        4.91061957       8.54447772       3.64087469       0.00000000       0.01950720       0.00175739       0.01034569
C       -0.05143481       1.43036717       3.67674807       0.00000000       0.00649551       0.01349670      -0.00244912
C       -1.30727262       3.53714975       3.66465767       0.00000000      -0.00614961      -0.01640456       0.01023186
C       -2.51422056       5.70808986       3.60364722       0.00000000      -0.00439180       0.00403185      -0.01831302
C       -3.73065080       7.85531591       3.57109644       0.00000000       0.00635492       0.00660971      -0.00975981
C       -4.96221640      10.00170611       3.62347501       0.00000000      -0.00878599      -0.00229086       0.00107020
C        2.42799602       1.48346939       3.80291851       0.00000000       0.00136506      -0.00996644      -0.01146975
N        1.04836711       3.49445705       4.18694032       0.00000000       0.00140764       0.01562965      -0.00046254
C       -0.09758683       5.64711454       3.97918643       0.00000000       0.00423166       0.00624973      -0.01818833
C       -1.26744716       7.84313687       3.71299712       0.00000000      -0.01347435       0.00230725       0.00485776
C       -2.50715523      10.00240308       3.63402657       0.00000000       0.01067430      -0.00269315      -0.00931659
C        4.89789334       1.45092147       3.60562106       0.00000000       0.00273708      -0.00251159       0.00199506
N        3.76689840       3.55362862       3.89385409       0.00000000       0.01781389       0.01281799       0.00422175
C        1.20867053       7.89359945       3.89342438       0.00000000      -0.00624199      -0.00987676      -0.02523205
C       -0.04222071       9.99092754       3.62473841       0.00000000      -0.00859778      -0.01437495      -0.00323699
C        7.36325053       1.42605631       3.50459707       0.00000000       0.01016275      -0.00341924      -0.01994902
C        6.14375690       3.57215012       3.53543109       0.00000000      -0.00399960      -0.01036725      -0.01599225
C        4.90461893       5.73917454       3.76117696       0.00000000      -0.00303952       0.00731751      -0.00106483
C        3.69588869       7.80016851       3.80707901       0.00000000       0.01384001       0.00446563       0.01517340
C        2.44287138       9.96522129       3.62452278       0.00000000      -0.00456225       0.00849443       0.00771983
C        9.82318194       1.41911223       3.52150589       0.00000000       0.00296194       0.00034860      -0.00140987
C        8.59311583       3.56709732       3.47813260       0.00000000       0.00964888      -0.00522958      -0.00607634
C        7.36646322       5.71514712       3.50730822       0.00000000      -0.02092122      -0.01631621       0.00848759
C        6.14352311       7.85175080       3.58282508       0.00000000       0.01197444      -0.00438821       0.00275223
C        4.89863147       9.96779332       3.60024390       0.00000000      -0.00213953       0.00646289      -0.02093894
Y        2.61498130       4.84451862       5.44565872       0.00000000       0.00011340       0.00358789      -0.05100567
O        3.39787706       5.23696066       7.48058558       1.00000000      -0.01089126      -0.02120695      -0.00185463
O        3.47832095       3.86844800       7.21143505       1.00000000      -0.00537131       0.02220017       0.04108729
