52
Lattice="12.336457 0.0 0.0 -6.168228499999997 10.683685154694365 0.0 0.0 0.0 15.0" Properties=species:S:1:pos:R:3:forces:R:3 energy=-443.9496979785738 free_energy=-443.9496979785738 stress="0.00012581104676549244 -0.0005846437888661586 2.897633402951977e-05 -0.0005846437888661586 -0.01177565694104217 4.543306812255068e-05 2.897633402951977e-05 4.543306812255068e-05 6.179296485224955e-06" pbc="T T T"
C       -0.03489941      -0.03276723       3.47181143      -0.00304253      -0.00148001       0.00351077
C       -1.26140027       2.12847188       3.33765080      -0.00335440      -0.00365826      -0.00070359
C       -2.51305814       4.25763855       3.54896374      -0.00695207      -0.00551892       0.00210315
C       -3.74832550       6.37594682       3.72244604       0.00363720       0.00240605       0.00351650
C       -4.98009284       8.49648516       3.64196507       0.00565459       0.00383881      -0.00577592
C        2.42532295      -0.08373489       3.68909478       0.00423709      -0.01176314      -0.00614390
C        1.23102130       2.01938199       3.33436678       0.00156567      -0.00257969       0.00563307
C       -0.08362224       4.28823397       3.26319473      -0.01066333      -0.00172766      -0.00843435
C       -1.25574243       6.37195439       3.76641109       0.00619475      -0.00111572      -0.00050018
C       -2.49494716       8.49159333       3.79283371      -0.00605653       0.00370140      -0.00415249
C        4.89582440      -0.04245439       3.84547606       0.00591999      -0.00068968      -0.00646011
C        3.62209824       2.01327548       4.06151449       0.00084156       0.00483716      -0.00416576
P        1.56118469       6.22037864       4.21622963      -0.00691917      -0.00314385      -0.00756099
C       -0.02552253       8.53294210       3.86523296      -0.00628443      -0.00376812      -0.00660637
C        7.35280493       0.01917191       3.70655322      -0.00744492       0.01006422      -0.00404976
C        6.12047649       2.11991742       3.92518725       0.00012255       0.00223056      -0.00578744
C        4.93335301       4.27323851       4.19130208       0.01200784       0.00014545       0.00775999
B        3.50359263       6.42045206       3.77680098       0.00262689      -0.00197536       0.00584116
C        2.43648450       8.62876361       3.68217746       0.00365591       0.00556229       0.00940643
C        9.83861310       0.02381090       3.49183077      -0.00126058       0.00041841       0.00813134
C        8.59017488       2.13889800       3.59929759       0.00015735      -0.00536825      -0.00005183
C        7.35312804       4.25517665       3.78787592       0.00451357       0.00433349       0.00015076
C        6.10124798       6.38811047       3.76195204      -0.00369647       0.00606674       0.00131894
C        4.89452882       8.54671759       3.56336091       0.01239862       0.00191286       0.00999373
C       -0.02757790       1.39560483       3.35835463      -0.00055282      -0.00273291      -0.00273253
C       -1.27766077       3.54456217       3.34840673      -0.00923135      -0.00368274       0.00146925
C       -2.50441100       5.67121470       3.68365801       0.00537457      -0.00264824      -0.00423058
C       -3.74066675       7.79170686       3.72427878      -0.00194911       0.00310848       0.00710558
C       -4.97935377       9.91480008       3.58217376      -0.00024802      -0.00041341      -0.00050906
C        2.42346441       1.33110730       3.70583050       0.00063024      -0.01235339       0.00850560
S        1.40110528       3.59775341       2.67642988       0.00252879       0.01448679      -0.00234911
C       -0.03528860       5.62366700       3.67853004       0.00191672      -0.00611345       0.00498907
C       -1.25568698       7.79379151       3.85014027      -0.00837249       0.00081124      -0.00516291
C       -2.50007303       9.90905052       3.79186853       0.00629747      -0.00074151       0.00381771
C        4.88598388       1.38273893       3.96133626       0.00073956       0.00041182      -0.00186916
P        3.50719992       3.52556107       4.89066718       0.00109542       0.01513159       0.00637240
C        1.23849517       7.91262979       3.90696821      -0.00079738       0.00063963       0.00115835
C       -0.03557921       9.96175320       3.80491974       0.00142542      -0.00105976       0.00995787
C        7.35150840       1.43339353       3.73651999      -0.00314766       0.00634946      -0.00156715
C        6.13089648       3.53851873       3.96769961       0.01023421       0.00092940      -0.00158101
C        4.85033962       5.68334297       3.94257500      -0.00215244      -0.00566468      -0.00665068
C        3.64803692       7.90457860       3.63796517       0.00917722       0.00051639       0.00691856
C        2.42675151      10.03153491       3.59630543      -0.00687840       0.00992688      -0.00176778
C        9.83823676       1.43974715       3.45954131       0.00074655      -0.00241886      -0.00224422
C        8.58572267       3.55317459       3.63761626      -0.00362813      -0.00758857       0.00270462
C        7.34239749       5.67639535       3.75336825      -0.00178607       0.00814633      -0.01010497
C        6.11709468       7.80109324       3.63754775       0.01008038       0.00365722      -0.00849491
C        4.89696151       9.97195284       3.48605504      -0.00054315      -0.00164524       0.00086235
Y        3.45575623       5.77538746       6.31626630      -0.00986675       0.00398082       0.00084160
O        4.94536002       6.46940371       7.62632902      -0.00553502      -0.00571355      -0.00137364
O        3.84796328       5.85901524       8.56797304       0.00159866      -0.01734059       0.00617127
H        4.29243958       6.07957057       9.40307739      -0.00501558      -0.00070792      -0.00720964
