53
Lattice="12.336457 0.0 0.0 -6.168228499999997 10.683685154694365 0.0 0.0 0.0 15.0" Properties=species:S:1:pos:R:3:forces:R:3 energy=-462.7686234876774 free_energy=-462.7686234876774 stress="-0.001738289361045562 -0.006761032176774631 -3.4940869625810985e-05 -0.006761032176774631 0.0060794443133127185 7.76247789645698e-06 -3.4940869625810985e-05 7.76247789645698e-06 7.406886819803979e-06" pbc="T T T"
C       -0.02601310       0.01648297       3.64604483       0.00053501      -0.00833639       0.00248177
C       -1.31169114       2.10750024       3.57267320      -0.00060708      -0.00576315      -0.00074551
C       -2.55440752       4.25966748       3.57037316      -0.00308126       0.00091282       0.00034063
C       -3.72178943       6.41837956       3.64694601      -0.00020937       0.00617885      -0.00162834
C       -4.93222297       8.57427815       3.69286976       0.00369229       0.00411313       0.00177416
C        2.45615069       0.03800946       3.64706014       0.00219365      -0.00464877      -0.00336797
C        1.18060950       2.15319912       3.55487069      -0.00125476      -0.00398798       0.00312980
C       -0.12856366       4.22621957       3.48467569       0.00002812      -0.00153384      -0.00258943
C       -1.26758980       6.39509483       3.55695650      -0.00043675       0.00093544       0.00782297
C       -2.46208211       8.55685346       3.65045504      -0.00049829       0.00018376      -0.00743343
C        4.91553434       0.01438330       3.72210595      -0.00044576      -0.00198969      -0.00894455
C        3.64343209       2.23104375       3.70216698      -0.00351768      -0.00418429       0.00509818
B        2.27140891       4.53471101       3.58752642      -0.00340668       0.01113294       0.00179391
B        1.34170753       6.15111754       3.59690632      -0.00085120       0.00508191      -0.00348748
C        0.03223832       8.48758573       3.70460720      -0.00601596       0.00394417       0.00120707
C        7.37154379      -0.02351846       3.78283517       0.00541725       0.00138777      -0.00748459
C        6.11129585       2.15961619       3.78056082       0.00075385       0.00380453      -0.00958557
C        4.87154757       4.35611680       3.90001401      -0.00077140      -0.00010356      -0.00038182
O        3.93871191       6.57666846       4.56433546      -0.00606585      -0.00356311       0.00750397
C        2.48403407       8.48724807       3.89994420      -0.00270276      -0.00254977      -0.00227206
C        9.82565301      -0.02286047       3.74594569      -0.00350969       0.00721637      -0.00526604
C        8.56856653       2.12372227       3.70102298      -0.00136897       0.00205888       0.00045363
C        7.33846830       4.28592890       3.74098567       0.00610998      -0.00266689      -0.00430385
C        6.17419647       6.45133415       3.83517543       0.00474478      -0.00362035       0.00209421
C        4.94931985       8.56994177       3.83961251      -0.00239906      -0.00002564      -0.00716943
C       -0.05426497       1.42665152       3.57574321       0.00027965      -0.01000876       0.00679156
C       -1.34802356       3.52146708       3.50882785      -0.00219155      -0.00322464       0.00813628
C       -2.51488120       5.68890861       3.57546817      -0.00230178       0.00323783       0.00947837
C       -3.69818321       7.85089091       3.65746131       0.00122209       0.00541172      -0.00045935
C       -4.94170148      10.00454032       3.65574402       0.00387049      -0.00110195      -0.00030324
C        2.43718778       1.47222977       3.62959568      -0.00290068      -0.00661767       0.01158797
C        1.11343640       3.55846748       3.52244907       0.00311806      -0.00008750      -0.00400148
C       -0.08409731       5.63546468       3.52165326       0.00050591       0.00127780      -0.00444300
C       -1.22955053       7.82321604       3.63457796      -0.00345834       0.00161115      -0.00437240
C       -2.47827762       9.99090121       3.67400886       0.00022526      -0.00334544      -0.00280417
C        4.87972091       1.46334384       3.74660327      -0.00061530      -0.00114182       0.00068843
C        3.60302642       3.69759377       3.75695699      -0.00378991      -0.00184096       0.00812553
C        1.28173405       7.72220914       3.75165542      -0.00738279       0.00203587      -0.00492055
C       -0.01536023       9.94248487       3.74757674       0.00172151       0.00302882       0.00593783
C        7.34419821       1.41647986       3.76376895       0.00155283       0.00202709      -0.00373145
C        6.10222049       3.59525053       3.80942163       0.00370550       0.00342283       0.00281869
C        4.98982606       5.76725538       4.06163619      -0.00138917      -0.00043376      -0.00251300
C        3.76469196       7.88541096       4.06280269      -0.00204072      -0.00136843       0.00263574
C        2.44169302       9.93431023       3.81546043       0.00328434      -0.00065281      -0.00577518
C        9.80200082       1.40071585       3.66908307      -0.00497930       0.00444868      -0.00772325
C        8.55880273       3.55335604       3.66411525       0.00152954      -0.00195784       0.00732121
C        7.38071520       5.71033636       3.72653582       0.00597854      -0.00353715      -0.00338417
C        6.18558632       7.87102206       3.79010307       0.00460089       0.00122271       0.00774783
C        4.91179081       9.98515093       3.72783641      -0.00526279       0.00351784       0.00937540
Y        2.55830709       5.61707440       5.99738564       0.00117381       0.00822768       0.00015158
O        3.67822132       4.69299283       7.49387611       0.00755511      -0.00385698      -0.00615129
O        2.63336036       5.51044383       8.23227434       0.01189329      -0.00650588      -0.00370474
H        2.58938302       5.01535430       9.06832230      -0.00223693       0.00223442       0.00445058
