52
Lattice="12.336457 0.0 0.0 -6.168228499999997 10.683685154694365 0.0 0.0 0.0 15.0" Properties=species:S:1:pos:R:3:forces:R:3 energy=-444.4134520563208 free_energy=-444.4134520563208 stress="0.003499111604351646 4.7816019840235294e-05 1.2384944407421773e-05 4.7816019840235294e-05 -0.006031221127142909 -3.047061372145002e-05 1.2384944407421773e-05 -3.047061372145002e-05 -5.691020047844025e-06" pbc="T T T"
C        0.00316767      -0.03395803       3.85135083      -0.00752104      -0.00958504      -0.00811425
C       -1.21447837       2.12846247       3.95610079       0.00220510       0.00142061       0.00203543
C       -2.44240504       4.24801229       3.95399757       0.00637772       0.00582370       0.00791408
C       -3.70221492       6.37253299       3.86631809      -0.00206989       0.00111925       0.00560541
C       -4.94747744       8.49350068       3.77154394       0.00192455      -0.00341618      -0.00330896
C        2.46613461      -0.09428622       3.88755704      -0.00224465      -0.00183752      -0.00023213
C        1.26440051       2.05141943       3.93347061      -0.00408419       0.00757443       0.00487739
C        0.09568412       4.25724913       3.83676161       0.00367721      -0.00548288       0.01393913
C       -1.24367940       6.38635245       3.67240272       0.00368596      -0.00153690      -0.00029818
C       -2.45803639       8.49382745       3.77486691       0.00401786      -0.00564801      -0.00779693
C        4.92905237      -0.03377370       3.85198877       0.00465835      -0.00191237      -0.00985187
C        3.66855466       2.05188824       3.93539560       0.00171845       0.00338431      -0.00527941
S        1.08029763       6.36292254       2.36019495       0.00333385      -0.00631885       0.00201171
C       -0.00826741       8.54596908       3.51923984       0.00246466       0.00435805      -0.01215542
C        7.39481321       0.01051962       3.76153809       0.00164809      -0.00708956       0.00653088
C        6.14785752       2.12814767       3.95629709      -0.00513084       0.00545192       0.00131136
C        4.83734853       4.25665651       3.84365855      -0.00779462      -0.00556239       0.00299602
S        3.84124819       6.35576432       2.37528340       0.00091240       0.00191895      -0.00857312
C        2.46525695       8.60991211       3.27864430      -0.00049945       0.00379066      -0.00649794
C        9.87401773       0.00960362       3.76444499      -0.00040225      -0.00083635       0.00004957
C        8.63521043       2.13160330       3.95360158      -0.00713483      -0.00565701       0.00130198
C        7.37539442       4.24792804       3.95498101      -0.00381234       0.00326641       0.00242599
C        6.17559743       6.38546408       3.66958513      -0.00001620      -0.00006742       0.00940715
C        4.93921843       8.54513630       3.51777813      -0.00026334       0.00054723       0.00339548
C        0.01348099       1.39648598       3.92739304      -0.00195885      -0.00691270      -0.00877883
C       -1.18135102       3.55014153       3.95196904       0.00502012       0.00026954      -0.00067311
C       -2.46205123       5.66637175       3.86888957       0.00094462       0.00851129       0.00536684
C       -3.70274335       7.78622900       3.80946186       0.00126315      -0.00437179      -0.00731636
C       -4.94467173       9.91180144       3.83761042      -0.00435304      -0.00544619       0.00070807
C        2.46654298       1.31445628       3.92590833      -0.00238131       0.00549250      -0.00226139
B        1.51910712       3.54895537       3.94065194      -0.00567061       0.01426484      -0.00792856
C       -0.05185104       5.63879597       3.48119614      -0.00864125      -0.01763601       0.00280045
C       -1.22742233       7.80096661       3.62759287       0.00833424      -0.00017729       0.00625566
C       -2.45978502       9.91190135       3.84028408       0.00212699      -0.00323018      -0.00613873
C        4.91939705       1.39654597       3.92766279       0.00116777       0.00071351      -0.00201168
B        3.41330368       3.55002784       3.94218213       0.00635467       0.00369426       0.00211240
C        1.21128847       7.92378796       3.17112197      -0.00008176      -0.00054384      -0.00414879
C       -0.00457123       9.96597728       3.72622625       0.00530892      -0.00166250       0.00708055
C        7.39130459       1.42729628       3.91171852      -0.01067377      -0.00693066       0.00731676
C        6.11465043       3.54957480       3.95437834      -0.00652339       0.00327308       0.00429307
C        4.98336180       5.63706207       3.48704291       0.00874650      -0.01130773       0.00463893
C        3.71805580       7.92152394       3.17696955       0.00223881       0.01227215      -0.01305818
C        2.46595474      10.00701947       3.61644686       0.00260410      -0.00126117       0.00138316
C        9.87881012       1.42679557       3.91314567       0.00077590      -0.00055013       0.00497489
C        8.63481994       3.54897186       3.98425005       0.00109975       0.00021526       0.00103333
C        7.39437196       5.66617661       3.86713925      -0.00118050       0.00420506       0.00917504
C        6.15834014       7.80023047       3.62428195       0.00036559       0.00228525       0.00446705
C        4.93652767       9.96489945       3.72847906      -0.00619786      -0.00270976      -0.01102817
Y        2.45879660       5.75203100       4.79763707       0.01051475       0.01002482       0.00548824
O        2.53628489       5.79434008       6.77919085      -0.00117015       0.01329937      -0.00429174
O        2.36530652       5.88337469       8.16157504       0.00030817       0.00652222      -0.00220471
H        3.27551400       5.77575448       8.50187607      -0.00399214      -0.00600826       0.00105245
