51
Lattice="12.336457 0.0 0.0 -6.168228499999997 10.683685154694365 0.0 0.0 0.0 15.0" Properties=species:S:1:pos:R:3:initial_magmoms:R:1:forces:R:3 energy=-445.2219494191199 free_energy=-445.2219494191199 stress="-0.005992175081052415 -2.7795674093446807e-05 -1.1771452377720798e-05 -2.7795674093446807e-05 -0.006262363803216124 -1.4667233316305988e-05 -1.1771452377720798e-05 -1.4667233316305988e-05 -1.8781349506015514e-05" pbc="T T T"
C       -0.03344789      -0.03805316       3.87286564       0.00000000       0.00568830       0.00663011       0.00707851
C       -1.26354807       2.11584383       3.97817427       0.00000000       0.00374056      -0.00003831       0.01696427
C       -2.50621300       4.25377992       3.95133626       0.00000000       0.00935720      -0.00059342       0.01779549
C       -3.73421973       6.38994958       3.87565949       0.00000000       0.00118887       0.00171134      -0.00295627
C       -4.97340622       8.51232082       3.78035742       0.00000000      -0.00522184       0.00135067      -0.00645995
C        2.43607846      -0.06102493       3.96116816       0.00000000       0.00736387      -0.00253058       0.00306921
C        1.20748401       2.05543639       4.06215134       0.00000000       0.00711218       0.02785920       0.01591992
C       -0.06083583       4.27959491       3.82664521       0.00000000       0.00401839      -0.00218475      -0.01368355
C       -1.29732410       6.39384833       3.62677372       0.00000000       0.00297733       0.00639608      -0.00979338
C       -2.49394845       8.51203772       3.77936332       0.00000000       0.00720762       0.00056452      -0.00626565
C        4.90628108      -0.03969609       3.90466599       0.00000000      -0.00175885      -0.00289425       0.00861916
C        3.66721727       2.05354137       4.11435700       0.00000000      -0.01396025       0.00843024      -0.00461579
S        1.05222844       6.34229774       2.33280801       0.00000000       0.00482165      -0.01299433      -0.00112031
C       -0.04660336       8.54316497       3.49402022       0.00000000       0.00042147      -0.00042495      -0.00381187
C        7.36889307      -0.00772512       3.77043286       0.00000000      -0.00768681      -0.02102841       0.01007255
C        6.13730182       2.11398683       4.02905300       0.00000000       0.00656913      -0.00228923       0.01560545
C        4.93081056       4.27723486       3.91817152       0.00000000      -0.00262173      -0.00317999      -0.01349691
S        3.78407301       6.29974413       2.44452425       0.00000000       0.01697985      -0.00795408       0.00485878
C        2.43537068       8.59793381       3.25468424       0.00000000      -0.01242122       0.00941900       0.00740686
C        9.84024282      -0.00681986       3.75465852       0.00000000       0.00041206       0.00026380       0.00640994
C        8.60443314       2.11671817       3.96688389       0.00000000       0.00052524       0.00376332       0.01606522
C        7.37815515       4.25397232       3.98851787       0.00000000      -0.00302153       0.00327981      -0.00203288
C        6.16448271       6.39749376       3.67295307       0.00000000       0.01033139      -0.01350862      -0.01359065
C        4.92012036       8.54460567       3.48063522       0.00000000      -0.01047962      -0.01833427       0.01289289
C       -0.02786089       1.38735407       3.98206549       0.00000000      -0.00085448       0.00753748      -0.00735329
C       -1.27110213       3.54551320       3.95165473       0.00000000       0.01002239      -0.00618820       0.00038989
C       -2.50991757       5.67496273       3.86002394       0.00000000       0.00104523       0.00390744      -0.00563119
C       -3.73424225       7.80575737       3.81669926       0.00000000       0.00090557       0.00286577      -0.00581021
C       -4.97140659       9.93061578       3.87179454       0.00000000       0.00785826       0.00272603      -0.01844213
C        2.43675680       1.35531569       4.06376806       0.00000000      -0.00828432       0.00593985      -0.00132056
B        1.22694243       3.54628569       4.12877744       0.00000000      -0.01968699       0.00122861      -0.01188702
C       -0.13015100       5.63455283       3.41555751       0.00000000      -0.01036687       0.01454400      -0.00198928
C       -1.27067551       7.81358441       3.59922878       0.00000000       0.00905152       0.00663298       0.01022191
C       -2.49329722       9.92987363       3.88586861       0.00000000       0.00351546       0.00367244      -0.01521697
C        4.90210228       1.38482492       4.03363126       0.00000000      -0.00846888       0.01334453      -0.02120332
B        3.64645794       3.54500459       4.20216241       0.00000000      -0.01279276       0.00425509       0.00718556
C        1.17274316       7.90780913       3.14131311       0.00000000      -0.00101803       0.00745407       0.00860159
C       -0.03212061       9.95560109       3.73635609       0.00000000      -0.00897800      -0.01211600      -0.00618260
C        7.36764203       1.40920746       3.94075407       0.00000000       0.00540232      -0.01557385       0.01560849
C        6.14360549       3.54330274       4.01519779       0.00000000      -0.00683095       0.00346858      -0.00132318
C        4.99528853       5.63039912       3.51228587       0.00000000       0.00744360      -0.00282710      -0.00241957
C        3.69363893       7.90993289       3.14598863       0.00000000      -0.01087591      -0.01429750       0.00314688
C        2.43526252       9.99219420       3.60260396       0.00000000      -0.00373737       0.00169713      -0.00283931
C        9.84197830       1.40955388       3.91859544       0.00000000      -0.00263126       0.00054216       0.00547765
C        8.60416396       3.53865683       4.00200322       0.00000000      -0.00221033       0.01130632      -0.00982389
C        7.37742570       5.67687457       3.89049001       0.00000000       0.00468969      -0.00384257      -0.01947746
C        6.13742993       7.81310189       3.61117084       0.00000000      -0.00492961      -0.01372888      -0.00473534
C        4.90511216       9.95530282       3.71174648       0.00000000       0.00205557      -0.00095936      -0.00506947
Y        2.46514050       6.44886929       5.09961733       0.00000000       0.00217000       0.00227239       0.01474202
O        3.98106181       6.79090860       6.08083903       1.00000000       0.02152222      -0.01413107       0.01488166
O        2.42492975       4.20420798       4.53929589       1.00000000      -0.00555933       0.00855676      -0.00446187
