51
Lattice="12.336457 0.0 0.0 -6.168228499999997 10.683685154694365 0.0 0.0 0.0 15.0" Properties=species:S:1:pos:R:3:initial_magmoms:R:1:forces:R:3 energy=-440.64158168237094 free_energy=-440.64158168237094 stress="0.0020409674986777084 9.627544436811766e-05 1.4226937587381235e-06 9.627544436811766e-05 -0.012282247004861508 -7.704722503887654e-07 1.4226937587381235e-06 -7.704722503887654e-07 1.2435551551178988e-05" pbc="T T T"
C       -0.02455428       0.01858643       3.92457028       0.00000000       0.00025251      -0.00441231       0.00557194
C       -1.22580726       2.21155444       3.76256420       0.00000000      -0.00482348       0.00082290      -0.00874829
C       -2.44525518       4.33002855       3.59298460       0.00000000      -0.00320459      -0.00024760      -0.00022583
C       -3.69848242       6.44388733       3.64173022       0.00000000       0.00045068      -0.00156085      -0.00012281
C       -4.97376426       8.54674238       3.81800601       0.00000000       0.00724750      -0.00138412      -0.00388687
C        2.44502538      -0.05295995       3.95479526       0.00000000       0.00304851      -0.00134009       0.00213203
C        1.23744601       2.07117275       3.74250840       0.00000000       0.00239350       0.00110326       0.00340179
C        0.06212208       4.33499787       3.47641445       0.00000000      -0.00776987      -0.00449151      -0.00180767
C       -1.19564556       6.45336610       3.59699681       0.00000000       0.00480990      -0.00293785      -0.00107828
C       -2.47193164       8.55041611       3.84400259       0.00000000      -0.00194097      -0.00190225      -0.00251140
C        4.90566874       0.04071570       3.87883056       0.00000000      -0.00024234      -0.00063828       0.00045364
C        3.62867549       2.05097484       3.58200282       0.00000000       0.00049845       0.00608028       0.00516369
B        1.35234658       6.57015102       3.47235273       0.00000000       0.00470035       0.00035008       0.00926955
C       -0.01522303       8.62651188       3.84888121       0.00000000       0.00057997       0.00106155       0.00382667
C        7.36440378       0.11677528       3.93516720       0.00000000      -0.00018741       0.00193019      -0.00119369
C        6.12695556       2.20349777       3.65796023       0.00000000      -0.00302984       0.00188891      -0.00369867
C        4.94103097       4.34930048       3.30802444       0.00000000      -0.00136891      -0.00082279      -0.00601658
S        3.28217255       6.45096780       2.96692633       0.00000000       0.00154349       0.00146583       0.00169004
C        2.43611248       8.72319064       3.85027017       0.00000000       0.00080023       0.00452469      -0.00656795
C        9.86067789       0.10879506       3.93591992       0.00000000      -0.00158743       0.00127950      -0.00185411
C        8.62349271       2.22484169       3.76271410       0.00000000      -0.00459707      -0.00380991       0.00764775
C        7.38879507       4.32924925       3.55289054       0.00000000       0.00467917      -0.00205100       0.00095220
C        6.13548696       6.46225841       3.50320447       0.00000000      -0.00051888       0.00111660       0.00766410
C        4.89329087       8.60579921       3.74129273       0.00000000       0.00290842      -0.00072516       0.00312097
C       -0.01362548       1.44880803       3.84258113       0.00000000      -0.00163441      -0.00118222      -0.00463083
C       -1.19435418       3.62317928       3.59313683       0.00000000      -0.00286170       0.00012254      -0.00564455
C       -2.44615807       5.74586446       3.59658094       0.00000000       0.00016960       0.00088074      -0.00343416
C       -3.71528960       7.85025242       3.77404109       0.00000000       0.00213858      -0.00481834      -0.00943025
C       -4.97272506       9.95823076       3.93501485       0.00000000       0.00319308      -0.00352736       0.00076440
C        2.43679436       1.35051322       3.81471835       0.00000000       0.00189703       0.00068321      -0.00379965
B        1.35539185       3.50892338       3.45506171       0.00000000      -0.00457630      -0.00350791       0.00567693
C        0.06092029       5.74418214       3.47800946       0.00000000      -0.00457129      -0.00039859      -0.00414354
C       -1.22711435       7.86426391       3.76428845       0.00000000      -0.00132101      -0.00165789       0.00406532
C       -2.47700325       9.96678551       3.92162158       0.00000000       0.00103544      -0.00119431      -0.00200669
C        4.89564842       1.46625958       3.70996005       0.00000000      -0.00094117       0.00300279       0.00508695
S        3.28520213       3.62265056       2.92318010       0.00000000      -0.00034887       0.00298912       0.00515321
C        1.23590986       8.00461108       3.76179041       0.00000000       0.00216541       0.00331123      -0.00055603
C       -0.02493941      10.05728571       3.92104025       0.00000000       0.00078117       0.00449689       0.00405173
C        7.36530620       1.52714219       3.80428544       0.00000000      -0.00558213       0.00022043       0.00467947
C        6.13697243       3.61238853       3.49532645       0.00000000       0.00173822      -0.00129610      -0.01040617
C        4.94109796       5.72593720       3.30442093       0.00000000      -0.00033864       0.00229832       0.00836023
C        3.62685162       8.02028697       3.62235885       0.00000000       0.00421135       0.00258302      -0.00914188
C        2.44574541      10.12690452       3.97555892       0.00000000       0.00115179       0.00560229       0.00102445
C        9.86644229       1.52506138       3.84397941       0.00000000      -0.00367500      -0.00058949      -0.00703956
C        8.63923145       3.63112244       3.63175954       0.00000000       0.00178488      -0.00551700       0.01260013
C        7.38809159       5.74569036       3.55772522       0.00000000       0.00047630       0.00099420       0.00165909
C        6.12380944       7.86907062       3.67731411       0.00000000       0.00395852       0.00363085       0.00316012
C        4.90583355      10.03439677       3.89795720       0.00000000      -0.00184580      -0.00017411       0.00115081
Y        2.57530758       4.88659098       5.51962375       0.00000000      -0.00007814      -0.00764248      -0.01508180
O        1.73646261       4.11445388       7.16207374       1.00000000       0.00013908       0.00076768      -0.01045504
O        2.98448787       3.43755234       6.83605902       1.00000000      -0.00170788       0.00462243       0.01515508
