52
Lattice="12.336457 0.0 0.0 -6.168228499999997 10.683685154694365 0.0 0.0 0.0 15.0" Properties=species:S:1:pos:R:3:forces:R:3 energy=-444.219054102667 free_energy=-444.219054102667 stress="0.0014623977878964732 -8.25412872800628e-05 -5.488994324268007e-06 -8.25412872800628e-05 -0.01252905556575557 -9.278885592151998e-06 -5.488994324268007e-06 -9.278885592151998e-06 -3.8966201469751375e-07" pbc="T T T"
C        0.12622796      -0.04619449       4.01204860       0.00063153      -0.00242312      -0.00821069
C       -1.07529068       2.14684749       3.82307866       0.00977034      -0.00358718       0.00377936
C       -2.28895544       4.26954712       3.66742272      -0.00090582      -0.00071046       0.00406451
C       -3.53992094       6.38560370       3.72623587       0.00302507      -0.00121970      -0.00240254
C       -4.81810784       8.48595321       3.91138039      -0.00161024       0.00340389       0.00226088
C        2.59770507      -0.11338184       4.05225118       0.00040182       0.00073823       0.00899313
C        1.38631599       1.99536958       3.75659914       0.00082570      -0.00288461      -0.00525347
C        0.22134766       4.25732984       3.45388629      -0.00318732       0.00227388      -0.00429510
C       -1.04743980       6.40427990       3.60677212      -0.00157512      -0.00053796      -0.00136878
C       -2.31751065       8.49287211       3.92487339      -0.00334391       0.00330391       0.00444354
C        5.05863611      -0.01733225       4.00283484       0.00396438      -0.00005199      -0.00058306
C        3.78374896       1.99275101       3.70327646      -0.00845312       0.00226513      -0.00033493
B        1.48107361       6.57524226       3.22485807      -0.01014999       0.01068332       0.00848199
C        0.13732832       8.57541267       3.87535920      -0.00471325      -0.00701440       0.00283719
C        7.51795143       0.05762790       4.03378688       0.00221313      -0.00445593       0.00390405
C        6.27806798       2.15094605       3.80386273      -0.00209168      -0.00605211      -0.00084531
C        5.10433205       4.29811170       3.40787672       0.00154811      -0.00772976      -0.00726128
S        3.47044574       6.39493605       2.97304559      -0.00301467       0.00313881       0.00651349
C        2.59082502       8.66538740       3.85063214      -0.00128316      -0.00173399      -0.00573630
C       10.01215636       0.04635236       4.02378080      -0.00442080      -0.00071404      -0.00551793
C        8.77614742       2.16604028       3.87933883       0.00713717       0.00478422       0.00863882
C        7.54782685       4.27183890       3.67233152      -0.00463336      -0.00569651      -0.00187646
C        6.29462672       6.40328343       3.59142546       0.00315355      -0.00219250       0.00019969
C        5.04776157       8.54453504       3.81188221      -0.00108417       0.00936334      -0.00405808
C        0.13439957       1.37861711       3.89609038       0.00562800      -0.00545377      -0.00031145
C       -1.04778905       3.55463652       3.63183805       0.00101430      -0.00147682       0.00942626
C       -2.28859368       5.68805356       3.65785345       0.00165058      -0.00156240      -0.00512000
C       -3.55856415       7.79136989       3.85948953      -0.00225094       0.00187412       0.00320988
C       -4.81938114       9.89621819       4.02953212      -0.00078043       0.00366674      -0.00190985
C        2.58928990       1.28734733       3.88600720      -0.00349617       0.00008430       0.01135877
B        1.48362696       3.38918895       3.31967640       0.00258821       0.00029774      -0.01285100
C        0.22209520       5.70344479       3.42087607      -0.00078533       0.00399626      -0.00044171
C       -1.07242134       7.81076993       3.80052140      -0.00679803      -0.00345838       0.00154507
C       -2.32314237       9.90719322       4.02905772       0.00160362       0.00394451      -0.00311620
C        5.04863497       1.41178894       3.85767270      -0.00630565      -0.00028962      -0.00413522
S        3.47249161       3.56990356       3.07000119       0.00063820       0.00496266       0.00125881
C        1.38804089       7.95348483       3.72347555      -0.00278233       0.00457972      -0.00651927
C        0.12823081       9.99890339       4.01163249       0.00269521      -0.00672290      -0.00263732
C        7.51729134       1.47085667       3.93445392       0.00457347       0.00002205       0.00513165
C        6.29257237       3.55811968       3.63063669      -0.00183138      -0.00923319      -0.00506203
C        5.10572319       5.66682933       3.37184094       0.00525035      -0.00670870       0.00376541
C        3.78260932       7.96468998       3.63844126       0.00172903       0.00362164       0.00460323
C        2.59791177      10.06554613       4.04150222      -0.00141437      -0.00551269      -0.00679324
C       10.01699908       1.46314389       3.93836224       0.00763503      -0.00099753       0.00293717
C        8.79590680       3.57223477       3.74338717      -0.00201118       0.00334442       0.00292837
C        7.54818442       5.68730998       3.65677595       0.00438047      -0.00503556       0.00729112
C        6.27944186       7.80939694       3.76333752      -0.00063245       0.00445109      -0.00669813
C        5.05710461       9.97015756       3.98418000      -0.00307784       0.00475852       0.00287878
Y        1.90611992       5.04948819       5.08640406       0.01145723       0.00677593      -0.00634737
O        0.75607058       5.07361071       6.70405698       0.00461040       0.01004716      -0.00597476
O       -0.28970735       5.11469226       7.62206887      -0.00167605      -0.00218777      -0.00477153
H        0.16922633       5.11720759       8.48646299      -0.00381612      -0.00073799       0.00998183
