51
Lattice="12.336457 0.0 0.0 -6.168228499999997 10.683685154694365 0.0 0.0 0.0 15.0" Properties=species:S:1:pos:R:3:initial_magmoms:R:1:forces:R:3 energy=-450.80473886769937 free_energy=-450.80473886769937 stress="-0.0033429863437437024 0.0005374911590985052 -1.7545133426229018e-05 0.0005374911590985052 0.0033035420142163625 2.2193608353325732e-05 -1.7545133426229018e-05 2.2193608353325732e-05 -3.0019563068208424e-05" pbc="T T T"
C        0.05611376       0.01291212       3.62174931       0.00000000      -0.00817724      -0.00281104       0.00313092
C       -1.19072103       2.13260305       3.54884391       0.00000000      -0.00164684       0.00070878      -0.00038115
C       -2.42057588       4.27277825       3.48957879       0.00000000      -0.00082685      -0.00488707       0.01054039
C       -3.65033667       6.41643650       3.52936347       0.00000000       0.00062813       0.00083344      -0.00828683
C       -4.87379113       8.56750250       3.59658110       0.00000000       0.00372230       0.00298665       0.01381572
C        2.52168747       0.05207393       3.68324125       0.00000000       0.00248730       0.00450050       0.00047475
C        1.25871767       2.19977836       3.73393587       0.00000000      -0.00559512      -0.00145908      -0.00165474
C        0.03152525       4.26654326       3.64899714       0.00000000      -0.00143630      -0.00437643      -0.00437805
C       -1.19884069       6.41511749       3.55944244       0.00000000       0.00124730      -0.00105040      -0.00051855
C       -2.41728026       8.56068381       3.59416257       0.00000000       0.00314730       0.00306479      -0.00396462
C        4.98244094       0.00415991       3.68802224       0.00000000       0.00129020       0.00034244       0.01541867
C        3.78868644       2.12578659       3.89752556       0.00000000      -0.00143332       0.00280293      -0.00537945
O        1.16029142       6.43594351       3.94579349       0.00000000       0.00481750      -0.00557056      -0.00471803
C        0.04093572       8.53485088       3.69973551       0.00000000       0.00041813       0.00189222      -0.00827229
C        7.45651418      -0.02688735       3.66945377       0.00000000      -0.00295894      -0.00596383       0.01028111
C        6.23347919       2.12484321       3.70331842       0.00000000      -0.00114122       0.00122493       0.00073963
C        5.05125785       4.24727840       3.93414391       0.00000000       0.00110133      -0.00062903       0.00169313
C        3.86662893       6.43567460       4.10681096       0.00000000       0.00555830       0.00633269       0.00050946
C        2.49333742       8.49379815       3.82084854       0.00000000       0.00029782      -0.00438072       0.00839858
C        9.91346180      -0.02521278       3.63609937       0.00000000      -0.00732882      -0.00283105       0.00064636
C        8.68566860       2.12368425       3.56764486       0.00000000      -0.00453342       0.00054046      -0.00178459
C        7.46070054       4.27167643       3.59725946       0.00000000      -0.00001042       0.00946265       0.00547687
C        6.24575369       6.41434909       3.68493425       0.00000000       0.00128665       0.00150274       0.00417736
C        4.99665688       8.54230269       3.70929975       0.00000000       0.00906929      -0.00339862       0.00675436
C        0.04966097       1.43946124       3.61600426       0.00000000      -0.00566258      -0.00388635      -0.00420757
C       -1.19974545       3.55538064       3.51783387       0.00000000      -0.00062424      -0.00324521       0.00962909
C       -2.42807326       5.69534312       3.50147969       0.00000000       0.00005631      -0.00245742      -0.00785107
C       -3.65117561       7.84668342       3.56250600       0.00000000       0.00311055       0.00029381      -0.00944929
C       -4.87368399       9.99959728       3.62831967       0.00000000      -0.00074060       0.00447400       0.00379103
C        2.53207282       1.49251396       3.79260404       0.00000000      -0.00234715       0.00455606      -0.00931509
N        1.20095510       3.55807344       3.80166841       0.00000000      -0.00609412      -0.00549745       0.00189445
C       -0.01405698       5.70064983       3.69258276       0.00000000      -0.00077770       0.00243570       0.00826234
C       -1.19857927       7.84423972       3.60764506       0.00000000       0.00268004       0.00102019      -0.00111679
C       -2.42341183       9.99972660       3.65904583       0.00000000       0.00313863       0.00458791      -0.00756847
C        4.99088654       1.43229838       3.75645663       0.00000000      -0.00084669       0.00358037       0.00157029
O        3.88130538       3.50477019       4.14568275       0.00000000       0.00104500      -0.00190976      -0.00064125
C        1.24612342       7.83486393       3.83587420       0.00000000       0.00153934      -0.00306499      -0.00106988
C        0.05215790       9.96377770       3.68248274       0.00000000      -0.00190514       0.00120635      -0.00084816
C        7.45155094       1.41071316       3.63476173       0.00000000      -0.00360749      -0.00522397      -0.00251799
C        6.23562013       3.54685487       3.72660559       0.00000000      -0.00008624       0.00330277      -0.00819733
C        5.00572816       5.68983263       3.90339370       0.00000000       0.00305888       0.00408573      -0.00433562
C        3.77062773       7.78125718       3.87684564       0.00000000       0.00894130       0.00549742       0.00440922
C        2.51090783       9.92698838       3.69695873       0.00000000      -0.00370630      -0.00493844       0.00794880
C        9.91508595       1.40444829       3.56887126       0.00000000      -0.00258703       0.00194109      -0.01770531
C        8.68197266       3.55342954       3.52806780       0.00000000      -0.00287365       0.00282659       0.01217370
C        7.45535638       5.69840842       3.58627054       0.00000000      -0.00221251       0.00760685      -0.00923329
C        6.23280573       7.83884938       3.64821187       0.00000000       0.00583578      -0.00168088       0.00184928
C        4.98850722       9.96237587       3.64371811       0.00000000      -0.00774002      -0.00396493       0.00190316
Y        2.39361454       4.96231375       5.25456902       0.00000000      -0.00227451      -0.00462984      -0.09047504
O        1.80358617       5.20491399       7.34010090       1.00000000      -0.01919707      -0.03087540      -0.04382432
O        0.75102526       4.60000426       6.65665628       1.00000000       0.03389415       0.02512243       0.12220612
