52
Lattice="12.336457 0.0 0.0 -6.168228499999997 10.683685154694365 0.0 0.0 0.0 15.0" Properties=species:S:1:pos:R:3:forces:R:3 energy=-454.80017781477807 free_energy=-454.80017781477807 stress="-0.0048281978894001015 0.0006340849071974237 2.642701766805869e-05 0.0006340849071974237 0.0018515828460786052 6.707088629156604e-06 2.642701766805869e-05 6.707088629156604e-06 2.5558841955426126e-05" pbc="T T T"
C       -0.00019074       0.00680956       3.66439721      -0.00310133      -0.00582492      -0.00158095
C       -1.24549575       2.12948060       3.64472097       0.00368717      -0.00131072       0.00800666
C       -2.47271200       4.26868296       3.58441093       0.00618034       0.00202398      -0.00846668
C       -3.70068180       6.41241097       3.55952981      -0.00163393       0.00558128       0.00020939
C       -4.92804370       8.56329663       3.60786645       0.00244150      -0.00411225      -0.00143923
C        2.46560449       0.04429720       3.71043198      -0.00426217       0.00142582      -0.00144468
C        1.19851680       2.18425738       3.83263827      -0.00582267       0.00021987       0.00823331
C       -0.03530870       4.26164398       3.83115171      -0.00070545      -0.00254175       0.00260080
C       -1.25427934       6.41144918       3.68503219       0.00277713      -0.00145950       0.00046252
C       -2.47139433       8.55577275       3.64332535       0.00273521       0.00011292       0.00038086
C        4.92771431      -0.00109791       3.70235746       0.00302337      -0.00163932      -0.00983231
C        3.73337195       2.11806607       3.85469100       0.00574227      -0.00175126       0.00618516
O        1.08779875       6.45251441       4.12909974      -0.00394824      -0.00096194       0.00950019
C       -0.01577825       8.53255329       3.76031154      -0.00476393       0.00997795      -0.00583601
C        7.40126983      -0.03011428       3.68803315       0.00251974      -0.00513040       0.00529227
C        6.17988403       2.11881579       3.65663731      -0.00360145       0.00223296      -0.00195344
C        4.99933387       4.24417521       3.78805292      -0.00394226       0.00319243       0.00503200
C        3.78971741       6.40984841       3.90516037       0.00133898       0.00537709       0.00208031
C        2.43634890       8.49207019       3.82631046       0.00048656       0.00511788      -0.00667100
C        9.85809224      -0.02844441       3.66644905      -0.00067290      -0.00325738      -0.00412869
C        8.63268663       2.11945818       3.59691225      -0.00594063      -0.00899139      -0.00221854
C        7.41220218       4.26753675       3.56759411      -0.00009116      -0.00023937      -0.00367121
C        6.19501593       6.41208115       3.60670108       0.00171674      -0.00232540      -0.00600322
C        4.93958551       8.53706072       3.67776313       0.00724903       0.00368129       0.00544141
C       -0.00749095       1.43359796       3.69745848      -0.00071254      -0.00539203       0.00088665
C       -1.25561253       3.55028626       3.65426128       0.00562684      -0.00145670      -0.00142877
C       -2.47960679       5.69018297       3.58842988      -0.00053514       0.00751739       0.00206840
C       -3.70485102       7.84256508       3.59284102       0.00259374       0.00212200      -0.00136962
C       -4.92945325       9.99404937       3.65904674      -0.00532164      -0.00413750      -0.00249247
C        2.47478892       1.48586740       3.81481669      -0.00073001       0.00543089       0.00456159
N        1.13014476       3.54007433       3.99142087      -0.00559480      -0.00186218      -0.00085716
C       -0.07983039       5.69885511       3.87218318      -0.00097190      -0.00503268       0.00477443
C       -1.25365138       7.83993262       3.69068479       0.00083633      -0.00145134      -0.00274262
C       -2.47865714       9.99464493       3.68570136      -0.00008714       0.00106003       0.00879624
C        4.93639181       1.42757867       3.72531894       0.00334779      -0.00121070      -0.00339552
O        3.82577510       3.51000233       4.02874123       0.00344735       0.00131255      -0.00230978
C        1.18829664       7.83888268       3.90237621      -0.00503493       0.01034864       0.01102613
C       -0.00335983       9.96034394       3.71054103       0.00273150       0.00793293      -0.00023867
C        7.39850766       1.40560784       3.63165203      -0.00883785      -0.00781101       0.01232708
C        6.18557273       3.53986080       3.63459067      -0.00152297       0.00012046       0.00452846
C        4.95124631       5.68164854       3.74912648       0.00035676       0.00044165       0.00298373
C        3.71088304       7.77709415       3.79916855       0.00666004       0.00892020       0.00124212
C        2.45539136       9.92578212       3.71768487       0.00199556       0.00131024       0.00324375
C        9.86142599       1.40155198       3.62202261       0.00225445      -0.00675557      -0.00079067
C        8.63191526       3.54880672       3.56439236       0.00281855      -0.00230054      -0.01313123
C        7.40590740       5.69433189       3.55901551       0.00298425       0.00283075      -0.00598755
C        6.17788976       7.83593849       3.61465906       0.00537367      -0.00277862       0.00499408
C        4.93246681       9.95821957       3.66334065       0.00028045       0.00009995      -0.00328795
Y        2.51549637       4.98340874       5.15686995      -0.00491568      -0.00506774      -0.01632834
O        2.72294669       5.01148617       7.15109196      -0.00142863      -0.00370074       0.00119994
O        2.41750857       4.98382857       8.52183355      -0.00276080      -0.00174489      -0.00305245
H        3.30307104       5.00133450       8.93791400      -0.00426516       0.00185671      -0.00539870
