52
Lattice="12.336457 0.0 0.0 -6.168228499999997 10.683685154694365 0.0 0.0 0.0 15.0" Properties=species:S:1:pos:R:3:forces:R:3 energy=-454.90297440894994 free_energy=-454.90297440894994 stress="-0.004465243372285141 -0.0005994484793726419 2.6550964766679386e-05 -0.0005994484793726419 0.001566965375652028 -1.7017711966796977e-05 2.6550964766679386e-05 -1.7017711966796977e-05 3.573726842364134e-06" pbc="T T T"
C        0.00319351      -0.00162390       3.65753947       0.00567676       0.00364236       0.00050873
C       -1.24934647       2.12067334       3.63447367      -0.00528495      -0.00496839       0.01115639
C       -2.47909047       4.26872666       3.56495251      -0.00178678      -0.00257139       0.01545436
C       -3.70209326       6.41434266       3.54645670       0.00164304      -0.00495691      -0.01174277
C       -4.92774747       8.55848871       3.60408386       0.00565363       0.00049303      -0.00044979
C        2.46765467       0.03963312       3.66231015       0.00181760      -0.00686084       0.01320459
C        1.19180528       2.11976310       3.79507367       0.00733929      -0.00497576      -0.00055743
C       -0.06503501       4.24391771       3.79417671      -0.00919158       0.00229277       0.00591813
C       -1.26067678       6.41068702       3.61935366      -0.00668120       0.00668777       0.00936862
C       -2.47491325       8.55958813       3.58931814       0.00129072      -0.00067330       0.00981366
C        4.93159224       0.00021411       3.67100446      -0.00881232       0.00223511      -0.00346066
C        3.73601024       2.12873880       3.81425515      -0.00267177      -0.00082264       0.01011271
C        1.13231138       6.41744297       4.00840523      -0.00498425      -0.00075449       0.00440771
C       -0.01179313       8.53702021       3.71581995       0.00353411      -0.00467060       0.00413691
C        7.40655658      -0.02754455       3.70078412      -0.00410027       0.00989882       0.00775422
C        6.17746504       2.12634258       3.68376495       0.00123573       0.00292154      -0.00557230
C        5.00065940       4.27127263       3.86383840       0.00720298       0.00137360      -0.01017904
N        3.81980877       6.43989648       4.09077778      -0.00436076      -0.00994979      -0.00740021
C        2.48401895       8.50235649       3.86319016       0.00063112      -0.00267029       0.00376971
C        9.86666062      -0.02749871       3.69473898       0.00277841       0.00700363      -0.00452797
C        8.63305762       2.12060777       3.61652617       0.00093625       0.00762279       0.00025312
C        7.40621635       4.27333507       3.60144952       0.01107830      -0.00086666       0.00183169
C        6.18933560       6.41530457       3.67108988      -0.00044160       0.00167208      -0.00487395
C        4.95273916       8.53613254       3.73909250      -0.00319789      -0.00521755      -0.00432751
C       -0.00291694       1.42881208       3.67694836       0.00588384       0.00424791       0.00541373
C       -1.25236935       3.54108200       3.62834122      -0.00622992      -0.00369674       0.00964507
C       -2.47380395       5.69524313       3.55458589      -0.00026589      -0.00599172       0.00027390
C       -3.69991411       7.84300072       3.56419757       0.00585600      -0.00342169       0.00064103
C       -4.92527224       9.99404791       3.63680711       0.00503443      -0.00092891      -0.00002188
C        2.46622592       1.49218162       3.76493231       0.00513540      -0.01199374       0.00261377
O        1.11221426       3.50708745       3.97969161      -0.00002581      -0.00240901      -0.01317150
C       -0.02014333       5.68189888       3.79197230      -0.00394925       0.00935392      -0.00223228
C       -1.24509288       7.83477605       3.62644776       0.00190129       0.00575656       0.00139877
C       -2.47507848       9.99338579       3.63561033      -0.00336748      -0.00417666       0.00183510
C        4.93289485       1.43362549       3.71441515      -0.00346118       0.00200990      -0.00626723
O        3.80892640       3.52380164       3.98288981      -0.00330031      -0.00196543      -0.00434654
C        1.22130374       7.78494906       3.86772761       0.00394997      -0.00411006      -0.00760550
C       -0.00167575       9.95672047       3.69179602      -0.00633000      -0.00289354      -0.00215178
C        7.39768489       1.40513816       3.65763080       0.00341312       0.00982246      -0.00742619
C        6.17837322       3.55368975       3.69392064       0.00699498       0.00661867      -0.00006245
C        4.97123969       5.70965129       3.86544067      -0.00093031       0.00197114      -0.00581583
C        3.74215969       7.79317675       3.90419207      -0.00535436      -0.01208029      -0.00500813
C        2.47324850       9.92613919       3.74762518       0.00051371       0.00351696       0.00072536
C        9.86789486       1.40437658       3.63423757      -0.00773903       0.00885959      -0.00028626
C        8.63231582       3.55152510       3.57358025       0.00594636      -0.00165036       0.00131508
C        7.40576280       5.69538730       3.58602738      -0.00139320      -0.00494718      -0.00508017
C        6.18144773       7.83699978       3.66235243       0.00140502       0.00032334      -0.00666205
C        4.93613423       9.95737644       3.69177766       0.00207751       0.00042303      -0.00674870
Y        2.45109562       4.93339651       5.16282378       0.00578941       0.00779803       0.00788037
O        2.52803885       5.01044011       7.15516377       0.00006892      -0.00787074      -0.00625028
O        2.26992667       5.03920299       8.52882348      -0.00500672       0.00906999      -0.00248607
H        3.16572791       4.98795697       8.91932159      -0.00592107       0.00247969       0.00528172
