51
Lattice="12.336457 0.0 0.0 -6.168228499999997 10.683685154694365 0.0 0.0 0.0 15.0" Properties=species:S:1:pos:R:3:initial_magmoms:R:1:forces:R:3 energy=-450.4233064238192 free_energy=-450.4233064238192 stress="-0.0028727531717158672 0.0006396056266270088 -2.2202786160618072e-05 0.0006396056266270088 0.004489719082594225 -2.075178022193695e-05 -2.2202786160618072e-05 -2.075178022193695e-05 -0.0001305439610310619" pbc="T T T"
C        0.09190574       0.06878671       3.68043075       0.00000000      -0.01727235      -0.01781087      -0.00280483
C       -1.15586175       2.18753663       3.54522935       0.00000000       0.01085840      -0.00984950      -0.00058301
C       -2.38921440       4.32904530       3.48904471       0.00000000      -0.03282432       0.00095517       0.00121995
C       -3.61754787       6.47172107       3.60317912       0.00000000       0.02194834       0.01163112      -0.00051477
C       -4.83776864       8.62356479       3.69553369       0.00000000       0.00391331      -0.00009389       0.01695257
C        2.55604044       0.10728792       3.70561197       0.00000000      -0.01251006      -0.00096597       0.02108293
C        1.29762679       2.20655358       3.67295202       0.00000000       0.01495955      -0.00306535       0.01569216
C        0.03331744       4.33806177       3.48180399       0.00000000      -0.00532720      -0.00233327      -0.02537688
C       -1.16882790       6.47482501       3.50761262       0.00000000      -0.01166175      -0.02199861      -0.00097007
C       -2.38221367       8.61769471       3.63125722       0.00000000       0.01747162       0.01616327       0.00315421
C        5.01964924       0.06731547       3.72214984       0.00000000       0.01401306      -0.01037332      -0.01115310
C        3.82103615       2.23695159       3.89696119       0.00000000      -0.01137514      -0.00190596       0.02410113
O        1.21505473       6.47475332       3.85232250       0.00000000       0.00530813       0.03434466      -0.01387382
C        0.08019902       8.58948429       3.70992994       0.00000000      -0.00498848      -0.03248467       0.02147606
C        7.49306557       0.02891997       3.72689796       0.00000000       0.02165593      -0.00729823       0.01378490
C        6.27061109       2.18515898       3.76085074       0.00000000      -0.00995681      -0.00328121       0.00200170
C        5.05160542       4.28189963       4.02391375       0.00000000      -0.00025520       0.00010270      -0.01980717
C        3.89733096       6.48256434       4.22322316       0.00000000      -0.01257406       0.00154788       0.02101333
C        2.52895800       8.54816068       3.89451225       0.00000000       0.01124327      -0.00479782       0.00509320
C        9.95179300       0.02934684       3.71558310       0.00000000      -0.01207407       0.01007345       0.00996914
C        8.72430622       2.17729532       3.62193336       0.00000000       0.01219986       0.02625837       0.01692051
C        7.49711138       4.32343456       3.69431393       0.00000000      -0.00630657       0.00321733       0.02025566
C        6.28694157       6.47323443       3.83233126       0.00000000       0.00827580      -0.01067873       0.01152003
C        5.03459910       8.59663965       3.84362340       0.00000000      -0.01498714       0.00442445       0.02011119
C        0.08956847       1.50092386       3.61751663       0.00000000       0.01849015      -0.02001898      -0.00815573
C       -1.16265026       3.61074721       3.44955086       0.00000000      -0.02511148       0.00252782       0.02665291
C       -2.39384207       5.75233797       3.50873873       0.00000000      -0.00955950      -0.00489088       0.00154258
C       -3.61625536       7.90274285       3.63431550       0.00000000       0.02240018       0.01552918      -0.00324101
C       -4.83872294      10.05751397       3.69028928       0.00000000      -0.01073921      -0.00695885       0.00782499
C        2.54520817       1.55376864       3.76486317       0.00000000      -0.00439691      -0.00786682      -0.00440957
O        1.24750315       3.61091075       3.62336548       0.00000000       0.00480360       0.00083508       0.01790315
C        0.02186218       5.74770289       3.53879181       0.00000000       0.00377941       0.01591899       0.02139230
C       -1.16211171       7.89836335       3.61122933       0.00000000      -0.00445518      -0.02499629      -0.04602851
C       -2.38807986      10.05513864       3.69091419       0.00000000       0.00275625       0.01883184      -0.00283054
C        5.02863293       1.49401276       3.78269695       0.00000000      -0.01238612      -0.00179050      -0.00035262
N        3.88938521       3.58096912       4.15454895       0.00000000       0.00249607       0.00103580      -0.01047617
C        1.28589529       7.88616862       3.83885841       0.00000000       0.01044743       0.00375785       0.00277482
C        0.08793521      10.02040685       3.72234732       0.00000000       0.02023996      -0.02738818      -0.01150408
C        7.49677508       1.46264638       3.69366728       0.00000000       0.01522448       0.01264230       0.00741374
C        6.27927089       3.59958227       3.81434513       0.00000000      -0.00708113      -0.00273322      -0.01467668
C        5.04568632       5.75618470       4.03927585       0.00000000      -0.00247121       0.00317684       0.01921102
C        3.80558075       7.84150933       4.00132775       0.00000000      -0.00276383      -0.00499788      -0.03904165
C        2.54831150       9.98329079       3.77506662       0.00000000       0.01407699      -0.01230996      -0.01116590
C        9.96148511       1.46254710       3.61573746       0.00000000       0.00836749       0.01056777      -0.03935542
C        8.72105770       3.60741900       3.58646630       0.00000000      -0.01988330       0.01686895      -0.00279442
C        7.49549909       5.75497996       3.70542729       0.00000000       0.01797234      -0.00005746      -0.03899883
C        6.27193823       7.89806031       3.78862896       0.00000000      -0.01015781      -0.00307595      -0.01659185
C        5.02720342      10.01723455       3.74236911       0.00000000      -0.02966762       0.00731444      -0.00740497
Y        2.29868756       4.96949179       5.13826705       0.00000000      -0.04409650      -0.00945478      -0.20450839
O        0.10858291       3.00311462       6.14394751       1.00000000       0.15374106       0.19644476      -0.01186372
O        0.79033793       4.09853414       6.35404332       1.00000000      -0.10175973      -0.16069291       0.21941953
