52
Lattice="12.336457 0.0 0.0 -6.168228499999997 10.683685154694365 0.0 0.0 0.0 15.0" Properties=species:S:1:pos:R:3:forces:R:3 energy=-452.65787882369864 free_energy=-452.65787882369864 stress="-0.0037201261698823866 0.0009850858974445047 -4.6532868012951705e-06 0.0009850858974445047 -0.002854525155347362 -3.9449741602766624e-05 -4.6532868012951705e-06 -3.9449741602766624e-05 -3.5998724275969864e-05" pbc="T T T"
C       -0.00018120      -0.01102294       3.63731359      -0.00034493      -0.00347955      -0.00484230
C       -1.23415662       2.12175556       3.51858092      -0.00154073       0.00441659      -0.00424096
C       -2.48373830       4.25579138       3.62217308       0.00416273      -0.00869467      -0.00610798
C       -3.72307703       6.39145995       3.71172310       0.00597414       0.00995777       0.00106115
C       -4.94799184       8.52838012       3.73459635      -0.00266831      -0.01142030       0.00442172
C        2.46601882      -0.03077573       3.70620112      -0.00276507      -0.00643823       0.00424003
C        1.26209958       2.07163610       3.37290645      -0.00463520      -0.00782147      -0.00662629
C       -0.03129890       4.29668108       3.46692368       0.01615961      -0.00241985       0.00724245
C       -1.28640607       6.41745275       3.71921967       0.00143679      -0.00303567       0.00477907
C       -2.48354776       8.53586900       3.78345371      -0.00233518       0.00516541       0.00661496
C        4.93607578      -0.01844392       3.79943122       0.00338739      -0.00681234       0.00835622
C        3.70851339       2.12493739       3.67324666       0.00194379       0.00657018       0.00262154
C        1.15290767       6.41711999       3.81909170      -0.00739847      -0.00159637       0.00046027
C       -0.00970791       8.53002736       3.85006162      -0.00424637       0.00307644      -0.00368558
C        7.40895399      -0.02513275       3.80753661      -0.00050269       0.01604126      -0.00703627
C        6.16862077       2.12038991       3.75147710      -0.00383208       0.00160492      -0.00242026
C        4.89020566       4.27081811       3.72727770      -0.00238811      -0.00124030      -0.00442267
O        3.81549370       6.45850196       4.13597353       0.00504288       0.00031184      -0.00294343
C        2.49474631       8.50962437       3.91214264       0.00100677      -0.00492509       0.01297457
C        9.86971473      -0.02044638       3.72693795      -0.00459861      -0.00272285      -0.00237288
C        8.63475511       2.11667405       3.67888938       0.00518188      -0.00901527       0.01202088
C        7.37937365       4.25252197       3.69677618       0.00619777       0.00548809      -0.00318134
C        6.16163865       6.39892415       3.73647114      -0.01182414      -0.00526971      -0.00591734
C        4.93900692       8.53361280       3.80798451       0.01086633       0.00827610      -0.00365116
C        0.00435258       1.41074276       3.49232957      -0.00592117      -0.00441653      -0.00017776
C       -1.24150571       3.54925656       3.51387834       0.01136772       0.00211484       0.00289185
C       -2.49453612       5.68377835       3.68145435       0.00197805      -0.00448375       0.00717127
C       -3.71350084       7.81735322       3.74467865       0.00291899       0.00519269       0.00538562
C       -4.94043922       9.95371520       3.69689961      -0.00176442      -0.01349433      -0.00140951
C        2.47673648       1.37836131       3.59541595       0.00082766      -0.00263891      -0.01071254
P        1.49990659       3.70352245       2.76611178      -0.01057209       0.00159673      -0.00492542
C       -0.04287088       5.72976941       3.66825730       0.00145647      -0.00282680      -0.00845488
C       -1.25373049       7.82869951       3.79917611      -0.00482859       0.00297581       0.00126194
C       -2.47002378       9.95132839       3.78026834      -0.00024460      -0.00007925       0.00900347
C        4.94418389       1.40207429       3.76021369      -0.00023494      -0.00544323      -0.00353152
C        3.67551101       3.52391633       3.66427412      -0.00842333       0.01109195       0.00185128
C        1.22693427       7.78705780       3.88201158      -0.00584256      -0.00404427      -0.01751061
C        0.00021006       9.94822666       3.83637371       0.00654645       0.00447563      -0.01807384
C        7.40644976       1.40011179       3.75093101      -0.00164283       0.01018749       0.00236890
C        6.15023037       3.54626219       3.71894760       0.00212412       0.00258907      -0.01421360
C        4.96557128       5.70240923       3.81995208      -0.00838334      -0.00769569       0.00185833
C        3.73453183       7.85275051       3.95072893       0.01239528       0.00592114       0.00761351
C        2.47845205       9.93905542       3.81819388      -0.00683063       0.00114413       0.00897820
C        9.87290178       1.40966594       3.63658598       0.00308232      -0.00306208       0.00580474
C        8.62575122       3.54342764       3.66092912       0.00463788      -0.01158441       0.00711881
C        7.38917229       5.67327892       3.70189146      -0.00002738       0.01143225       0.00404429
C        6.16723567       7.82216680       3.75787725      -0.00257322      -0.00807224       0.00111920
C        4.93406489       9.96190290       3.72367773      -0.00060609       0.00616984      -0.00588588
Y        2.41881173       4.97952016       5.10727538      -0.00130165      -0.00037140      -0.00347212
O        2.42967639       5.05073055       7.10849878      -0.00284711       0.00770244       0.00094591
O        2.03362434       5.08498190       8.45438260       0.00024402       0.00654234       0.00807184
H        2.88792119       5.03143668       8.92780239       0.00218478       0.00305961       0.00553412
