52
Lattice="12.336457 0.0 0.0 -6.168228499999997 10.683685154694365 0.0 0.0 0.0 15.0" Properties=species:S:1:pos:R:3:forces:R:3 energy=-452.4675265589789 free_energy=-452.4675265589789 stress="-0.0050510242780026655 0.0019344500826995144 8.67381817520587e-06 0.0019344500826995144 -0.001492763778030157 5.529564267921889e-06 8.67381817520587e-06 5.529564267921889e-06 -8.826965618953322e-06" pbc="T T T"
C       -0.02045817       0.03571787       3.76861273       0.00232020       0.00146666      -0.00150325
C       -1.24967437       2.16643834       3.86651708       0.00053258       0.00564758      -0.00408102
C       -2.47162376       4.30197365       3.82051069       0.00775991       0.00416407      -0.00177220
C       -3.71633023       6.43913841       3.69833016       0.00707039      -0.00125718       0.00296258
C       -4.95619246       8.58315410       3.64892431      -0.00612720       0.00027954      -0.00120247
C        2.44386209       0.04629251       3.77865793       0.00336198       0.00758531      -0.00008373
C        1.21452528       2.21134493       3.92627884      -0.00498524      -0.00294462       0.00633451
C        0.00009407       4.31815942       4.02236871       0.00235534       0.00095272       0.00478571
C       -1.26512794       6.45363859       3.89426721      -0.00237462       0.00117352       0.00727889
C       -2.49108826       8.58473938       3.78131467      -0.00035087      -0.00434569      -0.00711030
C        4.91625631       0.03633537       3.78121841      -0.00278349       0.00108594      -0.00405848
C        3.69271132       2.17851620       3.70963341      -0.00096039       0.00144451       0.00344066
O        1.10509213       6.51906612       4.15983074      -0.00670066      -0.00008169       0.00145111
C       -0.03587066       8.57814975       3.84338762       0.00547815       0.00300112      -0.00174770
C        7.38837880       0.01533539       3.80973559      -0.00187597      -0.00557226      -0.00126304
C        6.17375378       2.14841085       3.70128901      -0.00475547      -0.00109799      -0.00710301
C        4.95788534       4.24427635       3.45876139       0.00451026      -0.00485331      -0.00645288
P        3.59763138       6.39554242       2.45947443      -0.00980345       0.00477276      -0.00469623
C        2.41823324       8.55246126       3.71525782       0.00657797       0.00227770       0.00701803
C        9.84893486       0.01630104       3.77835460       0.00151171      -0.00631929      -0.00337404
C        8.62977303       2.15659950       3.78637312      -0.00137256      -0.00249089      -0.00249862
C        7.41154458       4.29178501       3.63252999       0.00295381       0.00237948       0.00503363
C        6.18205062       6.44261524       3.43082474       0.00481159      -0.00176394      -0.00609886
C        4.91092325       8.57383261       3.53035105      -0.00664267       0.00146577      -0.00685548
C       -0.02276885       1.45808302       3.86286114      -0.00289948       0.00184508       0.00037489
C       -1.25104521       3.59183875       3.90400342       0.00534341       0.00528044       0.00402311
C       -2.48875561       5.72533772       3.80542455       0.00454475       0.00181936       0.00221304
C       -3.72501690       7.86910541       3.70715857      -0.00447821      -0.00321764       0.00570134
C       -4.95558351      10.00742505       3.73617683       0.00194452       0.00440069       0.00309687
C        2.44826576       1.46492282       3.81801746      -0.00112228       0.00650916       0.00357331
C        1.19235178       3.59498030       4.08932932      -0.00480237      -0.00653419      -0.00289694
C       -0.07421049       5.75570779       4.04155602      -0.00489818      -0.00058660       0.00538361
C       -1.27144931       7.87576255       3.84659350       0.00371391      -0.00108277      -0.00226059
C       -2.49153532      10.01268978       3.77717204       0.00003967      -0.00027510      -0.00072536
C        4.93282925       1.45023214       3.72634316      -0.00470684       0.00129891      -0.00298600
C        3.74955308       3.56111161       3.59899548       0.00762747      -0.00417413      -0.00575813
C        1.17075739       7.89355746       3.86703770       0.00614556       0.00435815       0.00135187
C       -0.01950853      10.00417587       3.80892102      -0.00208194       0.00236336       0.00180879
C        7.40124091       1.43885487       3.77250069      -0.00639791      -0.00468496       0.00264533
C        6.20061804       3.55877812       3.58586583       0.00274816      -0.00221897      -0.00376580
C        4.98051906       5.69385709       3.26901328      -0.00073919      -0.00179011       0.00251225
C        3.65915170       7.88179626       3.40959382      -0.00361832      -0.00346637       0.00018803
C        2.44255156       9.98139634       3.78905525       0.00111507      -0.00196468      -0.00072560
C        9.85388326       1.44194015       3.82005142       0.00202679      -0.00497246      -0.00011455
C        8.63491700       3.58354660       3.74893570       0.00494724       0.00354855      -0.00107209
C        7.40151399       5.72371396       3.58720445       0.00971284       0.00227350       0.00373690
C        6.15390660       7.86620938       3.50789498      -0.00730691       0.00131719      -0.00834539
C        4.91568065       9.99518448       3.70611804       0.00298983      -0.00294594       0.00510384
Y        2.77979228       5.15743698       4.90466632      -0.00445200      -0.00178747       0.00657553
O        3.05995819       4.70800598       6.81533073      -0.00461138      -0.00315590       0.01129044
O        3.02841102       4.29852863       8.15529209      -0.00125146       0.00240311      -0.00965341
H        3.84686850       4.69109589       8.52025835      -0.00004405      -0.00153003       0.00032092
