51
Lattice="12.336457 0.0 0.0 -6.168228499999997 10.683685154694365 0.0 0.0 0.0 15.0" Properties=species:S:1:pos:R:3:initial_magmoms:R:1:forces:R:3 energy=-448.7724506916498 free_energy=-448.7724506916498 stress="0.001279868848218339 -0.003235535121101209 -5.650468949659474e-06 -0.003235535121101209 -0.002769761869316842 2.7800079934000145e-05 -5.650468949659474e-06 2.7800079934000145e-05 -4.4512454043999044e-05" pbc="T T T"
C        0.02717756      -0.08269473       3.72332450       0.00000000      -0.00741056      -0.00147385       0.00283852
C       -1.20820727       2.05847622       3.64963485       0.00000000      -0.00912476       0.00314224      -0.01459334
C       -2.41764503       4.18593417       3.60007146       0.00000000      -0.00125187      -0.00128480       0.00157484
C       -3.65136136       6.32498177       3.65500647       0.00000000      -0.00736865       0.00781674       0.00815152
C       -4.89632827       8.46243201       3.74132413       0.00000000       0.00415074      -0.00174514      -0.00594536
C        2.49636322      -0.11670840       3.59995925       0.00000000      -0.00462163      -0.01153522       0.00968209
C        1.25469947       2.02434840       3.56938596       0.00000000       0.00554002       0.00569865       0.00752487
C        0.10375096       4.16951659       3.56117911       0.00000000       0.00482848       0.00015490       0.01060573
C       -1.19438193       6.32861103       3.57685964       0.00000000      -0.01203186      -0.00426587       0.02612156
C       -2.42683942       8.45836662       3.61231830       0.00000000      -0.00004789      -0.00964588      -0.00714453
C        4.96002610      -0.07340912       3.55004419       0.00000000       0.00064861      -0.00581865       0.00278581
C        3.67092284       2.01914164       3.34826762       0.00000000       0.00821274       0.00003838       0.01313253
C        1.18688688       6.36368005       3.94686919       0.00000000       0.00350977       0.00310416      -0.01603675
C        0.03591019       8.47037747       3.68900591       0.00000000      -0.01036302       0.00945596      -0.01037833
C        7.42636424      -0.07020429       3.68093982       0.00000000       0.01229182       0.00698009      -0.00071651
C        6.16498659       2.08618312       3.55700830       0.00000000       0.01606012      -0.00121698      -0.00976192
C        4.91801379       4.28992847       3.67971892       0.00000000      -0.02167112      -0.01796257      -0.02450801
O        3.86769592       6.41784483       4.23191188       0.00000000       0.02618417       0.01909687      -0.02632897
C        2.52670721       8.46009162       3.91335390       0.00000000      -0.01369795       0.00863005       0.01238058
C        9.89110380      -0.07506904       3.76028451       0.00000000       0.00996184      -0.00395043       0.01251332
C        8.65104161       2.06473751       3.64844555       0.00000000       0.00206187      -0.00398972       0.01707974
C        7.41634509       4.20200143       3.66806248       0.00000000      -0.00171410       0.01355879      -0.00259477
C        6.23280300       6.35614333       3.84327881       0.00000000       0.00201434       0.01217248      -0.01544962
C        4.98159647       8.48327006       3.89017488       0.00000000       0.00109691      -0.00528720      -0.00441094
C        0.01752370       1.33605671       3.65939627       0.00000000      -0.00602258       0.00559097       0.00750165
C       -1.17122566       3.47822330       3.58546198       0.00000000      -0.00009768       0.00224075       0.00825238
C       -2.41686720       5.61280359       3.58862312       0.00000000      -0.01191208      -0.00026187       0.00891702
C       -3.65559691       7.74721680       3.66670967       0.00000000       0.00190017       0.00092631      -0.00027945
C       -4.90573259       9.87927455       3.70023961       0.00000000      -0.00778570      -0.00700949      -0.01106167
C        2.47665352       1.28743683       3.50588022       0.00000000       0.00604126      -0.00607903      -0.00039577
C        1.34472041       3.42707931       3.54472212       0.00000000       0.00938721       0.00900903      -0.00527673
C        0.06554480       5.62693064       3.64936215       0.00000000      -0.00284742      -0.00563084       0.02274465
C       -1.18974764       7.74838881       3.61101902       0.00000000      -0.00465754      -0.00360220       0.00496626
C       -2.42799884       9.87656352       3.58241213       0.00000000      -0.00297974      -0.01336556       0.00549767
C        4.93735142       1.36156752       3.46847097       0.00000000       0.00794841      -0.00202866       0.01839148
P        3.29762375       3.69417977       2.99300708       0.00000000       0.00581966       0.01770957       0.01307923
C        1.26749365       7.72940447       3.85449747       0.00000000      -0.01434465       0.00619616      -0.01820051
C        0.02680350       9.89654661       3.63991338       0.00000000       0.00651275       0.00861173       0.00066157
C        7.40655131       1.36104710       3.62951326       0.00000000       0.01254848      -0.00151288      -0.01512799
C        6.14856658       3.52157948       3.62750652       0.00000000       0.00224377      -0.00476438      -0.00017217
C        5.02380709       5.67744822       3.90987324       0.00000000      -0.00609964      -0.01604212      -0.00123919
C        3.77367955       7.80441955       4.02341751       0.00000000      -0.00548877       0.00668830       0.01148630
C        2.49697214       9.88747007       3.78216893       0.00000000       0.00648126       0.00610081       0.01563409
C        9.88667905       1.35213972       3.68701578       0.00000000      -0.00222869      -0.00671988      -0.01723627
C        8.66381736       3.48890079       3.63402735       0.00000000      -0.00264378      -0.00088262      -0.01730842
C        7.45198499       5.61904376       3.72277678       0.00000000      -0.01017137       0.01776597      -0.01871335
C        6.22042342       7.77067395       3.84327011       0.00000000       0.00364104       0.00614889      -0.00089768
C        4.96071115       9.90271192       3.79599066       0.00000000       0.00080419      -0.01332378      -0.00555240
Y        2.43761571       5.21982886       5.56131146       0.00000000       0.00327927      -0.02356705      -0.06953207
O        1.35639985       5.82210611       7.26481092       1.00000000      -0.01655112      -0.01446701       0.00597076
O        2.44060084       6.72850085       7.02631396       1.00000000       0.01996526       0.01059591       0.07136854
