52
Lattice="12.336457 0.0 0.0 -6.168228499999997 10.683685154694365 0.0 0.0 0.0 15.0" Properties=species:S:1:pos:R:3:initial_magmoms:R:1:forces:R:3 energy=-464.0734972697235 free_energy=-464.0734972697235 stress="-0.004161278436524761 -0.001570493079995722 4.2080027479700985e-06 -0.001570493079995722 -0.001938418305543457 -9.623004135000923e-07 4.2080027479700985e-06 -9.623004135000923e-07 -3.6697038219949684e-05" pbc="T T T"
C       -0.06933018       0.05688423       3.53703309       0.00000000      -0.00013530       0.00038225      -0.00025104
C       -1.31595556       2.18360042       3.59375236       0.00000000       0.00004302      -0.00046653       0.00022828
C       -2.55066453       4.32410803       3.58534251       0.00000000      -0.00028713       0.00010886       0.00000272
C       -3.76971238       6.46802464       3.52233693       0.00000000      -0.00009346      -0.00014142      -0.00015984
C       -4.99578654       8.60951538       3.50320979       0.00000000       0.00020428       0.00041072       0.00000549
C        2.40103203       0.05720061       3.53582452       0.00000000      -0.00001158       0.00058290      -0.00043688
C        1.15733577       2.17430366       3.62354696       0.00000000       0.00037704       0.00080061      -0.00000114
C       -0.09615684       4.31538844       3.73473907       0.00000000      -0.00080802      -0.00078088      -0.00014444
C       -1.32526564       6.47411681       3.62276484       0.00000000       0.00029869      -0.00020166      -0.00065053
C       -2.53670032       8.60863723       3.53468203       0.00000000      -0.00008454      -0.00054779       0.00005066
C        4.86676586       0.05787290       3.61701957       0.00000000       0.00005242      -0.00050231      -0.00043715
C        3.62435087       2.19575988       3.68839270       0.00000000       0.00014746      -0.00006158       0.00019216
C        2.35967500       4.25477153       3.99031667       0.00000000       0.00120338      -0.00099698      -0.00068642
C        1.06800338       6.47428402       4.02736107       0.00000000      -0.00115363       0.00110488      -0.00144862
C       -0.07378703       8.59551741       3.70566820       0.00000000       0.00016672      -0.00030449       0.00042191
C        7.33335550       0.04408487       3.69299445       0.00000000       0.00049717      -0.00041958      -0.00060740
C        6.09156702       2.19756019       3.67891227       0.00000000      -0.00021994       0.00100982       0.00035620
C        4.86293654       4.36226696       3.85619607       0.00000000       0.00043183      -0.00049326       0.00000584
N        3.82530987       6.57290613       4.27013819       0.00000000      -0.00011579       0.00037121      -0.00036808
C        2.42393922       8.57851861       3.88375347       0.00000000      -0.00020777       0.00047449       0.00021888
C        9.79571025       0.04487204       3.64968937       0.00000000      -0.00007319       0.00053606      -0.00025939
C        8.55620270       2.18655432       3.62508511       0.00000000       0.00030268       0.00006980      -0.00025709
C        7.32334950       4.33175832       3.62698732       0.00000000       0.00001326      -0.00031302       0.00031686
C        6.12040242       6.48437773       3.64510423       0.00000000      -0.00031007      -0.00093689      -0.00001026
C        4.88928227       8.61148321       3.66417098       0.00000000      -0.00011840      -0.00027094       0.00075111
C       -0.07464898       1.47681897       3.57080446       0.00000000      -0.00021716      -0.00029652       0.00031382
C       -1.31705378       3.60951368       3.62131713       0.00000000       0.00011100       0.00025226      -0.00004416
C       -2.54287811       5.75362314       3.56015441       0.00000000      -0.00013332      -0.00033192      -0.00062195
C       -3.76444823       7.89370736       3.50131373       0.00000000       0.00041672      -0.00051355      -0.00056165
C       -5.00001706      10.03395878       3.50793291       0.00000000      -0.00037005       0.00043369       0.00053799
C        2.39649516       1.48227318       3.60669197       0.00000000      -0.00032468       0.00008406      -0.00025192
C        1.15567259       3.60683823       3.77093320       0.00000000       0.00087514      -0.00047481      -0.00036839
C       -0.08450495       5.75779028       3.77769211       0.00000000      -0.00112295       0.00071624      -0.00013174
C       -1.30491850       7.89192359       3.61126253       0.00000000       0.00022758       0.00012126       0.00007010
C       -2.53356935      10.03156385       3.55230375       0.00000000       0.00000613      -0.00017008       0.00047204
C        4.85876579       1.48609930       3.65874669       0.00000000      -0.00019726      -0.00041828      -0.00030104
C        3.59683898       3.64004229       3.85707273       0.00000000       0.00004096      -0.00125028      -0.00006608
C        1.16255712       7.84614284       3.87815680       0.00000000      -0.00079610      -0.00036558      -0.00065619
C       -0.06891676      10.01838011       3.66985525       0.00000000       0.00022937      -0.00035073      -0.00018021
C        7.32334234       1.47367431       3.65989392       0.00000000       0.00034203      -0.00056518       0.00030599
C        6.08197823       3.63368402       3.71036663       0.00000000      -0.00026497       0.00054760      -0.00020963
C        4.90567440       5.80696209       3.91199430       0.00000000       0.00051791      -0.00001290       0.00001349
C        3.69594156       7.89469950       3.93368849       0.00000000       0.00085420       0.00079623      -0.00008957
C        2.40327284       9.99983592       3.73676447       0.00000000       0.00038078       0.00046854       0.00009780
C        9.79036015       1.47106652       3.61044005       0.00000000       0.00037380       0.00005927       0.00016355
C        8.55474647       3.61369558       3.59848786       0.00000000      -0.00017053       0.00068033       0.00030931
C        7.33574777       5.75526934       3.57729288       0.00000000      -0.00009594       0.00013940      -0.00006497
C        6.11319601       7.90046780       3.58550257       0.00000000      -0.00061136       0.00024860       0.00008561
C        4.86639453      10.02881209       3.59939090       0.00000000      -0.00033141       0.00045631      -0.00001430
Y        2.44177490       5.61783699       5.81117109       0.00000000       0.01089031      -0.00039274      -0.05087200
O        4.14030630       3.65193640       7.81322156       1.00000000       0.00533480       0.00021991      -0.00333803
O        3.47639390       4.44010981       7.02196147       1.00000000      -0.01608408       0.00050459       0.05857029
