51
Lattice="12.336457 0.0 0.0 -6.168228499999997 10.683685154694365 0.0 0.0 0.0 15.0" Properties=species:S:1:pos:R:3:initial_magmoms:R:1:forces:R:3 energy=-450.41599967483535 free_energy=-450.41599967483535 stress="0.0006975648667216305 -0.002201926434073277 1.103782681832027e-05 -0.002201926434073277 -0.0048611481957298594 2.0666813613636555e-05 1.103782681832027e-05 2.0666813613636555e-05 -0.00010061618265547957" pbc="T T T"
C       -0.00643715      -0.08723305       3.71195935       0.00000000       0.00012315       0.00278441       0.01138320
C       -1.23390453       2.06319794       3.66084164       0.00000000       0.00479752       0.00272914       0.01529655
C       -2.43835359       4.19222413       3.63526827       0.00000000      -0.00042035      -0.00371356      -0.00484545
C       -3.68135587       6.32526845       3.67003458       0.00000000       0.00250477       0.00676664       0.00970508
C       -4.92545408       8.46245141       3.72022985       0.00000000       0.00315552       0.00698293       0.00291329
C        2.46322886      -0.11854393       3.61955720       0.00000000       0.00640439      -0.00072806       0.02073105
C        1.22527117       2.02506188       3.60112861       0.00000000       0.00879343      -0.01032157      -0.01021813
C        0.08526872       4.17644267       3.63244942       0.00000000       0.00370100       0.00197005      -0.00164428
C       -1.20974414       6.33117968       3.68184997       0.00000000      -0.00863740      -0.00312663       0.00355133
C       -2.46070580       8.45782694       3.65892356       0.00000000       0.00427561       0.00166993      -0.00416367
C        4.92581977      -0.07270685       3.57111986       0.00000000      -0.00815249      -0.00286798      -0.00692831
C        3.64217917       2.01343930       3.37372634       0.00000000      -0.00239921       0.00915577      -0.00315109
C        1.20140913       6.37789670       4.02747505       0.00000000       0.00113176      -0.00721862      -0.00681197
C       -0.00797287       8.48155133       3.73684261       0.00000000      -0.00034433      -0.00748574      -0.00095703
C        7.39033290      -0.05987003       3.66598551       0.00000000       0.00086713      -0.00075178       0.00618064
C        6.14294694       2.07591702       3.51288114       0.00000000      -0.00922718      -0.00745350      -0.00877972
C        4.91060968       4.24632391       3.57144510       0.00000000      -0.01879291       0.00654391      -0.00627053
C        3.74167567       6.37733267       4.01136531       0.00000000       0.00229057      -0.00033748       0.00752803
C        2.46273804       8.49781225       3.87877067       0.00000000       0.00622593      -0.00131840      -0.00846760
C        9.86183768      -0.06583625       3.73463392       0.00000000       0.00780872       0.00541679      -0.00579075
C        8.62592740       2.06913101       3.62594673       0.00000000       0.00446026      -0.00017513      -0.00099879
C        7.39781490       4.20123295       3.62057772       0.00000000      -0.00773352       0.00490599      -0.00441079
C        6.19314471       6.35110021       3.76178326       0.00000000      -0.00350133       0.00827414      -0.00693855
C        4.94473992       8.48050095       3.81626492       0.00000000      -0.00014384       0.00073634      -0.00026038
C       -0.01349434       1.33306996       3.67521467       0.00000000       0.00250563      -0.00136069       0.00179092
C       -1.19295804       3.48514794       3.63164032       0.00000000       0.00241644       0.00118816      -0.00829500
C       -2.43942899       5.61751773       3.64992417       0.00000000      -0.00423919      -0.00431080      -0.00881096
C       -3.69032625       7.74681738       3.68313783       0.00000000       0.00704493       0.00846290      -0.00066995
C       -4.94039284       9.87381297       3.69470222       0.00000000       0.00383377       0.00522594      -0.00351474
C        2.44639378       1.28519637       3.53398072       0.00000000       0.00856478      -0.00152981       0.00348936
C        1.31255222       3.42346102       3.57673377       0.00000000       0.00209973      -0.00589592       0.00330671
C        0.05618513       5.63578453       3.75401149       0.00000000      -0.00115472      -0.00036201      -0.01096073
C       -1.22290382       7.75111317       3.68943403       0.00000000      -0.00154019      -0.00489518      -0.01010619
C       -2.46217972       9.87515840       3.61384999       0.00000000      -0.00046437      -0.00276861       0.00117250
C        4.90834142       1.35804892       3.46904059       0.00000000      -0.01248313      -0.00030629      -0.00923413
P        3.27310261       3.68473483       2.99963969       0.00000000       0.00963211       0.00194979      -0.00170299
C        1.22815384       7.75833115       3.88315764       0.00000000       0.00700539      -0.00614932      -0.00494892
C       -0.00824112       9.90296110       3.65487007       0.00000000      -0.00652694      -0.00227998       0.01025907
C        7.38134234       1.36379961       3.59504240       0.00000000       0.00213093      -0.00236574      -0.00080092
C        6.13406702       3.50581141       3.54747922       0.00000000      -0.01165110      -0.00670457       0.01226495
C        4.93269365       5.67200135       3.79146566       0.00000000      -0.01005239       0.00177526       0.00593723
C        3.70167946       7.75878722       3.91132036       0.00000000       0.00220918       0.00017190       0.00216402
C        2.45729267       9.90750584       3.76026625       0.00000000       0.00778195       0.00290895      -0.00639821
C        9.85994646       1.35467992       3.67276325       0.00000000       0.00738114       0.00460041       0.00156802
C        8.64011181       3.49360978       3.62046391       0.00000000      -0.00157155       0.00058281      -0.00519810
C        7.41447445       5.62392132       3.68258795       0.00000000      -0.00501717       0.00827535      -0.00173621
C        6.17804921       7.76463463       3.77529597       0.00000000      -0.00230366       0.00662057       0.01925252
C        4.92888624       9.89359562       3.76018227       0.00000000       0.00088265       0.00135548       0.00727717
Y        2.47134634       5.18798206       5.68545954       0.00000000       0.01177402      -0.01048923      -0.12797554
O        2.07170631       6.24184255       7.44822884       1.00000000       0.00588593       0.00779285      -0.00642896
O        3.47268227       6.42727808       7.03888307       1.00000000      -0.02133136      -0.01392977       0.14164695
