52
Lattice="12.336457 0.0 0.0 -6.168228499999997 10.683685154694365 0.0 0.0 0.0 15.0" Properties=species:S:1:pos:R:3:forces:R:3 energy=-458.72962985582035 free_energy=-458.72962985582035 stress="-0.006817476427490452 0.0005173041175335068 2.7471975681905218e-05 0.0005173041175335068 -0.001636069622590415 -2.3379443924959456e-05 2.7471975681905218e-05 -2.3379443924959456e-05 5.165286714130295e-06" pbc="T T T"
C        0.00313906       0.00280793       3.66712535      -0.00947552      -0.00287143       0.00628071
C       -1.24496809       2.12040219       3.62631931       0.00862878       0.00109841      -0.00953712
C       -2.47768560       4.26466638       3.54721970       0.00931620       0.00020381       0.00505425
C       -3.70265663       6.41203281       3.54422729      -0.00041915       0.00061825       0.00197725
C       -4.92585537       8.56129818       3.61648062       0.00260643       0.00043087       0.00158383
C        2.47595314       0.03048673       3.71525302      -0.00061918       0.00504121      -0.00204015
C        1.22482619       2.16115027       3.88792843      -0.00083494      -0.00007529       0.00113113
C       -0.03115213       4.24624778       3.85061784       0.00217946      -0.00233681       0.00179314
C       -1.25926297       6.42154409       3.65938607       0.00428791      -0.00134091      -0.00052389
C       -2.47698067       8.56072918       3.60410291       0.00557886      -0.00161403      -0.00186858
C        4.93716469      -0.00129149       3.65001062       0.00963423      -0.00382303       0.00403194
C        3.75003461       2.15032090       3.90131656       0.00381042       0.00153771      -0.01031692
C        1.14859090       6.44031852       4.04414492       0.00266999      -0.00339836       0.00014447
C       -0.01460907       8.54122649       3.69900234      -0.00119740       0.00985061      -0.00039679
C        7.40691418      -0.02355796       3.61578288       0.01004609      -0.00390644      -0.00296005
C        6.18424513       2.11940416       3.61688084      -0.00745914       0.00370300      -0.00042234
C        4.97118171       4.21708558       3.87648082      -0.00628584      -0.00792783      -0.00662196
C        3.78463533       6.42561356       4.04949688      -0.00300929       0.00374308      -0.01773679
C        2.47068699       8.52800960       3.81251404      -0.00511055      -0.00259838      -0.00066164
C        9.87004353      -0.02205446       3.62476035      -0.00050811      -0.00541363       0.00142777
C        8.63839101       2.11905464       3.52525733      -0.00674843      -0.00344631       0.00571152
C        7.40854814       4.26505276       3.54948556      -0.00371864       0.00835682      -0.00277207
C        6.18744183       6.40989973       3.67922333      -0.01066055      -0.00318181      -0.00359469
C        4.95260156       8.53990308       3.71876838       0.00338973      -0.00000847      -0.00687413
C       -0.01042448       1.41915946       3.71328454       0.00202493      -0.00298217       0.00227004
C       -1.26657818       3.54048571       3.64087960       0.01139649       0.00017871       0.00308254
C       -2.47593706       5.69915433       3.56442594       0.00277085       0.00218547      -0.00067983
C       -3.70173011       7.84224094       3.57674288       0.00331574      -0.00123811       0.00251751
C       -4.92631435       9.98549773       3.66408789      -0.00839573       0.00388084       0.00725115
C        2.48902253       1.44766725       3.86091239       0.00344517       0.00559688       0.00166055
C        1.10360281       3.51140943       4.08504469      -0.00098763      -0.00467327       0.00153441
C       -0.01774429       5.72094254       3.85004238      -0.00195423      -0.00538946       0.00482516
C       -1.24773911       7.84048246       3.64176484       0.00386275      -0.00027643       0.00162229
C       -2.46847637       9.98418392       3.65383329       0.00480366       0.00072353      -0.00060471
C        4.95673959       1.41726952       3.69838659      -0.00005476      -0.00078056      -0.00439786
N        3.84885736       3.49262037       4.13474963      -0.00604993      -0.00368855      -0.01170883
C        1.22145350       7.80796734       3.84940598      -0.00893855       0.00048339       0.00096500
C        0.00113123       9.95575099       3.64031936       0.01266439       0.00808321       0.00499689
C        7.41057104       1.40048964       3.55967338      -0.01105254      -0.00394319       0.00070179
C        6.19189478       3.53793366       3.64066113      -0.00297768       0.00132837      -0.00121707
C        4.94249718       5.69386770       3.87244536      -0.01000807      -0.01076492      -0.00323079
C        3.71731183       7.79863005       3.85998760       0.00225448       0.00769960      -0.00141865
C        2.47034314       9.93935622       3.66793625       0.00417031      -0.00447352       0.00716713
C        9.86339359       1.39964679       3.56835420       0.00438545      -0.00349674      -0.00155257
C        8.63431590       3.54914132       3.50640342       0.00069005       0.00443320       0.01403846
C        7.40467276       5.69519511       3.57187165      -0.00413321       0.00870603       0.00256453
C        6.18053585       7.83498220       3.66251787       0.00186583      -0.00238510      -0.00448708
C        4.93939113       9.95703311       3.65879626      -0.00361008      -0.00342159       0.00309896
Y        2.45913366       4.96861523       5.33632969       0.00391045       0.00214482       0.00682767
O        2.43289248       5.02831345       7.31455883       0.00081565      -0.00065996       0.00884817
O        2.25891147       5.01308319       8.70845137       0.00061899       0.00584836      -0.01516340
H        3.18005869       4.99857867       9.03434857      -0.01093414       0.00424017       0.00767966
