52
Lattice="12.336457 0.0 0.0 -6.168228499999997 10.683685154694365 0.0 0.0 0.0 15.0" Properties=species:S:1:pos:R:3:forces:R:3 energy=-456.5745985439594 free_energy=-456.5745985439594 stress="-0.006061041325290577 0.0005097613566234193 2.4945719084069656e-05 0.0005097613566234193 -0.0011339741114037626 -2.8716707440856554e-05 2.4945719084069656e-05 -2.8716707440856554e-05 1.1344210645383132e-05" pbc="T T T"
C        0.00112227       0.00450067       3.65733842       0.00498517       0.00242105      -0.00479797
C       -1.24712155       2.12275475       3.62393361      -0.00286522      -0.00106066      -0.00356144
C       -2.47903119       4.26667852       3.56436956      -0.00711578      -0.00212667       0.01732456
C       -3.70348008       6.41303179       3.56127661       0.00293147      -0.00885558      -0.01289516
C       -4.92728090       8.56129850       3.60965731      -0.00240167      -0.00057717       0.00462072
C        2.47626158       0.02962834       3.69742605       0.00524399      -0.00266821       0.01560842
C        1.22249846       2.17000097       3.84079725       0.01100718      -0.00579342      -0.00270581
C       -0.02981802       4.24611530       3.82638177       0.00022157       0.00017207      -0.00570231
C       -1.25806205       6.41985577       3.67500517      -0.00576907       0.00291105       0.00764722
C       -2.47668577       8.55740862       3.61969273      -0.00117638      -0.00069422       0.00829511
C        4.93448341      -0.00695024       3.67555020      -0.00511744       0.00686740      -0.00551040
C        3.74753905       2.10418797       3.88160568      -0.00891169       0.00339492      -0.00512364
C        1.15981707       6.42845876       4.03953664      -0.01352448       0.00564640       0.00792489
C       -0.01394423       8.53757863       3.73011926       0.00930035      -0.00670863       0.00346663
C        7.40437083      -0.02373636       3.65363473       0.00213471       0.00808991       0.00876648
C        6.18279716       2.11824642       3.64541738       0.00360138       0.00057920       0.00039774
C        5.00249934       4.24119480       3.85243153       0.00681814      -0.00234979      -0.01200085
C        3.76546343       6.42086397       3.99333916       0.00286515      -0.00443485      -0.01478109
C        2.46914312       8.52772745       3.81814014       0.00082457      -0.00278610       0.01178539
C        9.86691151      -0.01986626       3.64026038       0.00273711       0.00147505       0.00043726
C        8.63406109       2.12016256       3.56045989       0.00693615       0.01807325       0.00193232
C        7.40870861       4.27055800       3.56559819       0.00222458       0.00566798       0.00351261
C        6.18152986       6.40845345       3.65699444       0.00156007      -0.00088060       0.00638439
C        4.95094233       8.54270999       3.70629052      -0.01104994      -0.01206848      -0.01022196
C       -0.00838926       1.42319876       3.69204446       0.00365224       0.00267853       0.00379355
C       -1.26743386       3.54247365       3.63818358      -0.00970830      -0.00238307       0.00721751
C       -2.47758342       5.70022583       3.58429329       0.00113645      -0.00909369      -0.00830699
C       -3.70244023       7.84243739       3.58473946      -0.00067381      -0.00520227       0.00350695
C       -4.92632332       9.98701769       3.65061771       0.00822588       0.00071655       0.00891231
C        2.49669031       1.45710483       3.82518955       0.00274620      -0.00944246       0.00573041
C        1.11885881       3.52247207       4.01509795      -0.00230701      -0.00399334      -0.00122231
C       -0.01678381       5.71720591       3.84742396      -0.00212698       0.00591670       0.00134655
C       -1.24750683       7.83868392       3.66684749       0.00351553       0.00298004       0.00082440
C       -2.47058459       9.98519006       3.66239002      -0.00015047      -0.00069153      -0.00488816
C        4.94895532       1.41790351       3.71647785      -0.00671866       0.00505719      -0.00320754
O        3.85122054       3.48297441       4.13557103      -0.00280926      -0.00205908      -0.00276328
C        1.22227710       7.80491956       3.86661031       0.00896459      -0.00373027      -0.01643450
C       -0.00054750       9.95379203       3.67864086      -0.00117993      -0.00377337      -0.00292791
C        7.40028423       1.40415950       3.60146819       0.01220802       0.01332461      -0.00667033
C        6.18396480       3.54259916       3.65012822       0.00568872       0.00396940      -0.00302272
C        4.93603487       5.68251294       3.82980257       0.00089113       0.00036727      -0.01438583
C        3.71648200       7.79630041       3.84011173      -0.01153480      -0.00940177      -0.00606603
C        2.46792262       9.94099524       3.69072072       0.00099312      -0.00251138       0.00889621
C        9.85960832       1.40140104       3.58797029      -0.00425579       0.00709274      -0.00007762
C        8.63105775       3.55148949       3.53583903      -0.00352016       0.01010468       0.00959293
C        7.39968645       5.69545724       3.57688081      -0.00091861      -0.00353790      -0.00342306
C        6.17793767       7.83437316       3.64660793      -0.00632770      -0.00491432       0.00077786
C        4.93735788       9.95992467       3.65881643       0.00100537      -0.00839571      -0.00247958
Y        2.50153244       4.93469865       5.27035885       0.00652414       0.00201276       0.01206347
O        2.47650139       5.02954460       7.25381912       0.00575324      -0.00542981      -0.00567240
O        2.27036699       5.01729798       8.63929746      -0.00579694       0.01043929      -0.00688025
H        3.18179044       4.98054939       8.99118454      -0.00873614       0.00560630       0.00496322
