53
Lattice="12.336457 0.0 0.0 -6.168228499999997 10.683685154694365 0.0 0.0 0.0 15.0" Properties=species:S:1:pos:R:3:forces:R:3 energy=-460.252680495753 free_energy=-460.252680495753 stress="-0.002112319841369342 0.000995359545522111 2.449436322829143e-05 0.000995359545522111 -0.008050272333068521 1.8878521977631573e-05 2.449436322829143e-05 1.8878521977631573e-05 -2.4062365295018228e-05" pbc="T T T"
C       -0.03920373       0.05182203       3.62629841       0.00306211       0.00158599      -0.00557572
C       -1.26437348       2.19353010       3.77119379       0.01060255       0.00573730       0.00865787
C       -2.49949631       4.31967108       3.83109813      -0.00063749      -0.00560329      -0.00116014
C       -3.74481340       6.44985851       3.71205438       0.00678704      -0.00066582      -0.01067879
C       -4.98712035       8.57934768       3.56333224      -0.00289663      -0.00391048      -0.00394441
C        2.41941717       0.02595859       3.66489416       0.00386054       0.00262054       0.00547326
C        1.20288927       2.16941712       3.84623272      -0.00852684      -0.00492355      -0.00163803
C       -0.02239861       4.30133141       4.10161629      -0.00717028       0.00029968       0.00470307
C       -1.28573449       6.45263169       3.99606245       0.00949798       0.00351688      -0.00221473
C       -2.51224052       8.57995348       3.73144216       0.00813107      -0.00144535       0.00961254
C        4.88708428       0.03915280       3.68428355      -0.00073707      -0.00646666      -0.00639542
C        3.64776010       2.14383859       3.73570940       0.00394613       0.00431184      -0.01446475
N        2.46273008       4.16238720       4.28488744      -0.00095307      -0.01882992      -0.00013308
P        1.27253004       6.53230846       4.93714749      -0.00467841      -0.00538424      -0.01001987
C       -0.05277959       8.61255529       3.84984713      -0.00247581       0.00460423       0.00838055
C        7.35222507       0.07275540       3.68277671      -0.00787813       0.01057080       0.00622069
C        6.12423250       2.17823831       3.70570186      -0.00902631       0.00517339      -0.00358055
C        4.87810485       4.28317934       3.66898269       0.00887496       0.00422727      -0.00731517
S        3.47079396       6.40703588       2.67271960       0.00895662      -0.00471603       0.00560641
C        2.41563708       8.65927255       3.66960866      -0.00408614      -0.00791706      -0.00302787
C        9.83486312       0.07715110       3.61565204       0.00029500       0.00733751      -0.00119025
C        8.59878027       2.19564069       3.71902082       0.00569290      -0.00257176      -0.01740493
C        7.35942647       4.31601086       3.69553124       0.00090632       0.00067934      -0.00586655
C        6.12356223       6.44947891       3.47510946      -0.01345669      -0.00376642      -0.00188758
C        4.89045251       8.60861122       3.44774077      -0.00058193       0.00517992       0.00661314
C       -0.03463771       1.47500835       3.74529174      -0.00188327      -0.00368510       0.00613692
C       -1.25646789       3.60779821       3.89293164      -0.00035562       0.00182577       0.00487916
C       -2.51394015       5.74007246       3.84679142       0.01046012      -0.00231700      -0.00467460
C       -3.74922957       7.87008579       3.66359211       0.00358558       0.00214785       0.01036836
C       -4.98416399      10.00607983       3.61072991       0.00285516      -0.00041995       0.00051557
C        2.41877235       1.44478635       3.74606275      -0.00051684       0.00693852      -0.00393398
C        1.23444503       3.57027791       4.09583711      -0.00995218      -0.00632394      -0.00272140
C       -0.08925646       5.71103744       4.24782892      -0.00544211      -0.00189665       0.01235109
C       -1.28183080       7.87829292       3.88396316       0.00728719       0.00284107       0.01186747
C       -2.51300781      10.00328475       3.67938417       0.00285553      -0.00459680       0.00694516
C        4.88977136       1.45884073       3.68916124      -0.00269431      -0.00613714      -0.00364919
C        3.62423365       3.54826812       3.85885585       0.01246300       0.00365485      -0.00229297
C        1.20353274       7.96926870       3.97050083      -0.00836097       0.00185151       0.00828435
C       -0.04773309      10.03311292       3.71170541      -0.00203675       0.00187640       0.01322523
C        7.36105612       1.48498753       3.69873428      -0.00629782       0.01200451      -0.01299628
C        6.12915698       3.59366508       3.69677446       0.00155437       0.00488523      -0.01178999
C        4.92062048       5.68668452       3.34868743      -0.00638799      -0.00151157      -0.01113997
C        3.63390712       7.97016413       3.39294748       0.00389046      -0.00402591      -0.01079982
C        2.42570358      10.06925239       3.64103176      -0.00706487       0.00076069       0.00188353
C        9.83644368       1.49279428       3.69557545       0.01413400       0.00660827       0.00075207
C        8.60166342       3.61268989       3.74905731      -0.00040196      -0.00754305       0.00643638
C        7.35827139       5.73826941       3.63477348      -0.00354443       0.00134139      -0.00475321
C        6.11422510       7.87391855       3.45642917      -0.00885618      -0.00462616       0.00930834
C        4.89522432      10.03857072       3.56126163       0.00174962       0.00810501       0.00144016
Y        3.75033689       5.63887717       5.60389060      -0.00170975       0.00363398       0.00406862
O        4.89439666       4.46861704       6.90582187       0.00891316       0.00604253       0.01319597
O        3.85432638       5.10545588       7.83501499       0.00286773      -0.00475716      -0.00927218
H        4.44343893       5.31375057       8.57990924      -0.01461926      -0.00632129       0.00759549
