52
Lattice="12.336457 0.0 0.0 -6.168228499999997 10.683685154694365 0.0 0.0 0.0 15.0" Properties=species:S:1:pos:R:3:initial_magmoms:R:1:forces:R:3 energy=-455.29375068857695 free_energy=-455.29375068857695 stress="-0.001019922688068107 0.0007622859611124211 4.335699418606632e-06 0.0007622859611124211 -0.00730670480184111 -2.925385158976583e-06 4.335699418606632e-06 -2.925385158976583e-06 -6.358910765360691e-05" pbc="T T T"
C       -0.08146129       0.06755309       3.62673692       0.00000000       0.00023464       0.00087136      -0.00042525
C       -1.30646371       2.21048164       3.74097617       0.00000000       0.00000930      -0.00031922      -0.00158535
C       -2.54158023       4.33649004       3.78591029       0.00000000      -0.00001198      -0.00063677      -0.00174087
C       -3.78583818       6.46661463       3.68100088       0.00000000      -0.00043462      -0.00016720       0.00079263
C       -5.02714383       8.59775776       3.56357563       0.00000000       0.00039764      -0.00097741       0.00001599
C        2.37884958       0.04339754       3.63762060       0.00000000       0.00016224       0.00041649       0.00138582
C        1.16232564       2.18982854       3.76658464       0.00000000       0.00177165       0.00037286       0.00017530
C       -0.06067683       4.31882053       4.05142604       0.00000000       0.00035416      -0.00108918       0.00122229
C       -1.33016845       6.46827838       4.01950148       0.00000000       0.00019557       0.00049633      -0.00063741
C       -2.55431086       8.59713397       3.76040414       0.00000000      -0.00041301       0.00164912       0.00203260
C        4.84545134       0.05524497       3.67338162       0.00000000       0.00193697      -0.00014131      -0.00092065
C        3.60517111       2.16204599       3.59024147       0.00000000       0.00067992       0.00240639       0.00008371
N        2.43180519       4.19598979       4.09940395       0.00000000      -0.00046173      -0.00015761       0.00085291
P        1.21863459       6.51841613       5.01071843       0.00000000       0.00013846      -0.00020833       0.00007107
C       -0.09815502       8.63337010       3.93579107       0.00000000      -0.00001139      -0.00088697      -0.00262988
C        7.30936248       0.08887368       3.71609453       0.00000000      -0.00061616       0.00103596       0.00217911
C        6.08042247       2.19539340       3.60167155       0.00000000       0.00057024       0.00044061      -0.00146615
C        4.83626265       4.30342773       3.43558033       0.00000000       0.00334445      -0.00142799       0.00036790
S        3.43034814       6.50734485       2.52615629       0.00000000      -0.00330645       0.00077067      -0.00136094
C        2.37193873       8.67058208       3.77130648       0.00000000      -0.00218733       0.00171627       0.00028767
C        9.79062063       0.09040941       3.65117643       0.00000000      -0.00115354       0.00011799      -0.00031543
C        8.55625852       2.21195796       3.67314743       0.00000000       0.00008174       0.00071595      -0.00137520
C        7.31883530       4.33338669       3.58210937       0.00000000      -0.00020543       0.00018641       0.00095913
C        6.08468406       6.46987526       3.38754073       0.00000000      -0.00071275      -0.00264419       0.00027295
C        4.84818092       8.62455477       3.48703039       0.00000000      -0.00016160      -0.00078924       0.00045525
C       -0.07677313       1.49206130       3.71385759       0.00000000       0.00046922       0.00063348      -0.00163435
C       -1.29733992       3.62572590       3.84830635       0.00000000       0.00002372      -0.00037020       0.00102781
C       -2.55568459       5.75716522       3.82681833       0.00000000      -0.00020402      -0.00067269      -0.00068639
C       -3.79049343       7.88745565       3.66617453       0.00000000       0.00037913      -0.00064412       0.00081676
C       -5.02543321      10.02320942       3.60791307       0.00000000      -0.00064625      -0.00062631       0.00022246
C        2.37766959       1.46435529       3.65886080       0.00000000       0.00049161       0.00041341       0.00071511
C        1.19685620       3.59340780       3.98774418       0.00000000      -0.00153047      -0.00194329       0.00042432
C       -0.13260771       5.72241096       4.26184858       0.00000000       0.00042690      -0.00066856       0.00009741
C       -1.32586513       7.89645533       3.93890016       0.00000000      -0.00011480       0.00115833      -0.00101044
C       -2.55429746      10.01964879       3.68169543       0.00000000       0.00110698       0.00158435      -0.00209967
C        4.84742976       1.47442735       3.59646457       0.00000000       0.00057675      -0.00004245       0.00107211
C        3.57972692       3.57193607       3.64265485       0.00000000      -0.00053809      -0.00062378      -0.00265188
C        1.15749433       7.98870389       4.08347888       0.00000000      -0.00083668      -0.00075306       0.00051825
C       -0.09075725      10.05013693       3.75906774       0.00000000       0.00111578      -0.00065712       0.00064517
C        7.31756010       1.50132885       3.65732267       0.00000000       0.00071728      -0.00008772       0.00032822
C        6.08602885       3.61202941       3.54019774       0.00000000       0.00127945      -0.00048203      -0.00109336
C        4.88642685       5.71625390       3.14952905       0.00000000       0.00315710      -0.00204052      -0.00154599
C        3.58818119       7.97712289       3.45160475       0.00000000      -0.00144225       0.00081652       0.00017699
C        2.38260458      10.08085428       3.70913797       0.00000000      -0.00167413       0.00151656       0.00106035
C        9.79332278       1.50830083       3.68511893       0.00000000       0.00020433      -0.00003750       0.00082131
C        8.56059018       3.62977815       3.67619111       0.00000000      -0.00039086       0.00130167       0.00136470
C        7.31876283       5.75536180       3.55031292       0.00000000      -0.00085570       0.00073940      -0.00066370
C        6.07212376       7.89536809       3.44341643       0.00000000      -0.00035256      -0.00110547       0.00048805
C        4.85185666      10.05298623       3.59634701       0.00000000      -0.00034532       0.00006270      -0.00000722
Y        3.78612543       5.64519948       5.31445707       0.00000000       0.00728968      -0.00167689      -0.10489678
O        5.65056169       3.72077724       7.15453683       1.00000000       0.00296273       0.00292023      -0.01029646
O        4.88258754       4.50945848       6.47835345       1.00000000      -0.01147052      -0.00046595       0.11811004
