52
Lattice="12.336457 0.0 0.0 -6.168228499999997 10.683685154694365 0.0 0.0 0.0 15.0" Properties=species:S:1:pos:R:3:forces:R:3 energy=-448.61076007389187 free_energy=-448.61076007389187 stress="-0.0022090365781127696 -0.0023045753431787026 3.5459372852263475e-05 -0.0023045753431787026 -0.002774295560752612 -3.1686022995983e-05 3.5459372852263475e-05 -3.1686022995983e-05 -2.844072158336462e-05" pbc="T T T"
C       -0.02886019      -0.12146653       3.81971812      -0.00253506       0.00235066       0.00412600
C       -1.27112668       2.02515607       4.01059444      -0.00244840       0.00318218      -0.00044297
C       -2.49128075       4.16790396       3.80107474       0.00041411       0.00075121       0.00458423
C       -3.69711858       6.30383911       3.56877737       0.00479754       0.00769021      -0.00310299
C       -4.94745202       8.44074233       3.58738273      -0.00341111      -0.00222151       0.00227759
C        2.44721218      -0.14520006       3.79507022       0.00707662       0.00437732      -0.00809585
C        1.21146963       1.92810086       4.26292571      -0.00339463       0.00561459       0.00313279
C       -0.11010288       4.22553292       4.37303343       0.00216492      -0.00132128      -0.00007463
C       -1.26275858       6.31901648       3.86790790       0.00219557      -0.00439820      -0.00477462
C       -2.47687031       8.43283209       3.66602727      -0.00302802      -0.00622318      -0.00387391
C        4.91450416      -0.11160553       3.67170497       0.00006610      -0.00200812       0.00044307
C        3.63540032       1.96805056       3.66157647      -0.00361733       0.00871878       0.00671803
N        1.10693197       6.36741438       4.36701968       0.00610278      -0.00479772      -0.00119182
C       -0.01729233       8.42996638       3.80600518      -0.00075717      -0.00177578      -0.00995693
C        7.38135819      -0.11571342       3.70266655       0.00093766      -0.00216721      -0.00501854
C        6.13098407       2.04315113       3.53109264      -0.00066451      -0.00538443      -0.00353701
C        4.96967522       4.25474196       3.31610135      -0.00073757       0.00149108      -0.00302026
O        3.77087433       6.32803125       3.54513785      -0.00111562      -0.00969599      -0.00492290
C        2.45755996       8.39055117       3.82747260       0.00115978       0.00001959      -0.00174807
C        9.83738030      -0.11841163       3.76445648      -0.00800574      -0.00050467       0.00359623
C        8.60723307       2.03096103       3.69951382       0.00504822      -0.00731527       0.00008142
C        7.39280261       4.17387500       3.48640627       0.00746831       0.00324511       0.00093551
C        6.20044630       6.34176365       3.36481510       0.00425423      -0.00021297      -0.00246229
C        4.91856361       8.44418081       3.58860041      -0.00119445       0.00196742      -0.00447965
C       -0.03667316       1.29216823       4.05243022      -0.00318885       0.00515060       0.00087628
C       -1.27398756       3.46387174       4.06422968       0.00119045       0.00213489      -0.00355025
C       -2.47586429       5.59007689       3.73335030       0.00098153       0.00182119      -0.00485407
C       -3.70623993       7.72534113       3.59364330      -0.00317327       0.00202120      -0.01174297
C       -4.96044766       9.85127733       3.74043540       0.00305323      -0.00007150       0.00587294
C        2.43677091       1.25999255       3.94932365      -0.00165880       0.00711838       0.00350765
P        1.25028884       3.43108991       5.15159537       0.00464789       0.00486423       0.00040453
C       -0.05601304       5.65457077       4.20787892       0.00424114      -0.00421650      -0.00329774
C       -1.24840049       7.72479871       3.76158428      -0.00310680      -0.00373240       0.00526147
C       -2.47970560       9.85273314       3.69564426       0.00456620      -0.00638694       0.00182983
C        4.89578383       1.32725947       3.60458075      -0.00567173       0.00084280       0.00032780
S        3.37143485       3.61409149       3.21897171      -0.00714715      -0.00531619       0.00108990
C        1.18642959       7.69429079       3.99936497       0.00143212      -0.00250524      -0.00334406
C       -0.01630052       9.85619306       3.70794733       0.00096632       0.00109990       0.00417203
C        7.36618064       1.32247769       3.62908025       0.00309401      -0.00587213       0.00724015
C        6.14563810       3.47055997       3.42051664       0.00278515       0.00066359      -0.00132954
C        5.01019354       5.64850002       3.34491313       0.00351007      -0.00107660       0.01060646
C        3.71115112       7.75029854       3.67491230       0.00199148      -0.00274421       0.00159779
C        2.44326404       9.83515718       3.75314814      -0.00353393      -0.00096466      -0.00032652
C        9.84073492       1.31765612       3.82340517       0.00127702      -0.00296843       0.00107482
C        8.61960388       3.45631562       3.65294960       0.00562423      -0.00525753      -0.00340892
C        7.41573258       5.59380686       3.44631941       0.00806913       0.00718775       0.00643077
C        6.16877600       7.75376360       3.48613866      -0.00203959      -0.00231083       0.00022092
C        4.90580793       9.86542059       3.72155983      -0.00763757       0.00385041      -0.00081186
Y        3.00862335       5.55745147       5.52584346       0.00186017       0.00175861      -0.00608076
O        4.34181784       6.75523241       6.58236535      -0.00723639       0.00657581       0.00771164
O        3.03424681       6.80995708       7.34874996      -0.01013493       0.00055991       0.00205784
H        3.33893457       7.26450048       8.15234607      -0.00553735       0.00639209       0.00927146
