52
Lattice="12.336457 0.0 0.0 -6.168228499999997 10.683685154694365 0.0 0.0 0.0 15.0" Properties=species:S:1:pos:R:3:initial_magmoms:R:1:forces:R:3 energy=-461.2242341201792 free_energy=-461.2242341201792 stress="0.00023524837764288628 -7.660599496676469e-05 1.820822649062313e-06 -7.660599496676469e-05 -0.0006295693291610863 -2.730040754479038e-06 1.820822649062313e-06 -2.730040754479038e-06 5.936437117811415e-05" pbc="T T T"
C        0.08027022      -0.01060658       3.58760385       0.00000000      -0.00111190      -0.00761922      -0.01290889
C       -1.14739044       2.13430763       3.65736328       0.00000000       0.00620449      -0.00114163      -0.01211925
C       -2.37433356       4.26064987       3.65632170       0.00000000      -0.00669715       0.00992620       0.02409591
C       -3.61677644       6.39314992       3.60218566       0.00000000      -0.01045708      -0.00626775       0.01399973
C       -4.85748705       8.52853043       3.57245735       0.00000000      -0.01001663       0.00222569       0.00553949
C        2.54991480      -0.01662017       3.57135388       0.00000000       0.00477826       0.01325415      -0.00871095
C        1.31896333       2.11733433       3.67220158       0.00000000      -0.01110487       0.00302407       0.00169058
C        0.11528369       4.28873130       3.81901019       0.00000000      -0.01634496      -0.00981625      -0.00251501
C       -1.14639382       6.39744014       3.66609238       0.00000000       0.00238531      -0.01345293      -0.00927022
C       -2.37729271       8.52990745       3.57999030       0.00000000       0.00656567      -0.01440810       0.00425029
C        5.02008130      -0.01023532       3.60753977       0.00000000      -0.00032188       0.00134649      -0.01456267
C        3.77846211       2.11847886       3.68409276       0.00000000       0.01423598       0.00014633       0.00527837
N        2.54317747       4.11768765       4.14610938       0.00000000       0.00689980       0.00372533       0.00732726
O        1.21426992       6.45330775       3.97959568       0.00000000      -0.01496160       0.01485123      -0.01244289
C        0.08526802       8.53400669       3.67219177       0.00000000      -0.00235728       0.01403946       0.01503253
C        7.49051121      -0.01520272       3.64873843       0.00000000      -0.00619692      -0.00321642       0.00495405
C        6.24654039       2.13540911       3.66461420       0.00000000       0.00199301       0.00345061       0.01142374
C        4.98520298       4.28831650       3.83748701       0.00000000       0.01020961      -0.00662200       0.00707647
O        3.87736928       6.45734618       3.94784938       0.00000000       0.00191938      -0.00461657      -0.00107327
C        2.55001990       8.49388417       3.78664325       0.00000000       0.00771235      -0.00450246      -0.00041960
C        9.94621456      -0.01651076       3.64073248       0.00000000      -0.00031774       0.00955503       0.00102436
C        8.71823640       2.12691922       3.64693412       0.00000000      -0.00174000       0.00546733      -0.01250863
C        7.47479926       4.26181430       3.66436463       0.00000000      -0.00080930      -0.00655658       0.00879918
C        6.24964881       6.39927901       3.68518554       0.00000000       0.00631343      -0.00022466      -0.00642397
C        5.01831117       8.53496595       3.66541293       0.00000000      -0.00081584       0.02199466      -0.01505570
C        0.08130420       1.41700767       3.62279586       0.00000000       0.00064746      -0.01084760       0.02026725
C       -1.12675632       3.56324145       3.70316856       0.00000000      -0.01155549      -0.00149433      -0.01354699
C       -2.38272164       5.67901849       3.63239903       0.00000000      -0.00141873       0.00664111       0.00504645
C       -3.61630131       7.81777936       3.57467172       0.00000000      -0.00815861      -0.00587394       0.00463352
C       -4.85444405       9.95816837       3.56481671       0.00000000       0.00253271       0.00641048       0.00577469
C        2.54984752       1.40623695       3.62798088       0.00000000       0.00281161       0.01534766       0.00323029
C        1.34903416       3.52261610       3.87989534       0.00000000      -0.00894758       0.00351378      -0.00545496
C        0.05164282       5.69695171       3.81363231       0.00000000      -0.00407451      -0.00876370       0.00326738
C       -1.15298296       7.82371063       3.63124045       0.00000000       0.01123915      -0.01413257      -0.01267588
C       -2.38115842       9.95880195       3.57766705       0.00000000       0.00352919      -0.00407156      -0.00371782
C        5.01750105       1.41744818       3.64112225       0.00000000       0.01047862      -0.00072123      -0.00801255
C        3.74282528       3.52336825       3.89066686       0.00000000       0.01648459      -0.00215699       0.00641476
C        1.28050031       7.84498856       3.82389809       0.00000000      -0.00271430       0.01200612      -0.00193809
C        0.08669407       9.96601056       3.63687004       0.00000000      -0.00894154      -0.00380995      -0.02050191
C        7.48326287       1.41770244       3.64442945       0.00000000      -0.00412432       0.00044301       0.00431590
C        6.22846305       3.56394387       3.71349729       0.00000000       0.00358252      -0.00198945      -0.00360733
C        5.05556076       5.69879119       3.84595819       0.00000000       0.01175882      -0.01097806       0.00383301
C        3.82165058       7.85502051       3.81691067       0.00000000       0.00709685      -0.00733772       0.00227896
C        2.55003733       9.94410559       3.67543473       0.00000000       0.00162828       0.00087796       0.01822128
C        9.95218798       1.41699903       3.64073666       0.00000000       0.00342664       0.01090104      -0.00565104
C        8.71865576       3.55003954       3.64758452       0.00000000      -0.00185823       0.00487757       0.00747295
C        7.48502438       5.67939726       3.64175549       0.00000000      -0.00293111      -0.01230536       0.00141753
C        6.25514677       7.82284775       3.62850324       0.00000000      -0.00578552       0.00275736      -0.00378703
C        5.01400152       9.96644470       3.61939887       0.00000000      -0.00082662      -0.00222060       0.00244687
Y        2.55491520       5.82362228       5.75927724       0.00000000       0.00630362      -0.00912943       0.06663077
O        0.66527266       5.49557328       6.69609275       1.00000000       0.00487003       0.00147413       0.00889875
O        1.05983617       6.80847592       6.91585244       1.00000000      -0.01101764       0.00602024      -0.08773767
