51
Lattice="12.336457 0.0 0.0 -6.168228499999997 10.683685154694365 0.0 0.0 0.0 15.0" Properties=species:S:1:pos:R:3:initial_magmoms:R:1:forces:R:3 energy=-443.4769615051604 free_energy=-443.4769615051604 stress="-0.00282913383472577 -0.002510780996416586 -3.1081262429875204e-05 -0.002510780996416586 -0.0032229520338045914 4.606161838117226e-05 -3.1081262429875204e-05 4.606161838117226e-05 4.2898187069725665e-06" pbc="T T T"
C       -0.04018802      -0.11535031       3.74428909       0.00000000      -0.01027064      -0.00868500       0.04311807
C       -1.28524245       2.02850315       3.95603940       0.00000000      -0.01720967      -0.00017172       0.00468178
C       -2.50770967       4.17092015       3.76068999       0.00000000       0.01148073       0.00470939       0.01448325
C       -3.70591032       6.30741610       3.49927184       0.00000000      -0.02002268       0.02041355       0.02761371
C       -4.95877349       8.44535571       3.50814701       0.00000000       0.02264341       0.00029634       0.01415055
C        2.43642211      -0.14017892       3.73077198       0.00000000      -0.02461120      -0.00932999      -0.03126537
C        1.19545136       1.93106490       4.20466786       0.00000000       0.02301721      -0.02785655       0.01660109
C       -0.12802975       4.23014345       4.33355248       0.00000000       0.00236394       0.00340029       0.00713414
C       -1.27669605       6.32302169       3.82124533       0.00000000      -0.01586375      -0.00272448      -0.01174125
C       -2.48781101       8.43605380       3.59303623       0.00000000      -0.00574201       0.01273511       0.00698951
C        4.90232899      -0.10612064       3.61286896       0.00000000      -0.01745288      -0.01451363       0.00141647
C        3.62175146       1.97383746       3.60135873       0.00000000       0.00263517      -0.00151486      -0.01528468
N        1.09347921       6.37235049       4.29486445       0.00000000       0.03505322      -0.04824866      -0.01749732
C       -0.03044792       8.43349697       3.74430488       0.00000000       0.00499102      -0.00686342      -0.02042659
C        7.36649709      -0.11369574       3.64504232       0.00000000       0.03730178       0.03186585      -0.02227234
C        6.11936926       2.04652638       3.47504016       0.00000000      -0.02612769      -0.00262249       0.00314270
C        4.95841957       4.25765055       3.25912750       0.00000000       0.00552036       0.01082953       0.01558890
O        3.77150625       6.33896084       3.49351093       0.00000000      -0.03880596       0.01045770      -0.03827746
C        2.44510111       8.39587289       3.74831485       0.00000000      -0.00446377      -0.01316780       0.02541745
C        9.82421921      -0.11558135       3.70008910       0.00000000       0.00622367       0.02301083       0.02489235
C        8.59314616       2.03274854       3.65540393       0.00000000      -0.00200096       0.00340493      -0.01406461
C        7.37919953       4.17821806       3.44103349       0.00000000       0.03450674      -0.02093321      -0.02080611
C        6.19480570       6.34511728       3.29513228       0.00000000      -0.00189146       0.02770966       0.05414790
C        4.90995278       8.45034372       3.52394839       0.00000000      -0.00832554       0.01848027      -0.04543654
C       -0.05061412       1.29670506       3.98559929       0.00000000       0.00094699      -0.00409693       0.01008801
C       -1.29141900       3.46635914       4.01900445       0.00000000       0.00449680      -0.00054318       0.00640782
C       -2.48927505       5.59330789       3.68734617       0.00000000      -0.01817889       0.00654311      -0.04076646
C       -3.71715723       7.72950580       3.50935323       0.00000000       0.01604406       0.01425136       0.04742114
C       -4.97127515       9.85636338       3.66743999       0.00000000      -0.00676759      -0.01195565      -0.00815876
C        2.42294041       1.26542042       3.88778098       0.00000000       0.01808766      -0.02076737       0.01723138
P        1.22161313       3.42190255       5.11727251       0.00000000      -0.01290334      -0.01819354       0.01595891
C       -0.07653080       5.65816455       4.16398539       0.00000000       0.02480902      -0.01141184      -0.02327758
C       -1.26057860       7.72735407       3.70299583       0.00000000      -0.01612463       0.00787571       0.00152180
C       -2.49047140       9.85674804       3.62941326       0.00000000      -0.03120831      -0.00168149       0.00507210
C        4.88332879       1.33307140       3.54797909       0.00000000      -0.02224844      -0.01834673      -0.00559218
S        3.35840191       3.61876994       3.13989066       0.00000000       0.02942949      -0.01823888      -0.00298349
C        1.17458122       7.70317465       3.92214089       0.00000000       0.00981708      -0.03927448       0.00095681
C       -0.03076642       9.85968574       3.64982460       0.00000000       0.02111914       0.01752209      -0.00109674
C        7.35329102       1.32395889       3.57465525       0.00000000      -0.00885636       0.03036369       0.02991548
C        6.13432943       3.47376108       3.36447864       0.00000000       0.00291051      -0.00758519       0.01770554
C        5.00848769       5.64901769       3.29293243       0.00000000      -0.03837403       0.01593556      -0.01488109
C        3.70026532       7.76532529       3.58989181       0.00000000      -0.01101333      -0.01499146       0.00549824
C        2.42864187       9.84043311       3.68525576       0.00000000       0.02993600       0.00001471       0.00390994
C        9.82727536       1.31943703       3.77149517       0.00000000      -0.01656557       0.01548148      -0.01101155
C        8.60296338       3.45903864       3.61636563       0.00000000       0.03863447      -0.01478514      -0.03550006
C        7.40791392       5.59721860       3.38542071       0.00000000      -0.00985527      -0.00327530      -0.00679085
C        6.15864811       7.75589965       3.41930033       0.00000000       0.00838801       0.03315159      -0.03362927
C        4.89473406       9.87123840       3.65584018       0.00000000      -0.01123448       0.01265595      -0.02056825
Y        2.93957294       5.50459792       5.38671420       0.00000000       0.00347994       0.05156328       0.05378826
O        3.92398624       8.12785371       7.01568589       1.00000000       0.03604101       0.03911965      -0.03939668
O        3.56670407       7.00137710       6.50322091       1.00000000      -0.03375897      -0.07001265       0.00587196
