51
Lattice="12.336457 0.0 0.0 -6.168228499999997 10.683685154694365 0.0 0.0 0.0 15.0" Properties=species:S:1:pos:R:3:initial_magmoms:R:1:forces:R:3 energy=-455.60633630406704 free_energy=-455.60633630406704 stress="-0.0046710724371697415 -1.1640662710361153e-05 -3.0343123134839688e-06 -1.1640662710361153e-05 0.0038382781927227723 1.6433042369733386e-05 -3.0343123134839688e-06 1.6433042369733386e-05 -2.604706708004842e-05" pbc="T T T"
C       -0.00111025       0.00581262       3.64652840       0.00000000       0.00168906       0.00340441      -0.00196751
C       -1.24916856       2.12111003       3.59817039       0.00000000      -0.00381011       0.00139307       0.00048741
C       -2.47808563       4.26544780       3.49009860       0.00000000       0.00004034      -0.00502378      -0.00862677
C       -3.70315714       6.41578025       3.46837738       0.00000000      -0.00064795       0.00373675      -0.00477189
C       -4.93082503       8.56541293       3.56551007       0.00000000      -0.00194754       0.00545088      -0.00973653
C        2.46433904       0.05421317       3.69112600       0.00000000       0.00236604      -0.00158320      -0.00308188
C        1.19681571       2.18405928       3.85899957       0.00000000      -0.00151713       0.00102566      -0.00449567
C       -0.04156085       4.24204216       3.81276427       0.00000000      -0.00520140      -0.00334713      -0.00210116
C       -1.26112403       6.41503129       3.59364312       0.00000000       0.00309709      -0.00071079      -0.00306854
C       -2.47645951       8.56591484       3.56764552       0.00000000       0.00471643       0.00179645      -0.00348388
C        4.93021642       0.00688863       3.64372923       0.00000000      -0.00731905      -0.00602452      -0.00166410
C        3.73134178       2.18494517       3.84822419       0.00000000       0.00607190      -0.00074417      -0.00246929
N        1.10113853       6.42231491       4.03584861       0.00000000       0.00077116       0.00616057      -0.00739474
C       -0.01367593       8.53018987       3.68272787       0.00000000      -0.00354776      -0.00219962      -0.00119016
C        7.40573655      -0.03821455       3.62951904       0.00000000      -0.00393839       0.00338182      -0.00403109
C        6.17835999       2.12167968       3.58808257       0.00000000      -0.00342424       0.00084613       0.00256990
C        4.97065219       4.24249706       3.79638105       0.00000000      -0.00345938       0.00111529      -0.00991918
N        3.82644450       6.42127635       4.02206813       0.00000000       0.01033725       0.00141498      -0.00201869
C        2.46409961       8.47380652       3.82236722       0.00000000       0.00286812      -0.00474645      -0.00073895
C        9.85954259      -0.03870933       3.63010151       0.00000000       0.00536747       0.00578990      -0.00231079
C        8.63272749       2.11345647       3.51355090       0.00000000       0.00629193       0.00308102       0.00138647
C        7.40826761       4.26579144       3.48254240       0.00000000      -0.00292668      -0.00684449      -0.00181495
C        6.19036483       6.41495892       3.58276201       0.00000000      -0.00419489      -0.00169796      -0.00156539
C        4.94260331       8.52954814       3.67888004       0.00000000      -0.00163920       0.00159090      -0.01101950
C       -0.01364630       1.42976187       3.68467197       0.00000000      -0.00467152       0.00058208       0.00147388
C       -1.26088212       3.54489658       3.59372619       0.00000000      -0.00212376      -0.00369719      -0.00419482
C       -2.47813361       5.69452188       3.48966019       0.00000000       0.00123961      -0.00120797       0.01025955
C       -3.70351500       7.84613304       3.52045500       0.00000000       0.00334162       0.00516668       0.00411118
C       -4.93084259       9.99784140       3.63576115       0.00000000       0.00202560       0.00270675       0.00079812
C        2.46419611       1.48641040       3.82584288       0.00000000       0.00114497      -0.00087181       0.00234618
N        1.10079780       3.53750992       4.04027647       0.00000000       0.00331469       0.00165148       0.00213315
C       -0.04181719       5.71762351       3.81161413       0.00000000      -0.00005036       0.00328060      -0.00210962
C       -1.24936481       7.83878053       3.59992939       0.00000000      -0.00050945      -0.00148275      -0.00096583
C       -2.47655193       9.99860353       3.63490581       0.00000000      -0.00167346      -0.00265442       0.00199409
C        4.94245733       1.43085503       3.67565699       0.00000000       0.00012441      -0.00451606       0.00331808
N        3.82655730       3.53943268       4.02022856       0.00000000       0.00614667      -0.00360632       0.00959089
C        1.19690954       7.77574571       3.85381552       0.00000000      -0.00026384       0.00062594       0.00565751
C       -0.00079364       9.95403022       3.64355294       0.00000000      -0.00847702      -0.00060313       0.00271458
C        7.40531995       1.39408316       3.55775873       0.00000000       0.00274521       0.00587822       0.00184861
C        6.19056857       3.54535577       3.58020417       0.00000000      -0.00679845      -0.00282301       0.00164560
C        4.97030757       5.71773069       3.79652379       0.00000000       0.00384165       0.00025687      -0.00000202
C        3.73128746       7.77584006       3.84879349       0.00000000       0.00680271      -0.00339637      -0.00206889
C        2.46422050       9.90563219       3.68500357       0.00000000       0.00337991       0.00238138       0.00245926
C        9.86001431       1.39380082       3.56139975       0.00000000       0.00395716       0.00637959       0.00481803
C        8.63320660       3.54418374       3.46403063       0.00000000       0.00298403      -0.00384414       0.00556363
C        7.40826223       5.69469583       3.48466181       0.00000000      -0.00547221      -0.00166699      -0.00218489
C        6.17847396       7.83840966       3.59180479       0.00000000      -0.00622810       0.00229468       0.01533475
C        4.92980286       9.95322312       3.64291098       0.00000000       0.00261619       0.00668915       0.00902241
Y        2.47286806       4.98423534       5.34039102       0.00000000      -0.01151728      -0.01092079      -0.00868284
O        3.18980963       4.97661429       7.43852095       1.00000000      -0.00479534      -0.00147517       0.01646277
O        1.80316719       5.04074459       7.45545759       1.00000000       0.00887333      -0.00239300       0.00168350
