52
Lattice="12.336457 0.0 0.0 -6.168228499999997 10.683685154694365 0.0 0.0 0.0 15.0" Properties=species:S:1:pos:R:3:forces:R:3 energy=-459.7157356486053 free_energy=-459.7157356486053 stress="-0.005267418891081084 -1.3900356194580112e-05 2.069622137890163e-05 -1.3900356194580112e-05 0.002884829911484977 -1.9835768489218393e-06 2.069622137890163e-05 -1.9835768489218393e-06 2.142153994982045e-05" pbc="T T T"
C        0.00049985       0.00636698       3.67379234       0.00168884      -0.00394865      -0.00048462
C       -1.24751700       2.12274831       3.62745061       0.00206071       0.00007184       0.01121349
C       -2.47785738       4.26667126       3.53463006       0.00511482       0.00036012      -0.00225975
C       -3.70223078       6.41602674       3.51746049      -0.00087581       0.00871425       0.00088489
C       -4.92988017       8.56547610       3.60236652       0.00248787      -0.00430379       0.00252630
C        2.46644705       0.05183611       3.71401613      -0.00563315      -0.00511375       0.00310046
C        1.19892856       2.17950867       3.87684148      -0.00494622       0.00007236       0.00084350
C       -0.04153728       4.24379275       3.83818752      -0.00043455       0.00243304       0.00357802
C       -1.25938940       6.41580148       3.62647846       0.00143462      -0.00297623       0.00037265
C       -2.47437838       8.56519006       3.59856651       0.00060298      -0.00013969      -0.00055079
C        4.93199712       0.00592913       3.67507263      -0.00172271      -0.00195626      -0.00659778
C        3.73242831       2.17909223       3.87861436       0.00805731      -0.00276748       0.00360333
N        1.10469470       6.42597408       4.05240141       0.00294648      -0.00095620       0.00745465
C       -0.01125696       8.53109729       3.70754663      -0.00818915       0.01000257      -0.00415417
C        7.40697498      -0.03571193       3.66179672       0.00126499       0.00192715       0.00342304
C        6.17987254       2.12271731       3.63974095      -0.00189423      -0.00028208      -0.00324762
C        4.97410681       4.24421579       3.85083616       0.00076905       0.00596175      -0.00236619
N        3.82692962       6.42728407       4.05813142      -0.00711290      -0.00530046       0.00500896
C        2.46617578       8.47792165       3.84543217      -0.00100698       0.00143270       0.00041344
C        9.86167196      -0.03553902       3.66110678      -0.00010099       0.00302791       0.00118207
C        8.63428578       2.11588665       3.56107044      -0.00334243      -0.00658033      -0.00163862
C        7.40975690       4.26707934       3.54565179      -0.00058102      -0.00617265      -0.00617316
C        6.19175966       6.41615671       3.63989688       0.00480798      -0.00122882      -0.00421236
C        4.94383358       8.53207700       3.71397704       0.00650684       0.00540469      -0.00097154
C       -0.01191560       1.43018712       3.70794342      -0.00056750      -0.00462870      -0.00304690
C       -1.25948446       3.54585298       3.62500340       0.00546347       0.00041246       0.00388329
C       -2.47762438       5.69504371       3.53401967      -0.00261066       0.00583386       0.00206005
C       -3.70223998       7.84621973       3.56017341       0.00141517       0.00493673      -0.00031132
C       -4.92935000       9.99772649       3.66347969      -0.00438919      -0.00925367      -0.00260397
C        2.46591096       1.48378964       3.84621997      -0.00009842      -0.00098071       0.00400267
N        1.10369462       3.53479893       4.05725681      -0.00613775      -0.00138443      -0.00324818
C       -0.04143281       5.71736616       3.83788264       0.00072062      -0.00330015       0.00051827
C       -1.24722583       7.83893872       3.62977369      -0.00276727      -0.00182104       0.00064810
C       -2.47439576       9.99737392       3.66116686      -0.00248611      -0.00280921       0.00814009
C        4.94397531       1.42987011       3.71427705       0.00499047      -0.00361015      -0.00063771
N        3.82596554       3.53496396       4.05718464       0.00642296      -0.00284338      -0.00023022
C        1.19974076       7.78137223       3.87327049      -0.00863971       0.00439045       0.01115123
C        0.00084831       9.95503018       3.67315884      -0.00114900       0.01165321      -0.00016589
C        7.40683902       1.39668674       3.60266004      -0.00537058      -0.00215685       0.00483741
C        6.19204036       3.54598523       3.64081041      -0.00386665      -0.00214642      -0.00010929
C        4.97428231       5.71740551       3.85091107       0.00168378       0.00245843      -0.00380605
C        3.73283065       7.78307667       3.88007934       0.00398712      -0.00106606      -0.00720524
C        2.46609876       9.90996070       3.71278319       0.00122997       0.00397629       0.00610858
C        9.86188108       1.39665467       3.59747790       0.00103384      -0.00166440       0.00203071
C        8.63400142       3.54604577       3.51991337       0.00317810      -0.00579353      -0.00960892
C        7.40965233       5.69543313       3.54468063       0.00546545      -0.00048252      -0.00742181
C        6.17948799       7.83933009       3.63785194       0.00566784       0.00111275       0.00547842
C        4.93154915       9.95576179       3.67470413       0.00261988       0.00722621      -0.00391380
Y        2.47338138       4.98102620       5.28468638      -0.00031895       0.00356753      -0.01097255
O        2.55958030       4.98311182       7.26897356      -0.00072156       0.00247318      -0.00050763
O        2.35428184       4.99378897       8.65715965      -0.00178851      -0.00124021      -0.00550880
H        3.26822183       4.99124329       9.00499994      -0.00486912      -0.00054170      -0.00050874
