52
Lattice="12.336457 0.0 0.0 -6.168228499999997 10.683685154694365 0.0 0.0 0.0 15.0" Properties=species:S:1:pos:R:3:initial_magmoms:R:1:forces:R:3 energy=-454.71524681733706 free_energy=-454.71524681733706 stress="0.0012145960704866051 -5.8964668344888364e-05 1.90064305603809e-05 -5.8964668344888364e-05 -0.0038783061603281923 1.12084654013178e-05 1.90064305603809e-05 1.12084654013178e-05 7.682542256002647e-06" pbc="T T T"
C       -0.07206358       0.02611916       3.78946315       0.00000000       0.00515121      -0.00555439       0.00035418
C       -1.29531734       2.17382897       3.91904260       0.00000000       0.00258809      -0.00129867       0.00569097
C       -2.52667672       4.30773310       3.87174299       0.00000000      -0.00211457      -0.00239197       0.00818184
C       -3.77070450       6.43421060       3.74220872       0.00000000      -0.00224048       0.00024383       0.00281141
C       -5.00843606       8.56543895       3.67450431       0.00000000      -0.00122196       0.00195653       0.00561446
C        2.39789920       0.01250446       3.84174131       0.00000000       0.00669267       0.00100423      -0.00049236
C        1.17004706       2.14493982       3.97352921       0.00000000      -0.00337124       0.00158734       0.00041883
C       -0.03017102       4.28960634       3.84885673       0.00000000      -0.00850146       0.00223927      -0.00633839
C       -1.28264905       6.42572512       3.57929968       0.00000000      -0.00103151      -0.00604057       0.00146209
C       -2.52773824       8.56249357       3.66695904       0.00000000       0.00278665       0.00584873       0.00450012
C        4.86909751       0.02168059       3.77681972       0.00000000      -0.00101589      -0.00041511       0.00618096
C        3.62639236       2.13353813       3.96473711       0.00000000       0.00201755      -0.00366465      -0.00054659
O        2.39173407       4.16739181       4.22965316       0.00000000      -0.00733673       0.01127147      -0.00134467
P        1.19084480       6.36077979       2.39556835       0.00000000       0.00559983      -0.00534109       0.00220407
C       -0.07757911       8.60524113       3.39586575       0.00000000      -0.00121966       0.00066585       0.00538042
C        7.32848308       0.05953067       3.67615729       0.00000000      -0.00817543       0.00247957       0.00319222
C        6.09082383       2.17076543       3.90858891       0.00000000       0.00153500      -0.00298622      -0.00387220
C        4.82820328       4.28078671       3.86068267       0.00000000       0.00437070       0.00248131       0.00714387
P        3.63999151       6.37844500       2.35997247       0.00000000       0.00157670       0.00042590       0.00418134
C        2.39484727       8.68980447       3.18212547       0.00000000       0.00028706       0.00876368       0.00426799
C        9.80370269       0.06035270       3.68512636       0.00000000      -0.00456010       0.00129954      -0.00284502
C        8.56517516       2.18016239       3.88606825       0.00000000       0.00451487       0.00833230       0.00275489
C        7.32229957       4.30766540       3.87005542       0.00000000       0.00003618      -0.00600149      -0.00155994
C        6.08028649       6.43406454       3.59990299       0.00000000       0.00414428      -0.00450074       0.00760955
C        4.87490604       8.60877684       3.41534660       0.00000000       0.00314728      -0.00146279       0.00213963
C       -0.07344111       1.44661991       3.90581571       0.00000000       0.00029476      -0.00574940      -0.01065855
C       -1.28344565       3.59435564       3.91706302       0.00000000      -0.00276078      -0.00034884       0.00353497
C       -2.52736354       5.72716918       3.75937065       0.00000000      -0.00404687      -0.00612114      -0.00002268
C       -3.76922543       7.85557050       3.69776701       0.00000000       0.00040514       0.00547740      -0.00312489
C       -5.00808140       9.98673155       3.76950467       0.00000000       0.00747480       0.00113937      -0.00470674
C        2.39751085       1.42147939       3.94700393       0.00000000      -0.00103870      -0.00133196       0.00344938
C        1.15871842       3.53142254       4.01622027       0.00000000      -0.00784546       0.00160014      -0.00946132
C       -0.06007785       5.68344914       3.47461714       0.00000000       0.00187169       0.00318478      -0.00346421
C       -1.29315336       7.85871855       3.52200754       0.00000000      -0.00182083      -0.00339288      -0.00605492
C       -2.53209590       9.98471425       3.76161184       0.00000000       0.00477349       0.00529097      -0.00213088
C        4.87009582       1.44043382       3.89613678       0.00000000       0.00179988      -0.00508090      -0.01068014
C        3.63857320       3.52140588       4.01588625       0.00000000       0.00358862      -0.00262313       0.00181314
C        1.15474966       7.98158276       3.06304488       0.00000000      -0.00459946       0.00489158       0.00525765
C       -0.06938850      10.01611224       3.62378673       0.00000000      -0.00712062       0.00199344      -0.00055899
C        7.32973639       1.46840947       3.84471994       0.00000000       0.00452779       0.00434509      -0.00250705
C        6.08293309       3.59019864       3.90730909       0.00000000       0.00127094      -0.00392105      -0.00427846
C        4.83331418       5.70115423       3.53674804       0.00000000       0.00409096       0.00489365       0.00291558
C        3.63929025       7.97361320       3.09515715       0.00000000       0.00800028       0.00712493      -0.00541660
C        2.39808366      10.06196587       3.52358823       0.00000000      -0.00840334      -0.00713510       0.00315975
C        9.80172410       1.46920366       3.85213859       0.00000000       0.00191536       0.00427695      -0.00479887
C        8.56526436       3.60223593       3.90405492       0.00000000       0.00068779       0.00394679      -0.00835905
C        7.31949069       5.73057245       3.76328207       0.00000000       0.00194165      -0.00767810       0.00265559
C        6.09135663       7.86081317       3.53801157       0.00000000       0.00086191      -0.00501844       0.00458625
C        4.86650891      10.01832360       3.63838225       0.00000000       0.00083219       0.00185219      -0.00923478
Y        2.86953379       6.00471582       5.49007047       0.00000000      -0.00758295      -0.00815273      -0.00241984
O        3.34336176       5.10063569       7.20396119       1.00000000      -0.00520859       0.00055994      -0.00096592
O        4.46060062       5.84160523       6.67914385       1.00000000       0.00243130      -0.00296539       0.00438191
