51
Lattice="12.336457 0.0 0.0 -6.168228499999997 10.683685154694365 0.0 0.0 0.0 15.0" Properties=species:S:1:pos:R:3:initial_magmoms:R:1:forces:R:3 energy=-438.50600511885114 free_energy=-438.50600511885114 stress="-0.0012521665956829265 -0.0006317535597361234 6.331091174630934e-06 -0.0006317535597361234 -0.004082165587578425 -9.026845586284054e-06 6.331091174630934e-06 -9.026845586284054e-06 -1.579491366947491e-05" pbc="T T T"
C        0.08119569      -0.07977761       3.74152139       0.00000000      -0.00253059       0.00283537       0.01283351
C       -1.15494736       2.06135599       3.55904319       0.00000000      -0.00102901      -0.00654575       0.00297191
C       -2.41973011       4.19587117       3.55180211       0.00000000       0.01085978      -0.00357685       0.00260514
C       -3.63819983       6.33064289       3.69204179       0.00000000       0.00549862       0.00371122      -0.00636640
C       -4.85934231       8.45800316       3.78022827       0.00000000      -0.00484476       0.00188828       0.00138978
C        2.54902115      -0.11876168       3.85489031       0.00000000      -0.00299807       0.00215824      -0.00054250
C        1.34601394       1.98202824       3.56172053       0.00000000      -0.00203635      -0.00196977       0.00476660
C       -0.04059257       4.21104032       3.02904063       0.00000000      -0.00167940       0.00512436       0.00220386
C       -1.20944451       6.35605128       3.29077706       0.00000000      -0.00623763      -0.00313592      -0.00369289
C       -2.38182158       8.45865285       3.67309444       0.00000000       0.00546354       0.00064091      -0.00983418
C        5.02130190      -0.09650565       3.91423099       0.00000000      -0.01070809       0.00593691      -0.00079207
C        3.75917997       1.97410788       4.25757130       0.00000000      -0.00240380       0.00210561       0.00829390
S        1.38099583       6.43286317       2.21507987       0.00000000       0.00538471       0.00093436      -0.00571457
C        0.08453951       8.47509362       3.53093898       0.00000000      -0.00110844       0.00139226       0.00934891
C        7.48393772      -0.07273758       3.85684057       0.00000000       0.00156979      -0.00116348      -0.01154482
C        6.24313300       2.06779834       4.10261238       0.00000000       0.00248833      -0.00242230       0.01258578
C        5.04824989       4.27770738       4.36405528       0.00000000      -0.00041053      -0.00254692       0.00574965
O        3.85694058       6.41648822       4.20090157       0.00000000       0.00243135       0.00025315       0.00272934
C        2.57065846       8.46669164       3.71951590       0.00000000       0.00224602      -0.00793766       0.00899977
C        9.95280254      -0.07067061       3.79598768       0.00000000      -0.00489560       0.00358891       0.00581366
C        8.70938148       2.06619728       3.82326561       0.00000000       0.00303816       0.01081554       0.00820528
C        7.46747664       4.20320947       3.91951912       0.00000000       0.00439284      -0.00396237       0.00644326
C        6.25189046       6.35489598       3.94630388       0.00000000       0.00560701      -0.01061128       0.01329066
C        5.02112567       8.47407440       3.84254306       0.00000000      -0.00012665       0.00362496      -0.00611053
C        0.08581966       1.34951078       3.60961206       0.00000000      -0.00139743      -0.00331211      -0.00180027
C       -1.19291290       3.47333582       3.38106467       0.00000000       0.00577521      -0.00737220      -0.00237763
C       -2.42012095       5.62004071       3.51294216       0.00000000       0.00050549      -0.00483163      -0.00499977
C       -3.62295412       7.75009563       3.71035076       0.00000000       0.00274276       0.00693519       0.00187487
C       -4.85764566       9.87997311       3.78031881       0.00000000      -0.00380615       0.00372029       0.00240966
C        2.54618878       1.29501129       3.92881066       0.00000000       0.00112670       0.00218699      -0.00174223
S        1.54456446       3.51575167       2.78587250       0.00000000      -0.00123037      -0.00437664      -0.00263822
C       -0.06786129       5.62758660       2.88787179       0.00000000      -0.00506976       0.00389305      -0.00190420
C       -1.15498527       7.76673413       3.47462917       0.00000000       0.00239158      -0.00277704      -0.01314209
C       -2.37695879       9.87023424       3.83218037       0.00000000      -0.00535011       0.00003038      -0.00613719
C        5.01685048       1.32439405       4.12480040       0.00000000      -0.00552181       0.00567799      -0.01275331
P        3.63437642       3.50947942       5.08673368       0.00000000       0.00058433       0.00606866       0.00052206
C        1.33174365       7.82193230       3.33130379       0.00000000      -0.00219674      -0.00106934       0.01137836
C        0.08580841       9.89010752       3.78880463       0.00000000      -0.00735534       0.00584655       0.00812527
C        7.47548797       1.35673998       3.94508584       0.00000000       0.00507654       0.00310992      -0.01125469
C        6.24259203       3.50296388       4.13946194       0.00000000      -0.00008549      -0.00349912       0.00987540
C        5.06537046       5.67242608       4.19301525       0.00000000      -0.00123631      -0.00494010      -0.00471709
C        3.81262040       7.79518092       3.87754557       0.00000000       0.00368106      -0.00277117      -0.00354743
C        2.55419699       9.90206532       3.80834126       0.00000000       0.00167961      -0.00727552      -0.00346532
C        9.95399284       1.36056859       3.73353596       0.00000000      -0.00674846       0.00219415      -0.01368220
C        8.69718927       3.48774702       3.77399460       0.00000000       0.00603910       0.00664580      -0.00817052
C        7.47407783       5.62121917       3.85488559       0.00000000       0.00993139      -0.00617518      -0.00413138
C        6.25290103       7.76353779       3.84785813       0.00000000      -0.00272935      -0.00636349       0.00885862
C        5.01256638       9.90215341       3.78490275       0.00000000      -0.00332640       0.00629349      -0.00617776
Y        1.72754676       5.55723901       4.78467307       0.00000000       0.00377505      -0.00187689      -0.01453766
O       -0.31884177       7.37722443       6.48053301       1.00000000      -0.00473888       0.00805975       0.00290286
O        0.54710451       6.58725575       5.95969592       1.00000000      -0.00048744      -0.00515956       0.00759881
