52
Lattice="12.336457 0.0 0.0 -6.168228499999997 10.683685154694365 0.0 0.0 0.0 15.0" Properties=species:S:1:pos:R:3:forces:R:3 energy=-442.2681734806462 free_energy=-442.2681734806462 stress="-0.003981512072947911 -0.0019104817300807943 -1.0985308622827126e-05 -0.0019104817300807943 -0.00769885844116596 -3.145469660303419e-05 -1.0985308622827126e-05 -3.145469660303419e-05 1.2186843386231341e-05" pbc="T T T"
C       -0.08215524      -0.04721814       4.03853807       0.00543402       0.00221069      -0.00271560
C       -1.32017023       2.10853427       4.16368473       0.01033339      -0.00001619      -0.00034498
C       -2.55657063       4.24861523       3.91785577      -0.00043605      -0.00469196       0.00172072
C       -3.76487256       6.38525956       3.71596683      -0.00072674      -0.00002245       0.00658530
C       -5.01560174       8.50249884       3.81367871       0.00143804       0.00576892       0.00066602
C        2.39180063      -0.07225585       3.88705977      -0.00294237      -0.00165777       0.00799470
C        1.18119124       2.03601098       4.22136341      -0.00469632      -0.00449709       0.00649167
C       -0.13943459       4.27618640       4.22109714       0.00410031      -0.00069945       0.00090631
C       -1.30954343       6.38495265       3.78006906       0.00303310       0.00224572       0.00400942
C       -2.52501206       8.50341017       3.76678730      -0.00176093       0.00072300       0.00104232
C        4.85799010      -0.02812572       3.76185347       0.00286512      -0.00615303       0.00109462
C        3.58941767       2.03603378       3.55954189       0.00196037       0.00109335      -0.00945691
S        1.36614531       6.26113188       3.27191794      -0.00647097       0.00409238       0.00566894
C       -0.06412696       8.52726189       3.78602600      -0.00240332      -0.00170472      -0.00093194
C        7.32059514      -0.00347401       3.88507777       0.00079152      -0.00064681      -0.00517379
C        6.08315251       2.11819553       3.58982745       0.00166547       0.00905725       0.00433067
C        4.97001283       4.27330017       3.08481721      -0.00480856      -0.00679320       0.00373394
O        4.30442887       6.21143948       1.85686539      -0.00146712       0.00129872       0.00104509
C        2.42592539       8.55654522       4.02477988      -0.00340399      -0.00438192       0.00002937
C        9.79335060      -0.00510188       4.04420738       0.00137063       0.00188101       0.00544470
C        8.55065356       2.12365010       3.88612958       0.00070623      -0.00179403      -0.00233058
C        7.34344805       4.25272760       3.56152489      -0.00521976      -0.00389572       0.00804719
C        6.15145726       6.41960925       3.40368208      -0.00328318      -0.00751432      -0.00105690
C        4.82746832       8.49780979       3.97187283      -0.00235408       0.00953724      -0.00528352
C       -0.07774555       1.38231490       4.17135369       0.00034887      -0.00336974       0.00445012
C       -1.34326665       3.53055963       4.13642205       0.00709930      -0.00181255      -0.00222287
C       -2.54517502       5.66759043       3.81185233       0.00135582      -0.00095567      -0.00512098
C       -3.77035069       7.80057005       3.75297885      -0.00166864       0.00384867       0.00448456
C       -5.01759932       9.91728206       3.93618021      -0.00312833       0.00497596      -0.00232648
C        2.38989536       1.34514213       3.91634460      -0.00060900       0.00046090       0.00276545
P        1.34099104       3.63256362       4.91564594      -0.00623601       0.00840822       0.00225438
C       -0.12991395       5.62252823       3.82930166      -0.00117643      -0.00036009      -0.00145654
C       -1.29170199       7.80096211       3.73937843      -0.00161422       0.00017163      -0.00584931
C       -2.53440311       9.92611229       3.79622596      -0.00321071      -0.00229904       0.00002364
C        4.84706697       1.40441312       3.62434111       0.00591467      -0.00096741      -0.00165519
S        3.40304220       3.59521642       2.82128347       0.00700246       0.01043119       0.00168133
C        1.18434598       7.88700133       3.78997051      -0.00374382       0.00101744      -0.00328509
C       -0.07401741       9.96081942       3.82060367       0.00463927      -0.00433696      -0.00437629
C        7.30965642       1.42211311       3.79312167      -0.00205603       0.00430100      -0.01022993
C        6.11389744       3.53441480       3.40839086      -0.00059746       0.00422381       0.00455889
C        5.05748442       5.71129501       2.70870370      -0.00964112      -0.01596725      -0.00462503
C        3.61808882       7.85176596       4.16155923       0.00093564      -0.00881858      -0.00069018
C        2.38942165       9.99381936       4.00630831      -0.00068989      -0.00255729      -0.00563700
C        9.78596569       1.41747379       4.04435649       0.00794664      -0.00137609      -0.00086609
C        8.55494788       3.54069882       3.79686104      -0.00469159      -0.00436318       0.00106240
C        7.34793460       5.67711234       3.55225403       0.00194903      -0.00395905       0.00406628
C        6.08938900       7.79825887       3.73641357      -0.00005972       0.00167254      -0.00249169
C        4.85180631       9.94750657       4.02538126       0.00648576       0.00781346       0.00002688
Y        3.52263409       5.62964277       5.08248815       0.00439604      -0.00061357      -0.00424962
O        5.04593028       5.71304238       6.49748033      -0.00400298      -0.00321604       0.01379317
O        3.77702201       5.99380641       7.32876795      -0.00573897       0.00341313      -0.01784914
H        4.03619208       5.49254593       8.12001363       0.00706660       0.01079492       0.00224759
