52
Lattice="12.336457 0.0 0.0 -6.168228499999997 10.683685154694365 0.0 0.0 0.0 15.0" Properties=species:S:1:pos:R:3:forces:R:3 energy=-443.59003848544535 free_energy=-443.59003848544535 stress="-0.0015102728884970854 -0.0008188967394045818 -5.3852715224633796e-05 -0.0008188967394045818 -0.004591655986729834 3.289276575023843e-05 -5.3852715224633796e-05 3.289276575023843e-05 2.654775100301883e-05" pbc="T T T"
C        0.10335628      -0.09668124       3.82262888       0.00297435       0.00028507      -0.00504987
C       -1.13316650       2.04269519       3.63136235      -0.00352304      -0.00743854      -0.00085577
C       -2.39857289       4.17904943       3.61492336       0.00210979      -0.00887378      -0.00192800
C       -3.61545407       6.31446074       3.75422643      -0.00392809      -0.00427480      -0.00479487
C       -4.83644928       8.44131096       3.85225762      -0.00666048       0.00063340      -0.00358009
C        2.57094844      -0.13579527       3.93552195       0.00070076       0.00583379      -0.00567393
C        1.36744946       1.96465143       3.65951644      -0.00107488      -0.00060537       0.00064744
C       -0.01690887       4.19096321       3.12059446      -0.01156108       0.01397161       0.00485036
C       -1.18688241       6.33756692       3.36253161       0.00044422      -0.00192711      -0.00153105
C       -2.35890057       8.44276653       3.73368960      -0.00084009       0.00396693       0.00372132
C        5.04218049      -0.11084821       3.98351085       0.00213615       0.00220508      -0.00395355
C        3.78199235       1.95792553       4.34048700      -0.00690669       0.00231082       0.00186965
S        1.43319722       6.37875267       2.40728003      -0.00233293      -0.01894355      -0.00161628
C        0.10504311       8.46431524       3.59199130      -0.00040321      -0.00178767       0.00554388
C        7.50572203      -0.08714682       3.92012126       0.00458351       0.00065009       0.00938002
C        6.26616347       2.05279649       4.17723693      -0.00223088      -0.00988211      -0.00675185
C        5.07276629       4.26111972       4.44341510       0.00402773       0.00186634      -0.00012880
O        3.88308564       6.40186567       4.28963210       0.00141101       0.00389818       0.00569120
C        2.59458353       8.45222650       3.80266102       0.00142026       0.00663995       0.00525106
C        9.97523980      -0.08632228       3.86440581      -0.00429273       0.00333344       0.00636210
C        8.73143424       2.05010261       3.88819052      -0.00077609       0.01459435       0.00207618
C        7.49018462       4.18715682       3.99002966      -0.00320922      -0.00232651      -0.00653511
C        6.27463664       6.33702439       4.01774860      -0.00508777      -0.00046787       0.00475130
C        5.04323660       8.45784265       3.91713658       0.00003584      -0.00738175      -0.00080430
C        0.10737719       1.33204366       3.69255272      -0.00073705       0.00684440       0.00694606
C       -1.17015124       3.45454418       3.45162169      -0.00209414      -0.00399059       0.00154030
C       -2.39867131       5.60302021       3.57700540      -0.00074215      -0.01045539      -0.00819688
C       -3.59967040       7.73326825       3.77516874      -0.00590385       0.00676756      -0.00393721
C       -4.83575798       9.86321603       3.86030389      -0.00163838       0.00455450      -0.00342790
C        2.56793087       1.27690525       4.01887829       0.00041117       0.00077500       0.00024036
S        1.57618541       3.50779185       2.92395027       0.01282659      -0.00353808      -0.00314496
C       -0.03706636       5.60168721       3.01491868       0.01177936       0.01774244       0.00667478
C       -1.13365557       7.75129289       3.53552665      -0.00714130      -0.00395882       0.00107931
C       -2.35444155       9.85412042       3.90095137      -0.00099331       0.00425298      -0.00016920
C        5.03902704       1.31007233       4.19899143      -0.01021628      -0.00327021      -0.00621307
P        3.66768579       3.48758907       5.17596491      -0.00218445      -0.00014026      -0.00149865
C        1.35547306       7.81269444       3.42332582       0.00024238       0.00578373       0.01007067
C        0.10613597       9.87779882       3.85387761       0.00260963       0.00326193      -0.00916232
C        7.49757100       1.34185026       4.01065036       0.00561712       0.00365403      -0.00330741
C        6.26585203       3.48788506       4.21657582      -0.00502360      -0.00069751       0.00028512
C        5.08741923       5.65686737       4.26990933      -0.00448623       0.00665657      -0.00003082
C        3.83570415       7.77796146       3.96066364       0.00330757       0.00239928      -0.00244311
C        2.57697396       9.88653338       3.87729256      -0.00278158       0.00513675      -0.00162678
C        9.97594678       1.34382981       3.79887216      -0.00894845       0.00088294      -0.00201224
C        8.71930980       3.47156895       3.83843654       0.00040411       0.00860978      -0.00628459
C        7.49673525       5.60445168       3.92105343      -0.00544662      -0.00245012      -0.00086064
C        6.27604274       7.74661592       3.92096248      -0.00311255      -0.00378771       0.00374911
C        5.03521012       9.88631057       3.85854201       0.00320184      -0.00575951      -0.00012295
Y        1.80881988       5.62489240       5.08965058       0.00754097      -0.02077934       0.06147767
O        1.52180487       7.15637581       6.44123592      -0.00616026       0.01276291      -0.00789919
O        0.21916422       6.36597685       6.43630409       0.06226849      -0.00374903      -0.04373738
H       -0.25644853       6.86099960       7.12799738      -0.00961544      -0.02378820       0.00507087
