51
Lattice="12.336457 0.0 0.0 -6.168228499999997 10.683685154694365 0.0 0.0 0.0 15.0" Properties=species:S:1:pos:R:3:initial_magmoms:R:1:forces:R:3 energy=-443.19883955400684 free_energy=-443.19883955400684 stress="-0.0013675895067961595 -0.0021475628158910396 -5.479454313750216e-08 -0.0021475628158910396 0.0016314242652053855 1.3116310955642579e-05 -5.479454313750216e-08 1.3116310955642579e-05 -3.657266982058444e-05" pbc="T T T"
C       -0.00877838      -0.08447077       3.81285176       0.00000000       0.00133375       0.00135400      -0.00284750
C       -1.26257253       2.04518189       3.85431152       0.00000000       0.00072132      -0.00078521       0.00249399
C       -2.48070017       4.18555770       3.83044607       0.00000000      -0.00289785       0.00052297       0.00316553
C       -3.69246576       6.32607875       3.78383526       0.00000000      -0.00501039      -0.00327732       0.00616486
C       -4.93342392       8.46903548       3.78484222       0.00000000       0.00353642       0.00192713      -0.00281522
C        2.45826995      -0.07532692       3.80793012       0.00000000      -0.00149170       0.00470762      -0.00260731
C        1.18987407       2.02784557       3.88425202       0.00000000      -0.00141532       0.00101973      -0.00407312
C       -0.06381688       4.18578257       4.02717516       0.00000000       0.00109016      -0.00458936       0.00336448
C       -1.23823449       6.31760351       3.90767125       0.00000000       0.00166632       0.00166307       0.00419057
C       -2.45823591       8.45613563       3.83017738       0.00000000       0.00036219       0.00305554      -0.00087199
C        4.92777403      -0.08980358       3.69814840       0.00000000       0.00111018      -0.00318324      -0.00530969
C        3.66873736       2.00900360       3.37554682       0.00000000      -0.00140315      -0.00436155       0.00231522
O        1.16903225       6.33651221       3.96392948       0.00000000       0.00182078       0.00445482       0.00641146
C        0.00793024       8.43455183       3.79993366       0.00000000       0.00167245      -0.00406234      -0.00204427
C        7.39456842      -0.10639509       3.69456278       0.00000000      -0.00334393      -0.00638859      -0.00890175
C        6.14993206       2.05574612       3.50566076       0.00000000       0.00246501       0.00645398      -0.00334386
C        4.98165181       4.25630220       3.26363641       0.00000000      -0.00072573      -0.00163738      -0.00295153
O        3.78486770       6.36936766       3.49735962       0.00000000       0.00638812       0.00417284       0.00139044
C        2.46386850       8.39144602       3.72198565       0.00000000      -0.00124307       0.00060712       0.00084769
C        9.84814656      -0.10598583       3.74913459       0.00000000       0.00129197      -0.00151511      -0.00584667
C        8.61445216       2.04484197       3.71396130       0.00000000      -0.00061945      -0.00225634      -0.00129043
C        7.39512526       4.19159171       3.63123923       0.00000000       0.00128129       0.00440045      -0.00079395
C        6.20661629       6.35731164       3.59915305       0.00000000      -0.00613629       0.00034977      -0.00006641
C        4.93329720       8.46022382       3.67281628       0.00000000      -0.00168745      -0.00117886      -0.00356613
C       -0.01914757       1.34661922       3.86068459       0.00000000      -0.00031769       0.00012696      -0.00052434
C       -1.25750949       3.46633560       3.90254978       0.00000000      -0.00187546      -0.00139915       0.00228627
C       -2.46590197       5.60327378       3.84695276       0.00000000      -0.00153691       0.00186242       0.00383858
C       -3.69588928       7.75124950       3.81002950       0.00000000       0.00156341      -0.00272314       0.00131896
C       -4.93886677       9.89903522       3.82333009       0.00000000       0.00179922       0.00410912      -0.00401454
C        2.43719649       1.36424760       3.73340139       0.00000000      -0.00432271       0.00149064      -0.00042404
O        1.13835354       3.41802066       4.10806560       0.00000000       0.00524060      -0.00359178       0.00102358
C       -0.04355379       5.59548501       4.00822120       0.00000000       0.00037477      -0.00109527       0.00108648
C       -1.23373442       7.73771965       3.85343245       0.00000000       0.00137602       0.00222167       0.00205541
C       -2.47303985       9.89020676       3.78641956       0.00000000      -0.00172748       0.00414411      -0.00427870
C        4.91227028       1.34014462       3.51913464       0.00000000       0.00243107       0.00071710       0.00074030
S        3.60378111       3.50677721       2.44402732       0.00000000       0.00189075       0.00559067       0.00006976
C        1.21144526       7.73406338       3.80555486       0.00000000       0.00153780      -0.00036409      -0.00070168
C       -0.00315289       9.87221186       3.72833651       0.00000000      -0.00078968      -0.00769417       0.00112020
C        7.37878911       1.33508318       3.63804386       0.00000000      -0.00198141      -0.00255343      -0.00005045
C        6.16648025       3.48302036       3.45981406       0.00000000       0.00429857       0.00627931      -0.00092599
C        5.01785140       5.66377987       3.42969563       0.00000000       0.00137537       0.00028263       0.00104547
C        3.73147826       7.76796461       3.61688560       0.00000000      -0.00118507      -0.00149299       0.00634105
C        2.45484775       9.84872329       3.72100287       0.00000000      -0.00084456      -0.00056732       0.00043665
C        9.85185130       1.33202456       3.77931618       0.00000000       0.00170539      -0.00175216      -0.00356899
C        8.62196132       3.47059923       3.72813712       0.00000000      -0.00160379      -0.00041327       0.00443943
C        7.41818609       5.61524193       3.67487851       0.00000000      -0.00613644       0.00150624       0.00338154
C        6.18411593       7.76943065       3.69096185       0.00000000      -0.00009180       0.00211596       0.00085550
C        4.92387907       9.88694995       3.75352265       0.00000000       0.00095468      -0.00110777       0.00126745
Y        2.76820819       4.84657729       4.82660527       0.00000000      -0.00561175      -0.00009986      -0.05465728
O        2.77749072       7.50836732       6.66682589       1.00000000      -0.00685106       0.00138004      -0.00624332
O        2.80098456       6.34743889       6.12754140       1.00000000       0.01156256      -0.00842619       0.06106829
