52
Lattice="12.336457 0.0 0.0 -6.168228499999997 10.683685154694365 0.0 0.0 0.0 15.0" Properties=species:S:1:pos:R:3:forces:R:3 energy=-441.0953141509158 free_energy=-441.0953141509158 stress="-0.0003331077196283361 0.0010386842288515365 8.330137426023786e-06 0.0010386842288515365 -0.0045374009734391405 5.677014842703364e-05 8.330137426023786e-06 5.677014842703364e-05 2.0088979513293143e-05" pbc="T T T"
C        0.00209024       0.03061943       3.66102221       0.00277731      -0.00278176      -0.00249167
C       -1.23819887       2.16206078       3.41153440      -0.00471857      -0.00423630       0.00101276
C       -2.49778347       4.30213136       3.52786879       0.00065375      -0.00404895      -0.00757270
C       -3.72562239       6.42569653       3.76378546       0.00252863       0.00174030       0.00042299
C       -4.95016757       8.55968489       3.81587980      -0.00584587      -0.00108543      -0.00049096
C        2.46658806       0.01820596       3.84863176      -0.00035696      -0.00562713      -0.00485364
C        1.27112329       2.11482985       3.40099077      -0.00001015       0.01173065       0.00363558
C       -0.08453759       4.32090485       3.15675205      -0.00567087       0.00300686       0.00493204
C       -1.24326585       6.43123633       3.72110435       0.00964449      -0.00497494      -0.01232672
C       -2.47225668       8.55531341       3.90087240       0.00455042       0.00361450      -0.00344805
C        4.93237397       0.01291645       3.92500637      -0.00205920       0.00582238       0.01203485
C        3.72131788       2.16418789       3.97619286       0.00356074       0.00093316       0.00011840
P        1.57037844       6.19076315       4.12350104      -0.01254700      -0.00275397      -0.00695789
C        0.00065860       8.56568203       3.99051227      -0.00392727      -0.00702719      -0.00275734
C        7.39338139       0.04289969       3.85131016      -0.00582024       0.00236895       0.00388118
C        6.16427395       2.15403826       3.85095262       0.00485042      -0.00089357       0.00073686
C        4.91496206       4.23303498       4.00040077       0.00123706       0.00472140       0.00538862
B        3.54500571       6.42234580       3.89961690       0.00939307       0.01506534      -0.00420886
C        2.47415486       8.64645155       3.92903609       0.00650168      -0.00008352       0.00832417
C        9.87437782       0.05407782       3.69882310       0.00028239       0.00512349      -0.00386041
C        8.62792598       2.16934735       3.64406671      -0.00122805       0.00281840       0.00486913
C        7.37746714       4.29385454       3.74385529       0.00123459      -0.01017010       0.00226742
C        6.11660336       6.41200138       3.83398116      -0.00767631      -0.00068943       0.00493404
C        4.93121425       8.58667237       3.78991219       0.00173960       0.00055698       0.00439356
C        0.00847020       1.45077758       3.47200674      -0.00092334       0.00264761       0.00292141
C       -1.27911086       3.58006146       3.32450699      -0.00380168      -0.00329709      -0.00610832
C       -2.48768047       5.72284234       3.66360191       0.00731004      -0.00496147      -0.00522165
C       -3.71418643       7.84805743       3.83713466       0.00010201       0.00998326      -0.00062807
C       -4.94047001       9.99001554       3.78063860      -0.00082683      -0.00506767      -0.00484462
C        2.47561287       1.44395680       3.76811520       0.00229002      -0.00245395      -0.00980975
P        1.42896850       3.66736568       2.57251172      -0.00138392       0.01602930      -0.00445492
C       -0.02835707       5.68737070       3.53626353       0.00862292       0.00491570      -0.00792013
C       -1.23606683       7.84367665       3.90373010       0.00100636      -0.00917041      -0.01087257
C       -2.47303722       9.98171566       3.92295266       0.00174694       0.00209257       0.00263632
C        4.93961045       1.43744554       3.91553438       0.00585781       0.00214393       0.00575409
N        3.78025714       3.50127775       4.25065466       0.00173916       0.00424067       0.00456668
C        1.26078511       7.92112280       4.07082167       0.00096944      -0.00085441      -0.00356132
C       -0.00068758       9.99483455       3.93516394      -0.00785233      -0.00227065       0.00569810
C        7.39771506       1.45811889       3.77671824       0.00236453       0.00323648      -0.00204088
C        6.15886665       3.56467263       3.84166851      -0.00042904      -0.00264355       0.00431838
C        4.87758241       5.67475673       3.91606151      -0.00646389       0.00434964       0.00701849
C        3.68515603       7.92395628       3.85411751       0.00645270      -0.00023674       0.01214816
C        2.46850928      10.05100485       3.82805803      -0.00058795       0.00250885       0.00165076
C        9.87041611       1.46529765       3.57436039      -0.00632275       0.00338466       0.00513197
C        8.61481950       3.58999569       3.62725868       0.00257886      -0.00454349       0.00147510
C        7.36858474       5.71539509       3.77546450      -0.00206121      -0.00682130       0.00605865
C        6.14877740       7.84748668       3.80685936      -0.00519300      -0.00239455       0.00146113
C        4.93794238      10.01668460       3.71126941       0.00273806      -0.00064952       0.00339689
Zn       2.45528598       4.59998748       5.42376049      -0.00361436      -0.00403607      -0.00460790
O        2.75528415       3.59286818       6.96395035      -0.00058272      -0.00385891      -0.00922129
O        2.18787797       4.48414214       7.99647026      -0.00210194       0.00196188      -0.00082286
H        2.99863742       4.63768935       8.51463074      -0.00072754      -0.01736487      -0.00210520
