51
Lattice="12.336457 0.0 0.0 -6.168228499999997 10.683685154694365 0.0 0.0 0.0 15.0" Properties=species:S:1:pos:R:3:initial_magmoms:R:1:forces:R:3 energy=-546452.3344512092 free_energy=-546452.3344512092 stress="1063.5244242794836 30.166843093955453 187.89152350073695 30.166843093955453 143.84788736931975 -32.95822119449987 187.89152350073695 -32.95822119449987 89.23375738046087" pbc="T T T"
C        0.84335657      -0.51216450       2.10748001       0.00000000   13847.73797052   16099.91557547     941.96048336
C       -0.83047902      -4.14618203       1.06747377       0.00000000   -1514.32067915    -663.88068107    1175.75880426
C        6.35805284       5.51961917       6.72861290       0.00000000     -83.30498874     -21.38226771     -24.95246742
C        2.78690715       4.69967948       5.25989609       0.00000000     398.33012853    1490.61672034    3166.47457451
C       -3.52801391       7.87645623       5.25424499       0.00000000      10.67643277     -30.37933181      27.99628692
C       -1.96547284      -4.51036470       3.95718717       0.00000000    -950.28648563   -1016.64616005   -4696.77064899
C        0.62578217       2.87838230       1.19547811       0.00000000  194799.39698538   54644.34711761   37300.20628639
C       -4.13475307       3.46767455       6.60405250       0.00000000      -0.45539316       0.72632021       0.82887714
C       -5.96517543      17.52579087      11.45291321       0.00000000       0.93889356      -2.22319215       4.61909540
C        1.32806879      13.68684569       3.26860022       0.00000000    -812.69370640       7.60289864    -116.44955376
C        2.13435563      -6.19317372      -0.73950567       0.00000000    -188.77160005      70.59472908     -86.47380870
C       25.12956968       2.82117514      13.83872820       0.00000000    -762.72293270     246.08198831    4085.21474961
B       -5.37387769       5.96422129       7.51723651       0.00000000      22.05817436      12.22938241      29.00393574
C        2.68043124       6.59259697       2.61448463       0.00000000    2168.86991769     884.15065387     497.91315150
C        8.88553746      -1.00126448       5.86971229       0.00000000      -3.64359018       3.11360952       2.07188682
C        3.71145039       5.05644294      -0.74569316       0.00000000     220.20921082    2221.81618051    -571.19131779
C        4.45681186       6.34392791       1.47814799       0.00000000    -872.99262359   -1792.40576152      61.28752267
O        2.02387068       1.56171483       1.61306226       0.00000000  -29021.83289095  -53104.42026568  -98099.22275056
C       -0.26863015       4.84728097       0.93760973       0.00000000    9322.62250032  -21321.44337660    5807.66062900
C        9.98802184      -4.21362960       4.36311973       0.00000000    -476.27826852    2063.67628049    1888.75203786
C        6.22101988       8.36415193      11.84640748       0.00000000       4.67403493       1.63208554      -6.10915911
C        5.08888920       5.14487792       2.19621020       0.00000000   -4570.74913952   -5252.26772529    1501.61666527
C        3.35233808       3.47409239       0.94651221       0.00000000  -22993.59074485  -22833.13558922   10552.52548239
C        3.81389032      11.93934530      10.01368306       0.00000000       0.47154639       3.18814960      -1.64589882
C       -4.19836504       0.09197010       3.95415360       0.00000000      -0.09085605      -5.45249888       5.32494333
C        1.05561772       5.45870324       7.84488723       0.00000000      23.76543040      84.96807092     128.13403355
C        0.80842056       4.15821191       1.89709904       0.00000000  116930.76360195  -58854.43881019   34792.29043075
C       -4.88799961       8.94614640      10.67718138       0.00000000      -5.13198736      -2.41183885       4.90744746
C       -5.01645545      11.09938666       2.30527768       0.00000000     815.02085527   16243.23423399    4336.71683128
C        0.77333344       3.00225871       1.65400222       0.00000000 -192141.91481689  -49824.85697559  173956.37150211
C       -4.76264021       4.73507977       2.83552960       0.00000000    -419.82128347    -282.46687155      59.63029370
C       -4.67702937      10.73912378       1.96958804       0.00000000  -20273.11819793  -21713.54138839   11716.09348759
C        1.74911122       5.48774710       5.24360163       0.00000000     676.24937161     187.62544471     762.05340128
C       -1.48032906       4.10166838       9.82454872       0.00000000      -1.74947890      -3.41391304      -4.23298312
C       12.73992357       4.92475113      -6.88054953       0.00000000     -73.72669766     -49.44742259      60.28841496
C        2.40924536       2.92476324       2.34428588       0.00000000 123293288.51366484 51808728.69086507 102002777.71722089
C        0.81389366       4.69039728       2.67258194       0.00000000   47369.51568384   -9818.01693184  -35368.64229917
C        1.20528642       5.13424352       1.47286304       0.00000000   -1790.65051035  -44591.42934475   30978.69634523
C       10.27045940       3.12870267       8.64787852       0.00000000       1.34486318       0.62626763       6.11405895
C        7.96560400       5.16453241       2.12389594       0.00000000      65.89983473     119.99494558     -52.79785992
C        5.57624735      13.61604339       0.16775906       0.00000000  -22535.08811581   10655.82332486  -15696.98364738
C        1.57195085      17.61765590       6.97044724       0.00000000      14.63177336       8.37011450       1.88435678
C        4.07986278       9.63050129       1.76852280       0.00000000    -191.20316414    -241.02623753      22.44106081
C        9.24575821      -1.03304056       3.86306230       0.00000000     -50.91793351      18.93814681      13.64000832
C       10.10161075       0.20339712       1.25095871       0.00000000    -404.95442110    -628.30219716     205.12334463
C        5.36819181       5.77503665       4.76221400       0.00000000    -614.86487657    -794.01178009      -6.23693404
C       -2.35444463       7.00312278       1.70633509       0.00000000    -170.15728464     192.98221976     -15.60780365
C        1.08150673      10.25804117      -2.99123736       0.00000000       0.06609445       0.01045965       0.03862202
Zn       1.85877248       2.87059589       2.24566824       0.00000000 3404790.79984094  367247.20801892  132240.89025084
O        4.64321587       4.06309982       4.92574378       1.00000000     723.51952665   -4320.63363119   -4385.88713291
O        2.40880730       2.92566958       2.34436183       1.00000000 -126784571.04366869 -51984070.52961124 -102299979.04225798
