52
Lattice="12.336457 0.0 0.0 -6.168228499999997 10.683685154694365 0.0 0.0 0.0 15.0" Properties=species:S:1:pos:R:3:forces:R:3 energy=-441.5209882841031 free_energy=-441.5209882841031 stress="-0.0014045537322789098 -0.000161457255437173 -1.0996399656788818e-05 -0.000161457255437173 -0.006448513861114472 1.311317216849677e-05 -1.0996399656788818e-05 1.311317216849677e-05 -6.050392852712782e-06" pbc="T T T"
C        0.00222867      -0.00493476       3.60610095      -0.00919095      -0.00803785       0.01099706
C       -1.22352529       2.14716464       3.50139290       0.00116672      -0.00649184      -0.00388188
C       -2.47938499       4.27814124       3.59334018       0.00635430       0.00002128       0.00187936
C       -3.71579170       6.40793804       3.67267923      -0.00927976       0.00265638       0.01490597
C       -4.93836578       8.53381855       3.69121809       0.00392315       0.00098393       0.00268759
C        2.46638935      -0.05967183       3.71013948       0.00173034      -0.00219540      -0.00739463
C        1.27428298       2.05343562       3.43896411      -0.00080041       0.01024014       0.00277012
C       -0.02585119       4.32225401       3.57703329       0.00679312       0.00118161       0.00408578
C       -1.26643492       6.41713749       3.84907859      -0.00058274       0.00144273       0.00107595
C       -2.46637708       8.53095307       3.81082532       0.00960037      -0.00221839      -0.00166921
C        4.93544417      -0.01151223       3.79298097       0.00419492      -0.00151177      -0.00731948
C        3.67592798       2.06987044       3.63869334       0.00408865      -0.00716172      -0.00031471
B        1.15161603       6.45039532       4.25215699      -0.00203046      -0.00517343      -0.00838464
C       -0.00426736       8.56078636       3.95637585      -0.00070125       0.00091423       0.00229863
C        7.40361266       0.01831196       3.78573989      -0.00305854      -0.00146117       0.00652504
C        6.15005042       2.15574208       3.66129044      -0.00326640      -0.00582394       0.00461462
C        4.87519877       4.32074849       3.61646519      -0.00326989      -0.00144134       0.00886449
N        3.78118157       6.46618532       4.04093450       0.01317449       0.01338586      -0.00204836
C        2.49175396       8.57018568       3.96886528      -0.00071229       0.00171733      -0.00031404
C        9.87400367       0.01572260       3.68564816      -0.00009513       0.00485018       0.00638038
C        8.63056081       2.14889749       3.60421537      -0.00921928       0.00052935       0.00153510
C        7.37584213       4.28361696       3.59247898      -0.00522701       0.00063503       0.00699971
C        6.16332062       6.43145445       3.64933592      -0.00470131       0.00465345       0.00296367
C        4.94054055       8.55385192       3.75547908       0.00811276      -0.00328580      -0.00483098
C        0.01401751       1.42958969       3.49788085       0.00320804      -0.00459731       0.00189699
C       -1.22212960       3.56769777       3.52271167       0.00744128      -0.00328923      -0.01661709
C       -2.48977076       5.69734586       3.69571695      -0.00424866       0.00181907       0.00761117
C       -3.70465812       7.82488652       3.72642381       0.00501538       0.00297073       0.00611874
C       -4.94343868       9.95002768       3.67260322      -0.00306986      -0.00212204       0.00336034
C        2.47310993       1.35016035       3.61500439       0.00005887       0.00035889      -0.00533900
S        1.59611394       3.73936359       3.08292276      -0.00128819       0.01589764      -0.00185594
C       -0.04817867       5.68843335       3.89659454      -0.00194771       0.00197622       0.00096098
C       -1.23189426       7.83281228       3.89842965       0.00686282      -0.00058150      -0.00064477
C       -2.45954086       9.94424824       3.79023162       0.00739019      -0.00281440      -0.01000526
C        4.92718425       1.41999481       3.71068491       0.00296269      -0.00775721      -0.00796350
B        3.56042962       3.54328428       3.58154650      -0.00309148      -0.00157203       0.00442336
C        1.25117606       7.89033119       4.07489914      -0.00253689      -0.00243748       0.00998285
C       -0.00020509       9.98383335       3.85233636       0.00013045      -0.00244818      -0.00031402
C        7.39251295       1.44256351       3.67913344      -0.00691801      -0.00417686       0.00009879
C        6.11719098       3.58797246       3.60407098      -0.00446428      -0.00420453      -0.00127813
C        4.91140853       5.75504746       3.73480195       0.00145444       0.00244380      -0.00041502
C        3.72554748       7.82284659       3.93223686       0.00702358       0.00771445      -0.01599226
C        2.47982381       9.99041063       3.81399996       0.00005183       0.00347861      -0.00197654
C        9.87738498       1.44139186       3.58532042      -0.00657764       0.00458248       0.00156845
C        8.61681262       3.57136603       3.58170509      -0.00030561       0.00148710      -0.00635657
C        7.38321731       5.70296837       3.61700294      -0.01272663       0.00238162      -0.00932235
C        6.16269078       7.83874748       3.69017266       0.00682617       0.00006922      -0.00303323
C        4.93419910       9.97579601       3.68075938      -0.00744730      -0.00876381      -0.00134448
Zn       2.51643257       5.13917080       5.03795766      -0.00484673       0.00531289      -0.00135310
O        3.27830951       5.44298272       6.73808989      -0.00534314       0.00803243      -0.00035642
O        2.23681531       4.87305611       7.60548711       0.01473982      -0.00360910       0.01007501
H        2.78062524       4.21291899       8.07070009      -0.00535681      -0.00856034      -0.00435455
