52
Lattice="12.336457 0.0 0.0 -6.168228499999997 10.683685154694365 0.0 0.0 0.0 15.0" Properties=species:S:1:pos:R:3:forces:R:3 energy=-442.06613318352714 free_energy=-442.06613318352714 stress="0.003906048848568035 0.0019351132421793276 4.1571898286533616e-05 0.0019351132421793276 -0.0024377498638573033 9.545912939617357e-06 4.1571898286533616e-05 9.545912939617357e-06 -2.068098659127399e-05" pbc="T T T"
C        0.00262642      -0.10111661       3.76842635       0.00511528       0.00422192      -0.00547255
C       -1.20416534       2.06142074       3.87383665       0.00476723       0.00383546      -0.00310903
C       -2.43281467       4.18381279       3.82940198       0.00224837      -0.00136073       0.00140238
C       -3.69706258       6.30427404       3.68995916      -0.00412841      -0.00346664      -0.00103265
C       -4.95505419       8.42595041       3.62303558      -0.00881860      -0.00452835       0.00280363
C        2.46188096      -0.14805270       3.80361272      -0.00528519       0.00265563       0.00348034
C        1.26954151       2.00792470       3.90341729      -0.00678732       0.00164715      -0.00269385
C        0.09235489       4.21920973       3.93303542       0.00567966      -0.00447676      -0.00574747
C       -1.23332446       6.33075091       3.81155391       0.00017693      -0.00009005       0.00961399
C       -2.47392183       8.43627757       3.75756650       0.00638597       0.00004269      -0.00029910
C        4.93099225      -0.10091933       3.85058400      -0.00194825      -0.00157248      -0.00203446
C        3.67776665       1.99656743       3.88641716       0.00397566      -0.00512111       0.00138019
N        1.16142427       6.39939916       4.04156304      -0.00299699       0.00235732      -0.00847952
C       -0.00958636       8.45911488       3.82421754       0.01291658       0.00162151      -0.00712371
C        7.40294444      -0.08020034       3.86847737      -0.01510930      -0.00231687       0.00876726
C        6.16288069       2.05074338       3.86351209       0.00016255       0.00548064       0.00248118
C        4.88051852       4.18634918       3.65160258       0.01339573       0.00172824      -0.00534439
S        3.63684181       6.29669159       2.48205597      -0.00602308       0.00011001       0.00038708
C        2.45888279       8.46070294       3.67342370       0.00702981       0.00242908       0.00724681
C        9.87571549      -0.07988091       3.79761418       0.00486867       0.00128889      -0.01120917
C        8.64810140       2.05513601       3.86898781      -0.00449504      -0.00196599      -0.01653034
C        7.39943405       4.17423295       3.74525427      -0.00026356       0.00194200      -0.00433247
C        6.17731191       6.30432874       3.43135520       0.00606511       0.00116386       0.00438996
C        4.92294682       8.45852167       3.49457824      -0.00565859      -0.00115373       0.00641057
C        0.01940267       1.33408408       3.86026226      -0.00108545       0.00055131       0.00437459
C       -1.16344497       3.49380227       3.88534651       0.00523412       0.00003454       0.00187254
C       -2.45287682       5.60200159       3.77702236      -0.00140975      -0.00026176       0.00092946
C       -3.70929142       7.72196135       3.67841883      -0.00277897      -0.00341133       0.00634172
C       -4.94700533       9.84770663       3.72778144      -0.00282098      -0.00231876       0.00740758
C        2.46871632       1.26543928       3.87263926      -0.00491638       0.00442103       0.00398837
B        1.49113013       3.51526053       3.97641973      -0.00395441      -0.00212417      -0.00361868
C        0.02532631       5.66299030       3.92084552      -0.00110772      -0.00604034      -0.00071906
C       -1.23839547       7.73960985       3.80044025       0.01485908       0.00047275      -0.01183491
C       -2.46577584       9.85291465       3.80173805      -0.00279036       0.00403838      -0.00480479
C        4.92958098       1.32836714       3.87323266       0.00628943      -0.00313043       0.00506317
B        3.47752741       3.49726462       3.88469063       0.00228356       0.00720177      -0.00502209
C        1.21148223       7.73512698       3.82935524       0.01083550       0.00545261       0.00210935
C       -0.00118649       9.88424967       3.84909875      -0.00715702      -0.00329404      -0.01096364
C        7.40463804       1.34510577       3.87873900      -0.01070806      -0.00030960      -0.00140109
C        6.14087992       3.47189700       3.77327326       0.00705420       0.00179966      -0.00531317
C        4.99175538       5.54911743       3.26544714       0.01350518      -0.00116121       0.00189449
C        3.67143301       7.82073611       3.32777196      -0.00095073      -0.00668962      -0.00161932
C        2.46749968       9.88734111       3.80248018      -0.00406316       0.00348391       0.00255194
C        9.88878270       1.34983895       3.85866562       0.00447513       0.00255007       0.00690564
C        8.65317240       3.47669888       3.82497101      -0.00259136       0.00004566       0.00202647
C        7.40781647       5.59109606       3.62823849      -0.00146066       0.00004680       0.00427219
C        6.15153569       7.72616090       3.47218605      -0.00838511       0.00022873       0.00337909
C        4.93472777       9.88299435       3.70236970       0.00713487       0.00105593      -0.00026651
Zn       2.57632924       5.16175500       4.79866860      -0.00842160      -0.00095673       0.00639060
O        3.39832281       6.33545243       6.03444719       0.01074071      -0.00196691      -0.00796816
O        2.18799804       6.72759002       6.77096127      -0.01633056       0.00144646       0.01139462
H        2.51581732       6.57079316       7.67593679      -0.01275269      -0.00563640       0.00767494
