52
Lattice="12.336457 0.0 0.0 -6.168228499999997 10.683685154694365 0.0 0.0 0.0 15.0" Properties=species:S:1:pos:R:3:forces:R:3 energy=-450.5405231271377 free_energy=-450.5405231271377 stress="-0.0003203665663623867 -0.0014145027408665753 -2.8721738294307537e-05 -0.0014145027408665753 0.0016277365266296855 1.4165249824023465e-05 -2.8721738294307537e-05 1.4165249824023465e-05 2.898105645533177e-05" pbc="T T T"
C       -0.00077296       0.03390299       3.67483365       0.00054838      -0.00209843      -0.00424865
C       -1.24817565       2.15498652       3.69315081       0.00277933       0.00441984      -0.00908586
C       -2.47889324       4.29120189       3.66668687       0.00080502       0.00358753      -0.00093350
C       -3.69866096       6.43513923       3.64363780       0.00602265       0.00843382      -0.00314780
C       -4.92707157       8.58208590       3.64281016      -0.00718870      -0.00988378       0.00248538
C        2.47481443       0.04910218       3.73683107      -0.00012579       0.00314444       0.00273130
C        1.21757481       2.18480701       3.96808018      -0.00567995       0.00845989      -0.00386083
C       -0.01507035       4.27969499       4.03907030      -0.00253115       0.00491657      -0.00899781
C       -1.23052221       6.42047900       3.85512050      -0.00208974      -0.00471150      -0.00199716
C       -2.45289309       8.57651830       3.69886484       0.00543305       0.00715972       0.00017180
C        4.93961397       0.03745356       3.63740980       0.00403633      -0.00844465       0.00574294
C        3.71305496       2.20889752       3.85010156      -0.00521299       0.00037306       0.00578790
B        1.19891985       6.49884065       4.52323176       0.00524855      -0.00326338       0.00430210
C        0.02434923       8.57358670       3.75077497       0.00408440      -0.00360547       0.00435426
C        7.40816461       0.01922182       3.54491226       0.00238637       0.00388811       0.00517273
C        6.16609116       2.17437477       3.56404372      -0.00998880      -0.00887803      -0.00067067
C        4.89532546       4.32631244       3.73777103      -0.00555600       0.00220272      -0.00575741
O        3.77670868       6.48243729       3.52486181      -0.00030201       0.00153274      -0.00126843
C        2.48195627       8.53510647       3.66389259       0.00258066      -0.00318805      -0.00310207
C        9.86714917       0.01365314       3.55802067      -0.00535491      -0.00150929       0.00528900
C        8.63001081       2.15900313       3.52921290       0.00401794       0.00856641       0.00303597
C        7.38848867       4.30387190       3.55740210      -0.00685527      -0.00069801       0.00599907
C        6.16507180       6.44907836       3.62085797      -0.00030890      -0.01086585      -0.00695904
C        4.94075138       8.56766477       3.60752541       0.00350369       0.00268159      -0.00070377
C       -0.01742515       1.44927423       3.76486165       0.00143099       0.00334366      -0.00724041
C       -1.25506141       3.57327971       3.77412244       0.00079720       0.00625611      -0.00491299
C       -2.47561525       5.71536874       3.70898243      -0.00041498       0.00117731      -0.00633244
C       -3.69053598       7.86472324       3.66320081       0.00394729       0.00765690       0.00127397
C       -4.92690390      10.01148142       3.68701810      -0.00139499      -0.00712752       0.00673926
C        2.47253491       1.46885893       3.87458384      -0.00615276       0.00598244      -0.00248274
C        1.15408011       3.53596802       4.27125594      -0.00069701       0.00228560      -0.00511050
C       -0.04707781       5.70299106       4.07986362      -0.00212737      -0.00136393       0.00504879
C       -1.22349633       7.86122233       3.78612433       0.00178623      -0.00460470       0.00284772
C       -2.46043393      10.00745888       3.68754218       0.00172864       0.00484245       0.00668293
C        4.94344911       1.46260299       3.65041031      -0.01099200      -0.01143351       0.00977927
C        3.76715812       3.58603070       4.06481263       0.00618962       0.00162323       0.00383173
C        1.25024208       7.88892135       3.87207673      -0.00039863      -0.00293736       0.00044170
C        0.00623516      10.00347387       3.61172341       0.00710209      -0.00210025      -0.00321008
C        7.40248314       1.44857034       3.51785255       0.00328103       0.00811481      -0.00671583
C        6.15250350       3.60392604       3.58203975      -0.00816652      -0.00657801       0.00723897
C        4.94255492       5.76927990       3.66173664      -0.00297296      -0.00122475      -0.00812761
C        3.74015657       7.85099553       3.61586561       0.00842220       0.00607791      -0.00586951
C        2.47484217       9.97195706       3.55683353      -0.00374326      -0.00571723       0.00472049
C        9.85914643       1.44189688       3.57106183       0.00382811       0.00213167      -0.00497564
C        8.62519904       3.58406254       3.56112696      -0.00065807       0.00820541       0.00121886
C        7.39896697       5.72550668       3.60123614       0.00545756      -0.00021797       0.00476615
C        6.18001874       7.87068358       3.61764092      -0.00692974      -0.01375080       0.00299371
C        4.93326270       9.99706554       3.60524761      -0.00190698       0.00377056       0.00781872
Zn       2.54657756       4.30098292       5.52417753      -0.00155717       0.00215131       0.00260320
O        2.04085309       6.16537319       5.48417528      -0.00012559      -0.00105938       0.01650530
O        3.04924172       3.49697848       7.13976958       0.00137709       0.00078560      -0.01572412
H        2.87489132       4.11072266       7.87268803       0.01263781      -0.00850956      -0.00814831
