52
Lattice="12.336457 0.0 0.0 -6.168228499999997 10.683685154694365 0.0 0.0 0.0 15.0" Properties=species:S:1:pos:R:3:forces:R:3 energy=-438.96284673379114 free_energy=-438.96284673379114 stress="0.0019924431472051977 0.0007145815732901613 2.300142404215274e-06 0.0007145815732901613 -0.010469990379362892 -7.932072917268228e-06 2.300142404215274e-06 -7.932072917268228e-06 -4.4540602540577495e-05" pbc="T T T"
C        0.06239568      -0.00134481       3.74546856       0.00327698      -0.00666110      -0.00438644
C       -1.15527232       2.16346605       3.60430165      -0.00146886       0.00242872       0.00247586
C       -2.39522289       4.29231585       3.66197671      -0.00171594       0.00297436       0.00044047
C       -3.64200254       6.40956542       3.75170385       0.00186479      -0.00255784      -0.00603176
C       -4.88797841       8.52617436       3.77531538      -0.00639733       0.00548751      -0.00795278
C        2.52265691      -0.06557220       3.97061917      -0.00535156      -0.00522528       0.00453916
C        1.33840564       2.04070567       3.56912159       0.00407823      -0.00852987      -0.00273588
C        0.06868047       4.32657727       3.43409242      -0.00511067       0.00388802       0.00172290
C       -1.15154522       6.42392005       3.80916439       0.00811833      -0.00050867      -0.00835224
C       -2.40341493       8.52558927       3.97820371      -0.00045225       0.00695982      -0.00625889
C        4.99576972      -0.00508091       4.10188896      -0.00562021       0.01448146       0.00098929
C        3.73950571       2.07655823       3.99002207      -0.00625991      -0.00496163      -0.00581985
B        1.46876484       6.42137861       3.87171075      -0.01182851      -0.00092700      -0.00438092
C        0.06517500       8.57325894       4.06303239       0.00804513      -0.00796791      -0.00402299
C        7.45974255       0.05895977       4.04200555      -0.01163856       0.00348091       0.00189289
C        6.21964336       2.16334882       3.97471990       0.00259657       0.00807621      -0.00296764
C        4.95618022       4.28423934       3.70410443       0.00800488      -0.00829104      -0.01419830
P        3.37662909       6.34753603       2.96730823      -0.00372371       0.01396044       0.00600270
C        2.52495347       8.65826308       3.88602160      -0.00003045       0.00192305      -0.00045793
C        9.94178198       0.05942604       3.82613224       0.00337259      -0.00236987      -0.00012895
C        8.70068652       2.17578414       3.82566989      -0.00433673       0.00214613      -0.00703219
C        7.44963140       4.28970174       3.74438019       0.00558157      -0.00953689      -0.00710464
C        6.20727116       6.41782558       3.55486346       0.00628154       0.00170921      -0.00964297
C        4.98520900       8.57819348       3.63272994      -0.00481975      -0.00704803      -0.00402844
C        0.07286200       1.42327885       3.62701302       0.00100122      -0.00341913      -0.00556175
C       -1.15181128       3.58279160       3.53798968      -0.00594754       0.00610621      -0.00490387
C       -2.39509949       5.71002350       3.74130035       0.00729961       0.00025989      -0.00860745
C       -3.64414545       7.82359063       3.83793583      -0.00692546       0.00396357       0.00814097
C       -4.88479091       9.94154364       3.83893726      -0.00097453       0.00063405       0.00001631
C        2.53186788       1.34164664       3.88975454      -0.00073405      -0.01255294      -0.00002561
P        1.68128151       3.65102279       2.96179172       0.01433716      -0.00399472       0.00022868
C        0.09807505       5.71626398       3.69014245       0.00439103      -0.00414678       0.01683225
C       -1.16323402       7.83461191       3.97795195       0.00469917      -0.00138383      -0.00492994
C       -2.40190538       9.93953440       4.05113959      -0.00467254       0.00819343       0.01056876
C        4.99207362       1.42421075       4.06195186       0.00095242       0.01402557       0.00752187
B        3.58713030       3.57564606       3.86701324      -0.00958696       0.00193467      -0.00250597
C        1.31790539       7.92207330       3.98901545       0.00729149      -0.00979595      -0.00410409
C        0.06272274      10.00256136       4.09855446      -0.00944776      -0.00107902       0.01693633
C        7.46036150       1.47275602       3.96745574      -0.00388713       0.00625900       0.00568858
C        6.20647275       3.57551152       3.81538412       0.00797297      -0.00260415      -0.01240583
C        4.98597495       5.67441585       3.44987401       0.00844275      -0.00234899       0.00845651
C        3.71995786       7.95926352       3.57085716      -0.00728299       0.00255321      -0.00777708
C        2.53495186      10.06563494       3.95922077      -0.00398931       0.00247046       0.01477873
C        9.94490497       1.47416861       3.75748621      -0.00229685       0.00121567       0.00823982
C        8.69707772       3.59016255       3.74408439       0.00195506      -0.00087362       0.00024913
C        7.45010812       5.70771475       3.67166109       0.00410286      -0.00953096       0.00768332
C        6.21229158       7.83707882       3.62079630      -0.00364446       0.00251780      -0.00785392
C        4.99523236      10.00346491       3.74212532       0.00513973      -0.01127806       0.00619792
Zn       2.52124304       4.99476353       5.24293319       0.00436673       0.00984552       0.00083553
O        2.66114455       4.94409536       7.10510191       0.00374481       0.00251856       0.01494791
O        1.41731567       4.23259721       7.44189119       0.01442745      -0.00111047       0.01211707
H        1.07660499       4.86469033       8.09945171      -0.01320106      -0.00130974      -0.00332465
