51
Lattice="12.336457 0.0 0.0 -6.168228499999997 10.683685154694365 0.0 0.0 0.0 15.0" Properties=species:S:1:pos:R:3:initial_magmoms:R:1:forces:R:3 energy=-433.84811994081963 free_energy=-433.84811994081963 stress="0.0004595247508848899 -0.0031344970892784713 3.0479535403996783e-05 -0.0031344970892784713 -0.005219580266954259 -1.6506857487009615e-05 3.0479535403996783e-05 -1.6506857487009615e-05 8.48425594526072e-06" pbc="T T T"
C        0.02058518      -0.00948365       3.62591532       0.00000000       0.00548745      -0.00612188      -0.01062742
C       -1.22764257       2.12741714       3.56297824       0.00000000       0.00085231      -0.00120106       0.00102484
C       -2.45009952       4.27326316       3.63308947       0.00000000      -0.00699413       0.00894914       0.01088123
C       -3.67261228       6.40055887       3.73861026       0.00000000      -0.00462513      -0.00690206       0.00239129
C       -4.91022594       8.53234521       3.73924054       0.00000000       0.00063915       0.00212838      -0.00077656
C        2.47645803      -0.00557690       3.66930230       0.00000000       0.00072784       0.00644866      -0.00566446
C        1.20751252       2.10395942       3.60074162       0.00000000       0.00042934       0.00545520      -0.00652761
C       -0.00668978       4.18854841       3.74092511       0.00000000      -0.00238504       0.00086761      -0.00591803
C       -1.16403428       6.36753316       3.81295549       0.00000000       0.01543086       0.00289938       0.00247684
C       -2.42781312       8.52573023       3.78594464       0.00000000      -0.00462472      -0.00508475      -0.00659021
C        4.94549295      -0.00303090       3.63703319       0.00000000       0.00131709       0.00473412      -0.00483041
C        3.68419112       2.10070299       3.29369292       0.00000000       0.00253162      -0.00096349       0.00206123
P        1.66985377       6.23414473       4.31513422       0.00000000       0.00308941      -0.01513503       0.00505143
C        0.03130359       8.55283311       3.86677850       0.00000000       0.00084702       0.00195499       0.00358132
C        7.40254569       0.03098094       3.62445380       0.00000000       0.00414626      -0.00414526       0.00753774
C        6.16395571       2.14725735       3.44730026       0.00000000       0.00257732       0.00606931      -0.00619881
C        4.96721616       4.29854444       3.36660227       0.00000000      -0.00010985       0.00463999      -0.00534710
B        3.56605621       6.41369976       3.80905131       0.00000000      -0.00192848      -0.00233341      -0.00292242
C        2.49842054       8.63620849       3.76530161       0.00000000       0.00050792      -0.00750756       0.00601127
C        9.88878889       0.02670495       3.58393833       0.00000000       0.00015558      -0.00289699      -0.00186408
C        8.63814700       2.15138778       3.54052819       0.00000000      -0.00335207      -0.00506779      -0.00066434
C        7.41345737       4.28046219       3.59119716       0.00000000      -0.00076575      -0.00473949      -0.01489799
C        6.16683302       6.40713111       3.71900065       0.00000000      -0.00243563       0.00662284      -0.00205419
C        4.96019272       8.56188024       3.68149982       0.00000000      -0.00220503       0.00593927       0.00256211
C        0.00694762       1.41451568       3.58152189       0.00000000       0.00412907      -0.00447965       0.00534821
C       -1.22541170       3.53633099       3.61055026       0.00000000      -0.00664551       0.00424201       0.00028463
C       -2.42442977       5.68663146       3.72601820       0.00000000       0.00664009       0.00936991       0.00326622
C       -3.66919514       7.82178712       3.76866489       0.00000000      -0.00577432      -0.00711495      -0.00236823
C       -4.91539921       9.96072428       3.69535742       0.00000000       0.00587921      -0.00003509      -0.00355508
C        2.45350513       1.41997515       3.53529759       0.00000000      -0.00060074       0.00586019      -0.00179161
O        1.17197495       3.46005258       3.83409309       0.00000000      -0.00089611       0.00375908       0.01112519
C        0.05834114       5.58322886       3.84645476       0.00000000       0.01190675      -0.00325391       0.01085747
C       -1.18651053       7.80598953       3.84362902       0.00000000       0.00316723      -0.00098160      -0.00762993
C       -2.44823118       9.95749417       3.71032578       0.00000000      -0.00118872       0.00089005      -0.00545175
C        4.92797088       1.42450854       3.44923492       0.00000000       0.00497857       0.00646196      -0.00490746
P        3.62733419       3.64542477       2.47754979       0.00000000      -0.00824261      -0.00721220       0.00723842
C        1.29603334       7.92071906       3.97434904       0.00000000      -0.00120464      -0.00267833       0.01490463
C        0.01217893       9.98255011       3.71438762       0.00000000       0.00116139       0.00235685      -0.00032680
C        7.39851108       1.44628785       3.53218835       0.00000000      -0.00223107      -0.00355807      -0.00694094
C        6.18276408       3.56508069       3.45724035       0.00000000       0.00064311       0.00378147      -0.00716189
C        4.91502397       5.69282694       3.64610369       0.00000000      -0.00083501       0.00262165       0.00434720
C        3.71219195       7.90936514       3.71886858       0.00000000       0.00175440      -0.00125068       0.00671436
C        2.47910528      10.03624291       3.64041554       0.00000000       0.00319092      -0.00795025      -0.00016577
C        9.88107362       1.44139021       3.54751470       0.00000000      -0.00090947      -0.00305685       0.00374394
C        8.64481741       3.57105820       3.58021602       0.00000000      -0.00270381      -0.00372553       0.00586064
C        7.41596093       5.70095514       3.68956432       0.00000000      -0.00571686      -0.00579570      -0.00177844
C        6.19025950       7.82979066       3.72667404       0.00000000      -0.00208119       0.00916305       0.00797606
C        4.95421011       9.98499986       3.62352980       0.00000000       0.00092936       0.00215665       0.00310732
Zn       2.26432616       5.58781482       6.40418435       0.00000000       0.00028402       0.00055043      -0.01383048
O        2.53788459       5.58693535       9.18231917       1.00000000      -0.00667602       0.01266010       0.00205471
O        2.49138729       4.78222063       8.15563721       1.00000000      -0.00827138      -0.00739069       0.00038370
