51
Lattice="12.336457 0.0 0.0 -6.168228499999997 10.683685154694365 0.0 0.0 0.0 15.0" Properties=species:S:1:pos:R:3:initial_magmoms:R:1:forces:R:3 energy=-437.20035759440606 free_energy=-437.20035759440606 stress="-0.007886743052628419 -0.0021899519218618255 1.6268707529336395e-07 -0.0021899519218618255 -0.006195365582611408 -2.152103522595028e-05 1.6268707529336395e-07 -2.152103522595028e-05 -7.612167658856828e-06" pbc="T T T"
C       -0.10928573      -0.00304108       3.80582575       0.00000000       0.00014122      -0.00178292      -0.00023989
C       -1.36398802       2.11957267       3.56076769       0.00000000       0.00282424      -0.00463816      -0.00144233
C       -2.60334143       4.27020758       3.72992177       0.00000000       0.00493914       0.00481662      -0.00143542
C       -3.80841473       6.41357186       3.94691400       0.00000000       0.00411524       0.01271732      -0.00245675
C       -5.02899429       8.55656472       3.98833292       0.00000000      -0.00228384      -0.00182734       0.00466830
C        2.35558421      -0.01560889       3.78208136       0.00000000      -0.00801666      -0.00274453       0.00347113
C        1.10471962       2.01955331       3.23272351       0.00000000      -0.00491701      -0.00399456       0.00183683
C       -0.26617533       4.27223562       3.08980881       0.00000000       0.00049946       0.00139203      -0.00126218
C       -1.38083464       6.41480916       3.65817243       0.00000000       0.00242473      -0.00372643       0.00111481
C       -2.56939122       8.54745775       3.89858045       0.00000000       0.01108712       0.00241261       0.00707136
C        4.82770432       0.00118163       3.82768728       0.00000000      -0.00186529       0.00238814      -0.00874699
C        3.57752590       2.09842454       3.55710748       0.00000000      -0.00398828       0.00292594       0.00004433
B        1.00615915       6.47195746       3.38180639       0.00000000      -0.01018228       0.00053990       0.00392742
C       -0.11592281       8.55959322       3.76596195       0.00000000      -0.00202286      -0.00355720       0.00553182
C        7.29462352       0.00308257       3.85946981       0.00000000      -0.00129522      -0.00032644      -0.00471575
C        6.05108943       2.14776580       3.80684222       0.00000000      -0.00017153      -0.00015457      -0.00981105
C        4.86868024       4.32911679       3.70412004       0.00000000      -0.00178514      -0.00055918      -0.00352769
N        3.72022345       6.47575683       3.65356447       0.00000000      -0.00431460       0.00213188      -0.00944013
C        2.38854234       8.55076012       3.76943139       0.00000000      -0.00092196       0.00019126       0.01501547
C        9.76349832       0.00018390       3.85468144       0.00000000       0.00208024       0.00101814       0.00435465
C        8.51904766       2.13685694       3.84125506       0.00000000       0.00226835       0.00203377      -0.01461682
C        7.29600114       4.28277777       3.90866154       0.00000000      -0.00149163      -0.00176399       0.00493917
C        6.09259719       6.44514301       3.96518566       0.00000000      -0.00017111      -0.00848637      -0.00302274
C        4.84733019       8.55429244       3.93745686       0.00000000       0.00548067       0.00317912      -0.00891093
C       -0.12858754       1.40255174       3.53707459       0.00000000      -0.00058969      -0.00467114       0.00556028
C       -1.39956759       3.53605356       3.45595741       0.00000000       0.00063732      -0.00264976      -0.01606287
C       -2.59709446       5.69561766       3.79678758       0.00000000       0.00297966       0.00634644       0.00579739
C       -3.80032710       7.83852828       3.96826284       0.00000000       0.00592111       0.01244398      -0.00578436
C       -5.04183865       9.97318321       3.87686619       0.00000000      -0.00672949      -0.00405338       0.00872697
C        2.34030577       1.38760533       3.52658409       0.00000000      -0.00586804      -0.00131204      -0.00137140
S        1.04969317       3.46950146       2.28108334       0.00000000       0.00032769       0.00139136       0.01365118
C       -0.20727544       5.67358316       3.33156056       0.00000000      -0.00432770      -0.00006782      -0.01045050
C       -1.33999373       7.83417808       3.78413815       0.00000000       0.00502579      -0.00785986       0.00296371
C       -2.57185682       9.96845874       3.85806611       0.00000000      -0.00137768       0.00158582       0.00216667
C        4.82643227       1.42307830       3.73862338       0.00000000      -0.00132767       0.00238105      -0.00472125
B        3.66062547       3.54097237       3.48832700       0.00000000       0.00235581      -0.00255760       0.00720394
C        1.13962582       7.87928442       3.65678139       0.00000000      -0.00228162       0.00042109       0.00734817
C       -0.10991092       9.97952454       3.84349023       0.00000000      -0.00321573      -0.00161126      -0.00047422
C        7.28718762       1.42707005       3.86182047       0.00000000       0.00159528       0.00101859       0.00495635
C        6.06626182       3.57707842       3.82590082       0.00000000      -0.00401193      -0.00129739       0.00735283
C        4.87139128       5.77284783       3.79042528       0.00000000      -0.00352563      -0.00212750      -0.01060667
C        3.63367690       7.82573117       3.79389371       0.00000000       0.00228594       0.00230227       0.00485426
C        2.36988254       9.97172519       3.85421793       0.00000000       0.00079165       0.00078480       0.00110948
C        9.75725873       1.42475808       3.77686522       0.00000000       0.00186715      -0.00159938       0.00107164
C        8.51345289       3.56162582       3.85135598       0.00000000       0.00324338       0.00330219       0.00132392
C        7.30267730       5.70556022       3.96562613       0.00000000       0.00588033       0.00056910      -0.00166617
C        6.07825002       7.85359933       3.99142233       0.00000000       0.00049708      -0.00659283      -0.00542107
C        4.82849142       9.97231109       3.89416355       0.00000000       0.00389508       0.00373173      -0.01026335
Zn       2.40772910       5.08346734       3.20370074       0.00000000       0.00705284      -0.01266405      -0.00097747
O        5.85219696       4.88057262       6.62132472       1.00000000      -0.00744773      -0.00874154       0.00586609
O        4.62465207       4.92333063       6.64071934       1.00000000       0.00391377       0.01934210       0.00549983
