51
Lattice="12.336457 0.0 0.0 -6.168228499999997 10.683685154694365 0.0 0.0 0.0 15.0" Properties=species:S:1:pos:R:3:initial_magmoms:R:1:forces:R:3 energy=-436.47264552650336 free_energy=-436.47264552650336 stress="-0.00274301306827166 -0.0024241803590298525 9.54774313773391e-06 -0.0024241803590298525 -0.006956305933388741 -2.968061200126439e-05 9.54774313773391e-06 -2.968061200126439e-05 -8.27109705363342e-06" pbc="T T T"
C       -0.03615466       0.06427233       3.93546846       0.00000000       0.00251843      -0.00174422       0.01320272
C       -1.28225382       2.19332973       3.99047181       0.00000000       0.00669566       0.00595611       0.00463185
C       -2.50773334       4.33523883       3.87186920       0.00000000       0.00122856      -0.00052581      -0.00470515
C       -3.72487299       6.47177144       3.76915203       0.00000000       0.00604250      -0.01035688      -0.00054149
C       -4.96230680       8.60814891       3.83266932       0.00000000      -0.00139117      -0.00716185      -0.00381463
C        2.42747638       0.06147769       3.78501197       0.00000000       0.00653666       0.00186818       0.01690592
C        1.17262951       2.20304816       3.87495490       0.00000000      -0.00797108      -0.00444209       0.00451307
C       -0.04941889       4.26832267       3.89854388       0.00000000      -0.00291761      -0.00253657       0.00177884
C       -1.23670510       6.44775364       3.71327304       0.00000000      -0.00515162       0.00785052      -0.00666456
C       -2.48643441       8.59959798       3.75512074       0.00000000      -0.00325126      -0.00464517      -0.00193228
C        4.89494969       0.06496944       3.68962813       0.00000000       0.00013147      -0.00405365      -0.00218538
C        3.63639450       2.14880587       3.38711418       0.00000000       0.00039927      -0.00157450      -0.00470524
P        1.51803533       6.33917596       3.01561880       0.00000000       0.00801725       0.00525241      -0.00409421
C       -0.02825626       8.61839711       3.67595768       0.00000000       0.00305202       0.00070937      -0.01224010
C        7.35063212       0.09257471       3.82891386       0.00000000      -0.00771650       0.00132574      -0.00249902
C        6.12827154       2.20497861       3.54924158       0.00000000      -0.00402660       0.00007854       0.00094185
C        4.97967368       4.36114288       3.19324048       0.00000000       0.00141958       0.00837659       0.00176999
B        3.55455201       6.48336811       3.57119800       0.00000000      -0.00798113      -0.00440222      -0.00934260
C        2.43990835       8.68671772       3.78638762       0.00000000       0.00038760      -0.00539079      -0.00321830
C        9.83245796       0.08714172       3.96925520       0.00000000      -0.00352474       0.00765623       0.00349035
C        8.58384357       2.21281335       3.86930808       0.00000000       0.00549800       0.00641528      -0.00277739
C        7.37696291       4.34453121       3.65411241       0.00000000      -0.00245564       0.00201302      -0.00356092
C        6.13731349       6.48617275       3.63025310       0.00000000       0.00383732      -0.00276179       0.01336699
C        4.90957537       8.62838742       3.84779809       0.00000000       0.00061141      -0.00068831       0.01601201
C       -0.04871961       1.48505910       3.94929019       0.00000000      -0.00477043      -0.00495370      -0.00289617
C       -1.29124739       3.60052426       3.95039152       0.00000000      -0.00017413       0.00132090      -0.00536472
C       -2.49087179       5.75478471       3.79489538       0.00000000       0.00388583      -0.00220786       0.00219600
C       -3.72509407       7.89547751       3.78924619       0.00000000      -0.00228366      -0.01196202      -0.00619449
C       -4.96806879      10.03181838       3.87125771       0.00000000       0.00698012      -0.00270209       0.00885978
C        2.41874931       1.48436888       3.69095174       0.00000000      -0.00449468       0.00315452       0.00493802
N        1.12118937       3.55946171       4.02589471       0.00000000      -0.00098347      -0.00349996       0.00008957
C       -0.03248634       5.68132804       3.66197934       0.00000000      -0.01381405      -0.00259924       0.00974547
C       -1.25125141       7.88466231       3.69014785       0.00000000       0.00183588       0.00894367       0.00355744
C       -2.50084944      10.02735531       3.74315946       0.00000000       0.00284039      -0.00469983      -0.00051361
C        4.88875795       1.48752590       3.53114460       0.00000000      -0.00135238      -0.00380701       0.00071034
P        3.57355918       3.62106229       2.41397375       0.00000000       0.00746451      -0.01347234      -0.00449044
C        1.23107996       7.98174165       3.58098893       0.00000000       0.00200297      -0.00656784      -0.00275985
C       -0.04057854      10.05000362       3.74666529       0.00000000      -0.00323622      -0.00426252      -0.00210503
C        7.34779787       1.50940806       3.77022991       0.00000000       0.00194928       0.00322743      -0.01156492
C        6.16224011       3.62331625       3.44132053       0.00000000      -0.00328660       0.00299654      -0.00226656
C        4.91071249       5.76892017       3.43078768       0.00000000       0.00317414       0.00621349       0.00493379
C        3.66369622       7.96760809       3.76030711       0.00000000       0.00281193      -0.00512641      -0.00334614
C        2.42291745      10.09057865       3.90968426       0.00000000      -0.00731182      -0.00009254      -0.00008297
C        9.81894716       1.50033759       3.97315034       0.00000000       0.00892239       0.00986068       0.00225123
C        8.59190298       3.63127375       3.81680386       0.00000000      -0.00009340       0.00535622      -0.00866244
C        7.37512008       5.76899864       3.68848860       0.00000000       0.00482682      -0.00202968      -0.00924347
C        6.14128988       7.90280500       3.78669796       0.00000000      -0.00237037      -0.00353215      -0.00470191
C        4.90050697      10.05027571       3.94609339       0.00000000      -0.00183342       0.00399541       0.00361436
Zn       2.63595299       4.76637722       4.49264722       0.00000000       0.00338638       0.01328384       0.01164437
O        3.19496182       2.48187232       6.21769458       1.00000000       0.00743461       0.00204251      -0.00739139
O        3.53917006       3.68252976       6.04624271       1.00000000      -0.01149898       0.01390183       0.00471141
