52
Lattice="12.336457 0.0 0.0 -6.168228499999997 10.683685154694365 0.0 0.0 0.0 15.0" Properties=species:S:1:pos:R:3:forces:R:3 energy=-438.28214762474863 free_energy=-438.28214762474863 stress="0.0054645220266693675 -0.0003417821196048939 -3.528487936842525e-05 -0.0003417821196048939 -0.008709734910672109 -6.403319040546663e-06 -3.528487936842525e-05 -6.403319040546663e-06 -4.6532461925091376e-06" pbc="T T T"
C       -0.01344133      -0.07056196       3.83761294       0.00124894       0.00961136      -0.00083313
C       -1.21613239       2.11390119       3.63781897      -0.00017947      -0.00369754       0.00546341
C       -2.44074699       4.23868463       3.60479300      -0.00036318      -0.00506801       0.00750006
C       -3.69680611       6.34818996       3.76919986      -0.00508128      -0.00766246       0.00718080
C       -4.95615635       8.45999080       3.92282809       0.00595311       0.00388777       0.00128282
C        2.45738728      -0.13684461       3.72273908       0.00211151       0.00218937      -0.00175307
C        1.24979538       1.99002839       3.54785650      -0.00450137      -0.00887372      -0.00660816
C        0.07814164       4.24167966       3.55425992      -0.00042268      -0.00337809       0.00680542
C       -1.18809809       6.35576803       3.74802022      -0.00982459       0.00594496       0.00705329
C       -2.46220339       8.46449258       3.78803927       0.00535349      -0.00345396       0.00157657
C        4.91874269      -0.05118328       3.60771662      -0.00295255      -0.00521114      -0.00563814
C        3.63591786       1.97494477       3.31156071      -0.00259943      -0.00007684      -0.01015332
B        1.39923946       6.39749134       3.92943775       0.00944553       0.00557138       0.00451231
C       -0.00554130       8.53201102       3.79542767       0.00409689       0.00436871      -0.00727758
C        7.37949659       0.01632966       3.69340059      -0.00084376      -0.00741475      -0.01131430
C        6.13262776       2.11804266       3.42668547      -0.00258291       0.00916410       0.00609312
C        4.90962464       4.28366132       3.42919122      -0.00202093       0.00202722      -0.00486871
P        3.29607708       6.18674099       4.46102804       0.01530375       0.00142605      -0.01020277
C        2.44589825       8.62613843       4.01513979      -0.00210926      -0.00044758      -0.00395213
C        9.86841555       0.01196062       3.83354028      -0.00321690      -0.00298636       0.00037634
C        8.62985610       2.12701469       3.58236595       0.00096339       0.00263330      -0.00777074
C        7.38393236       4.24132645       3.56698021      -0.00081182       0.00164145       0.00463552
C        6.14007546       6.35391073       3.89736999      -0.00330548      -0.00890820       0.00402735
C        4.91117457       8.51726200       4.09149810      -0.00180897       0.00369275       0.00252746
C        0.00028744       1.35810478       3.68707331      -0.00485723       0.00151056      -0.00356852
C       -1.18185728       3.53332953       3.57465386       0.00006261      -0.00643978       0.00167524
C       -2.44009206       5.65275832       3.69561667      -0.00817765      -0.00406373       0.01124901
C       -3.70573751       7.76023756       3.84118727       0.00462808      -0.00450012       0.00990626
C       -4.95668887       9.87385560       3.85345741       0.00126782       0.01109344       0.00690424
C        2.44912255       1.26222322       3.53841944      -0.00243867      -0.00021016      -0.00658976
B        1.38953683       3.45236233       3.41230116       0.00235576      -0.01159084      -0.00314259
C        0.07666310       5.64079157       3.73105460      -0.00600001       0.00578393      -0.00528892
C       -1.21873167       7.77461512       3.78080106       0.00482898       0.00451354      -0.00011566
C       -2.46398052       9.88127319       3.71383043      -0.00048766      -0.00450039       0.00309126
C        4.90128582       1.37796691       3.42673930      -0.00171594       0.00106127       0.00080086
S        3.27913440       3.64162414       2.90163306       0.00536609       0.00690838       0.00703826
C        1.24187312       7.88931404       3.91027793       0.00094010       0.00822225       0.00275229
C       -0.01304182       9.95923747       3.70108355      -0.00063846      -0.00247532      -0.01442396
C        7.37378172       1.42851706       3.55407800      -0.00237074       0.00013467      -0.00383454
C        6.12573798       3.53696309       3.43084823      -0.00205938       0.01144967       0.00090020
C        4.89875457       5.61460692       3.83630646      -0.00632279      -0.00092300      -0.00056558
C        3.64656164       7.90370350       4.22138579      -0.00160430       0.00232203      -0.00916518
C        2.45328097      10.02672033       3.85524515      -0.00245170      -0.00566814      -0.00655764
C        9.87376087       1.42370376       3.68055627       0.00117306      -0.00423592      -0.00205970
C        8.63993780       3.54146642       3.56364089      -0.00195562       0.00265500       0.01133165
C        7.38478567       5.65061983       3.74141657      -0.00083525      -0.00662331       0.00835215
C        6.14006642       7.76991269       4.01339220       0.00213514      -0.00501257       0.00085920
C        4.91888419       9.94383250       3.93875098       0.00227022       0.00587618      -0.00274489
Zn       2.80259508       5.31486402       6.41472269       0.00709828      -0.00989963       0.00206125
O        2.88003092       4.18549597       7.85022066      -0.00034497       0.01205408      -0.00139112
O        2.17738320       5.46193518       8.32530377       0.00848633      -0.00171994       0.00074249
H        2.84414853       5.68906536       8.99146932      -0.00020411      -0.00070193       0.00312125
