51
Lattice="12.336457 0.0 0.0 -6.168228499999997 10.683685154694365 0.0 0.0 0.0 15.0" Properties=species:S:1:pos:R:3:initial_magmoms:R:1:forces:R:3 energy=-434.63586903558695 free_energy=-434.63586903558695 stress="0.002625087787989082 -0.0002888655322528141 -2.2418382895204412e-05 -0.0002888655322528141 -0.014158686544646193 -4.248455393036564e-05 -2.2418382895204412e-05 -4.248455393036564e-05 -2.6016218375027154e-05" pbc="T T T"
C       -0.00314117      -0.02654559       3.46700305       0.00000000       0.00202347       0.00256053       0.00202704
C       -1.21122334       2.15666418       3.51340630       0.00000000       0.00402822      -0.00182564       0.00240860
C       -2.43335147       4.27778447       3.62334619       0.00000000      -0.00787917      -0.00715594      -0.00219012
C       -3.68815624       6.38959368       3.63943405       0.00000000      -0.00201350       0.00216633      -0.00249336
C       -4.94530784       8.50513689       3.57765604       0.00000000      -0.00217266       0.00314613       0.00144679
C        2.46710561      -0.10331023       3.42773471       0.00000000       0.00226144       0.00012192       0.00027177
C        1.25302152       2.03730862       3.50376594       0.00000000      -0.00330491       0.00185673       0.00283618
C        0.07794166       4.27753924       3.72570971       0.00000000      -0.00494857      -0.00095356       0.00126384
C       -1.17871903       6.39829549       3.71608559       0.00000000       0.00059524      -0.00407955      -0.00735108
C       -2.45022823       8.49971397       3.54777615       0.00000000      -0.00287775      -0.00008659       0.00534049
C        4.93563795      -0.02526292       3.51893055       0.00000000       0.00286776       0.00075617      -0.01148986
C        3.66051956       1.99197402       3.74478130       0.00000000      -0.00740605      -0.00096104       0.00995180
B        1.41098230       6.45704874       3.95716515       0.00000000       0.00888632      -0.00604684      -0.00471121
C        0.01091460       8.56449208       3.61799111       0.00000000      -0.00000923       0.00257724      -0.00364946
C        7.39118170       0.05335138       3.51987233       0.00000000       0.00059624       0.00615279      -0.00565865
C        6.14817814       2.14975195       3.59220421       0.00000000      -0.00009886      -0.00349197      -0.00065363
C        4.90803939       4.29613199       3.74275688       0.00000000       0.01117275       0.00115693      -0.00009925
P        3.33629686       6.33153961       4.47440889       0.00000000      -0.00783917       0.00022781       0.00159000
C        2.46269522       8.67866003       3.77797160       0.00000000      -0.00164517      -0.00250383      -0.00345900
C        9.88099241       0.05492568       3.54042577       0.00000000      -0.00433506       0.00088665      -0.00421565
C        8.63739944       2.17110637       3.52184000       0.00000000       0.00134092       0.00144019       0.00012293
C        7.39167419       4.28045107       3.61156268       0.00000000      -0.00256330      -0.00076319      -0.00260272
C        6.14960831       6.41544756       3.74625084       0.00000000       0.00448774      -0.00576202      -0.00747444
C        4.92806488       8.57856631       3.78663238       0.00000000       0.00756883      -0.00087654       0.00335765
C        0.00261375       1.40124868       3.45691468       0.00000000       0.00185705      -0.00017053       0.00138960
C       -1.18021161       3.57195595       3.61794750       0.00000000      -0.00285777      -0.00226818      -0.00755455
C       -2.43180572       5.69333783       3.66303475       0.00000000      -0.00402138      -0.00574193       0.00869348
C       -3.69563733       7.80106828       3.58594828       0.00000000      -0.00521974       0.00303459      -0.00803604
C       -4.94803553       9.91155416       3.46400628       0.00000000       0.00168634       0.00292595       0.00042756
C        2.45712081       1.29335156       3.51315902       0.00000000      -0.00579815      -0.00018268       0.00107280
B        1.41281252       3.51209887       3.72644516       0.00000000      -0.00977664      -0.00204384       0.00560182
C        0.07983520       5.69136490       3.81316884       0.00000000       0.00353698      -0.00102993      -0.00017555
C       -1.20630455       7.81341841       3.62924775       0.00000000      -0.00161218      -0.00057538       0.00222694
C       -2.45354485       9.91149531       3.48129805       0.00000000       0.00352676      -0.00067004       0.00259363
C        4.92698263       1.39724617       3.61866405       0.00000000      -0.00530084       0.00042164      -0.01559605
P        3.30533060       3.62984158       4.21912147       0.00000000       0.00339284       0.00311931       0.00491459
C        1.25896782       7.93319658       3.76531694       0.00000000      -0.00249175      -0.00231496       0.00411755
C        0.00248239       9.98898907       3.52833799       0.00000000       0.00407221       0.00553526       0.01090894
C        7.38941008       1.46636238       3.52206999       0.00000000       0.00266272       0.00412846       0.00476403
C        6.14243813       3.56691421       3.62604114       0.00000000       0.00586764      -0.00470973       0.00632870
C        4.91352971       5.69493688       3.84863597       0.00000000       0.00255162      -0.00125289       0.00217566
C        3.67133444       7.98971888       4.02194353       0.00000000       0.00331937       0.00030447      -0.00090438
C        2.46847529      10.06713337       3.57960783       0.00000000      -0.00538390      -0.00077489      -0.00754259
C        9.88158250       1.46892486       3.50109294       0.00000000       0.00225947       0.00189591      -0.00102997
C        8.64561992       3.58365674       3.57637809       0.00000000      -0.00825033      -0.00161608      -0.00676173
C        7.39392024       5.69631585       3.65852350       0.00000000       0.00136900      -0.00133255       0.00432574
C        6.15266907       7.83018298       3.72288756       0.00000000       0.00558439      -0.00591303       0.00207643
C        4.93314596       9.99119229       3.58268139       0.00000000       0.00108922       0.00299573       0.00475714
Zn       2.91831049       4.77382415       6.32426978       0.00000000      -0.00193072      -0.00060750      -0.00757820
O        2.74078904       5.49407311       9.02643236       1.00000000      -0.00282963       0.00958227       0.00291434
O        2.59207499       4.47045967       8.24437728       1.00000000       0.01396186       0.00871784       0.01132146
