51
Lattice="12.336457 0.0 0.0 -6.168228499999997 10.683685154694365 0.0 0.0 0.0 15.0" Properties=species:S:1:pos:R:3:initial_magmoms:R:1:forces:R:3 energy=-443.16193380149025 free_energy=-443.16193380149025 stress="-0.005432831601951843 0.00199384360014445 0.00020960659990966227 0.00199384360014445 -0.005139429709618507 0.00022343831955139385 0.00020960659990966227 0.00022343831955139385 0.000287664628782884" pbc="T T T"
C       -0.04633803      -0.01767831       3.91070930       0.00000000       0.00760716       0.02949105       0.07710486
C       -1.25674126       2.15805309       3.86234507       0.00000000      -0.03655046      -0.00692403       0.04575694
C       -2.48892401       4.29515590       3.89349423       0.00000000       0.05126895      -0.03121687      -0.01609833
C       -3.72406522       6.42206440       3.86507709       0.00000000      -0.00422648       0.00899796      -0.03014618
C       -4.98736826       8.53680746       3.86802885       0.00000000      -0.00446086      -0.01290442      -0.03001474
C        2.42301782      -0.01643195       3.94491415       0.00000000       0.01624708      -0.02680852      -0.02129386
C        1.19535405       2.08239618       3.78202895       0.00000000      -0.01074401      -0.04060936       0.07692493
C       -0.03529796       4.34575307       3.83547248       0.00000000      -0.01217337      -0.05462922       0.03333948
C       -1.27438899       6.44560030       4.01449498       0.00000000      -0.10222479      -0.06553430       0.02670948
C       -2.51943570       8.55223337       4.01893500       0.00000000       0.03441374       0.04788380      -0.02940286
C        4.88588993       0.01258267       3.94639639       0.00000000       0.02378490      -0.02926262      -0.03394982
C        3.66197370       2.10121268       3.83116358       0.00000000      -0.05376867      -0.13409698      -0.00994150
N        1.11536032       6.49576245       4.12835959       0.00000000      -0.00357458       0.05516710      -0.05881550
C       -0.06518070       8.57381237       4.02032661       0.00000000      -0.04595751       0.01856244       0.02555626
C        7.35531673       0.01715342       3.94357398       0.00000000       0.00635726       0.09091509      -0.03737195
C        6.14132994       2.15482574       3.74493940       0.00000000      -0.04864749      -0.04319024      -0.02013170
C        5.01621577       4.29693112       3.20859172       0.00000000       0.01306278       0.08808421       0.04782397
S        3.70719986       6.61208071       2.29984538       0.00000000      -0.03594110      -0.01683793      -0.01843876
C        2.40128193       8.56357397       3.87569634       0.00000000       0.00806845       0.02048335       0.01317570
C        9.83260274       0.01256416       3.92795341       0.00000000      -0.02720014      -0.03459616      -0.01905189
C        8.60637568       2.14820740       3.85427371       0.00000000       0.07385215       0.06020428       0.00429412
C        7.41043803       4.28607397       3.63211729       0.00000000       0.01112904      -0.02241954       0.01138592
C        6.19629524       6.43402670       3.39049791       0.00000000       0.08783092       0.02836018       0.01188029
C        4.89140256       8.53518406       3.75734035       0.00000000       0.04744414       0.01699656      -0.01915832
C       -0.03219303       1.41608908       3.86573003       0.00000000      -0.00605277       0.05981577      -0.04849055
C       -1.24101974       3.60038904       3.86814186       0.00000000       0.00119643      -0.05230060       0.01275197
C       -2.49061038       5.71655119       3.94459297       0.00000000      -0.08709263      -0.06777964      -0.04691216
C       -3.74656555       7.83645585       3.93246970       0.00000000       0.02823726       0.05308780      -0.01996396
C       -4.98450018       9.95909033       3.93558283       0.00000000      -0.00216557       0.00351608      -0.06200212
C        2.44064977       1.40803779       3.85159243       0.00000000       0.03071455      -0.03006637       0.05663960
B        1.22153286       3.56746386       3.53902463       0.00000000      -0.10146681      -0.05952906      -0.00734934
C       -0.03109269       5.76046688       4.00128306       0.00000000      -0.00545526      -0.00363135       0.02310070
C       -1.28489200       7.85647440       4.04132600       0.00000000      -0.04243494      -0.04225295      -0.01197902
C       -2.51144234       9.97366259       3.98567158       0.00000000       0.04818595       0.02514018       0.00370275
C        4.88636553       1.44459153       3.83355597       0.00000000      -0.07536608      -0.02582915       0.03381519
B        3.58573467       3.68201239       3.85044454       0.00000000       0.04496782       0.28334953       0.45933342
C        1.14617806       7.84912368       4.00970612       0.00000000       0.03878114       0.06880505      -0.02996609
C       -0.05005595       9.99486594       3.97161856       0.00000000       0.02959526       0.01952200       0.02134009
C        7.36018373       1.44132590       3.85292069       0.00000000       0.05616052       0.07838847       0.02236910
C        6.17363676       3.57220662       3.50921271       0.00000000      -0.05140006      -0.05509483      -0.04527636
C        5.06946047       5.67824162       2.97868668       0.00000000       0.02372512       0.02913242       0.02750445
C        3.63410819       7.85685470       3.62315821       0.00000000      -0.01230859      -0.07646993      -0.02313025
C        2.42187802       9.98695046       3.93677807       0.00000000      -0.03780820       0.01097305       0.01784250
C        9.84406363       1.44482872       3.90167812       0.00000000       0.00906029      -0.04497197      -0.00965781
C        8.62141225       3.57263701       3.81022031       0.00000000       0.06131997       0.04288278      -0.02698322
C        7.40758117       5.71008738       3.63155287       0.00000000       0.03364072      -0.04753777      -0.03414460
C        6.12782152       7.83289410       3.65231878       0.00000000       0.00747311       0.00683132      -0.01214334
C        4.88695404       9.96291885       3.90986565       0.00000000       0.02490976       0.00941037      -0.05963525
Zn       2.94119974       5.86829217       4.32854654       0.00000000       0.04645963       0.02788338       0.01142122
O        3.64425933       4.34138085       5.11525193       1.00000000      -0.23860164      -0.29541937      -0.36904984
O        2.38734944       4.09141255       3.02661245       1.00000000       0.18012794       0.13602894       0.08672633
