52
Lattice="12.336457 0.0 0.0 -6.168228499999997 10.683685154694365 0.0 0.0 0.0 15.0" Properties=species:S:1:pos:R:3:forces:R:3 energy=-446.70491680428506 free_energy=-446.70491680428506 stress="-0.002597850754213523 -0.0010644959422066202 -2.9343891829774923e-06 -0.0010644959422066202 0.0008891132492308023 -1.8708720796394908e-06 -2.9343891829774923e-06 -1.8708720796394908e-06 3.2270277219447575e-06" pbc="T T T"
C        0.05284598       0.03389302       3.66257975      -0.00111222       0.01362208       0.00143968
C       -1.19304469       2.16208686       3.56917938      -0.00092629       0.00486605      -0.00776991
C       -2.41207301       4.31408457       3.58456127       0.00483253      -0.00087499       0.00053411
C       -3.63381753       6.45080418       3.65895341       0.00230670      -0.00337782      -0.00646483
C       -4.87465538       8.59205948       3.70096882      -0.00293350      -0.00088441       0.00485540
C        2.51229549       0.07614656       3.72452585       0.00137170       0.00560247      -0.01515190
C        1.24620895       2.16050759       3.62063356       0.00283352       0.00634007      -0.00528491
C        0.02287354       4.27512242       3.55572749      -0.00010072      -0.00201677      -0.01218494
C       -1.15899419       6.43773182       3.64849287      -0.00189274      -0.00104598       0.00419750
C       -2.41350391       8.59561889       3.69811608       0.00179159      -0.00226816      -0.00678644
C        4.98493455       0.04809479       3.74637855       0.00119234      -0.00100507      -0.00648691
C        3.74587566       2.24133798       3.88138811       0.00044447       0.00221859      -0.00313362
C        1.30165178       6.40892582       3.91508140       0.00155095      -0.00089406      -0.00239227
C        0.05176550       8.56926257       3.75257939       0.00166645       0.00014278       0.00955764
C        7.45115110       0.02976321       3.70688138      -0.00375143      -0.00352591       0.01145855
C        6.22870262       2.16534003       3.73913238      -0.00650288       0.00299462       0.00255621
C        5.01805075       4.28622724       3.91921704       0.00305215      -0.00323292       0.00327696
B        3.71796584       6.43506965       4.00368248       0.00494335      -0.00456670       0.00398227
C        2.51395253       8.58321114       3.81913956       0.00172892      -0.00038897       0.00416717
C        9.91771170       0.02867871       3.67050806      -0.00206030      -0.00086889      -0.00081902
C        8.68601189       2.16792316       3.62444595      -0.00109650      -0.00137279      -0.00300256
C        7.47366899       4.30922757       3.68385525       0.00149285       0.00177447      -0.00320507
C        6.23668700       6.44866185       3.77273487      -0.00206114      -0.00598268       0.00777288
C        4.99564721       8.58484837       3.76079470       0.00143681       0.00253991       0.01087000
C        0.03891461       1.45641282       3.60797328      -0.00075493       0.01161494      -0.00281032
C       -1.18777701       3.58744171       3.54365570      -0.00008140      -0.00086606       0.00148081
C       -2.39402729       5.73597385       3.61907155       0.00176147      -0.00120210      -0.00835831
C       -3.63988740       7.87963244       3.68316079      -0.00122086      -0.00229868      -0.00185248
C       -4.87762611      10.02356365       3.69301235      -0.00401558       0.00694200       0.00051876
C        2.49177201       1.50858270       3.75181858      -0.00121208       0.00677384       0.00268438
O        1.18069538       3.52987921       3.47942575      -0.00095935       0.00062391      -0.01006159
C        0.10180158       5.70877751       3.68548877      -0.00419821      -0.00233846       0.00645666
C       -1.17552639       7.86585783       3.69948626       0.00157021      -0.00245970      -0.00531021
C       -2.41984234      10.02526427       3.73084781       0.00239538       0.00024024       0.00271185
C        4.98266244       1.47545711       3.78827816      -0.00331418      -0.00017513       0.00222729
C        3.82261854       3.60322400       4.09535059       0.00727830      -0.00591696       0.00677272
C        1.29593447       7.81174469       3.83851657       0.00332570       0.00016631      -0.00233283
C        0.05044343       9.99802231       3.73438852      -0.00104119      -0.00167855       0.01243890
C        7.45882893       1.45021831       3.67778591      -0.00673004      -0.00093454       0.00792065
C        6.25577911       3.58248894       3.76334203      -0.00128200       0.00211064      -0.00539594
C        5.02683977       5.72034199       3.90123509      -0.00160047      -0.00607155       0.00247723
C        3.74831497       7.90011992       3.85298960       0.00201013      -0.00229223       0.00211094
C        2.51345008      10.00359407       3.72336951      -0.00268605      -0.00032019       0.00504547
C        9.92100116       1.45519205       3.60937096       0.00157800      -0.00228962       0.00205923
C        8.69721940       3.59648719       3.61567828       0.00323616       0.00089644       0.00846305
C        7.47801764       5.73728278       3.69721261       0.00302871       0.00036190      -0.00492100
C        6.23021298       7.87626801       3.74434336      -0.00326709      -0.00518570      -0.00748806
C        4.98756824      10.00592251       3.68963730       0.00214162       0.00567561       0.00053323
Zn       2.51629790       4.98605073       4.75812412      -0.00956791      -0.01108124      -0.00781954
O        1.48450072       4.06952555       6.09462535       0.00174367      -0.00978200       0.00387057
O        1.81592237       4.80253747       7.32062585       0.01557094       0.00401147       0.00854492
H        2.19463839       4.07456928       7.84937464      -0.01191553       0.00768047      -0.01195240
