52
Lattice="12.336457 0.0 0.0 -6.168228499999997 10.683685154694365 0.0 0.0 0.0 15.0" Properties=species:S:1:pos:R:3:forces:R:3 energy=-438.33545375879675 free_energy=-438.33545375879675 stress="-0.0016672213688684958 -0.0026654230772238524 4.2326453001577684e-05 -0.0026654230772238524 -0.005863732537783256 4.196608676266697e-05 4.2326453001577684e-05 4.196608676266697e-05 7.392982679091241e-06" pbc="T T T"
C        0.01894226      -0.04047901       3.56259520      -0.00955478      -0.00542211       0.00165236
C       -1.22847699       2.09914526       3.48535433       0.00308120       0.00159596       0.00075617
C       -2.46738815       4.23614735       3.64672775       0.00067218      -0.00037397       0.00057694
C       -3.68116135       6.37457242       3.70514945       0.00741090      -0.00546147       0.00188591
C       -4.90753822       8.50634573       3.65244740       0.00675026      -0.00801388      -0.00222606
C        2.49044258      -0.08508060       3.73538300       0.00596647      -0.00306760       0.00008385
C        1.27436249       2.02350896       3.40857720      -0.00487971       0.00496073       0.00705478
C       -0.01867418       4.26902312       3.55676302       0.00334670       0.00257461      -0.00905118
C       -1.23031416       6.37001554       3.89318107      -0.00380009       0.00804454      -0.00600352
C       -2.43306926       8.49616969       3.84607726      -0.00668023      -0.00686137      -0.00022808
C        4.95624122      -0.04385545       3.92693304      -0.00176643       0.00263498       0.00389938
C        3.67320815       2.03352067       4.01361780      -0.00922888      -0.00140847       0.00294629
B        1.17517676       6.38422787       4.38373972       0.01275145       0.00090554      -0.00066604
C        0.03742363       8.50486634       4.01315901       0.00192279       0.00808895      -0.00550563
C        7.42197322      -0.02664047       3.86494514      -0.00556777      -0.00056950       0.00797970
C        6.16172040       2.12562397       3.88155647       0.00643275      -0.00067519       0.00044675
C        4.94353637       4.35116482       3.83086383      -0.00604400       0.00793277       0.00345205
O        3.79768570       6.46544210       3.81391145       0.00321480       0.00024022       0.00078442
C        2.52509443       8.51181984       3.93390946       0.00592064       0.00724535      -0.00132066
C        9.88388013      -0.02884343       3.67267077      -0.01916549       0.00340507       0.00024333
C        8.63647638       2.10736736       3.68470141       0.00737533       0.00003496       0.00052398
C        7.39694296       4.25057026       3.69730437      -0.00166155       0.00561434      -0.00314174
C        6.20187020       6.41081228       3.60745309       0.01135010      -0.00494493      -0.00623831
C        4.96814769       8.52952241       3.67280127       0.00444326      -0.00590623      -0.00716274
C        0.01570684       1.38194218       3.45738278      -0.00177930      -0.00184469       0.00069545
C       -1.22851894       3.52257827       3.53636513       0.00395249      -0.00020964      -0.00238921
C       -2.45908535       5.65917241       3.74702535       0.00165695      -0.00075211       0.00513312
C       -3.66820156       7.79479526       3.73141370      -0.00027784      -0.01280068       0.00341925
C       -4.91536116       9.92139367       3.63814041       0.00317799      -0.00511898       0.00548602
C        2.47584537       1.32133184       3.72201103      -0.00543154      -0.00086150      -0.00770107
P        1.52049858       3.69120547       2.88069529       0.00540217      -0.00051210       0.00242088
C       -0.01497138       5.63944394       3.91968881      -0.00769736       0.00283482       0.00192602
C       -1.19873779       7.78611116       3.94979507      -0.00234587       0.00846439       0.00012957
C       -2.43709649       9.91224820       3.85289663       0.00393761      -0.00687573       0.00294232
C        4.94042747       1.38906960       3.96757864      -0.00401030       0.00541720      -0.00704953
P        3.38235227       3.72193878       4.37508602       0.00118043       0.00175780      -0.00619370
C        1.28844769       7.81471401       4.10509853       0.00739854       0.00924921      -0.00548148
C        0.02352563       9.93774424       3.94081108      -0.00414969       0.00633434       0.00147917
C        7.40080344       1.40459480       3.80806834       0.01035666      -0.00612155       0.00326074
C        6.14880354       3.56156052       3.79668547      -0.00327116       0.00406827       0.00520022
C        4.98854768       5.74639581       3.70037214       0.00567469       0.00431358       0.00078219
C        3.76625016       7.83841041       3.81455701       0.00649036      -0.00117867       0.00323847
C        2.49845591       9.94016269       3.81900507      -0.01234185       0.00449352       0.00823058
C        9.87645808       1.39789173       3.60173104       0.00286042       0.00281643       0.00629341
C        8.63441014       3.53082313       3.66663523      -0.00096484       0.00273977      -0.00092324
C        7.42026646       5.66856635       3.65028302       0.01055691       0.00200994      -0.00439145
C        6.20170633       7.82012439       3.61929461       0.00890133      -0.00750691      -0.00401201
C        4.95124792       9.94934772       3.63018853      -0.01924380      -0.00173506      -0.00113262
Zn       2.33821498       5.23242913       5.73396465      -0.00671584       0.00627065       0.00066077
O        2.64687064       6.06576314       7.36939288      -0.00353370      -0.00799388       0.00022517
O        1.70426272       5.22314524       8.14477139      -0.00475107      -0.01219652      -0.00832001
H        2.33926936       4.86701369       8.79138612      -0.00732234      -0.00563518       0.00532903
