51
Lattice="12.336457 0.0 0.0 -6.168228499999997 10.683685154694365 0.0 0.0 0.0 15.0" Properties=species:S:1:pos:R:3:initial_magmoms:R:1:forces:R:3 energy=-446.01298509617465 free_energy=-446.01298509617465 stress="-0.0011730266853822713 -0.001747015955421711 0.00014648659478561524 -0.001747015955421711 0.0018683247202342563 0.00018656999976439072 0.00014648659478561524 0.00018656999976439072 3.745544876996969e-05" pbc="T T T"
C       -0.00300694      -0.01053394       3.65605248       0.00000000       0.00238815       0.03412292      -0.06998820
C       -1.25276786       2.11364151       3.68321041       0.00000000      -0.01109900       0.03557646      -0.01631099
C       -2.47047740       4.25061379       3.54957929       0.00000000      -0.06113449       0.04281694      -0.02148462
C       -3.68982264       6.39878425       3.42608994       0.00000000      -0.02211631      -0.01393155       0.09665108
C       -4.93042675       8.54424622       3.48162577       0.00000000       0.09045884       0.01565651      -0.04659831
C        2.45217816       0.01173815       3.62314327       0.00000000       0.05697472       0.05003113       0.05014751
C        1.18481384       2.13512687       3.86349002       0.00000000      -0.01437291      -0.01537760       0.04151383
C       -0.05048649       4.22745001       3.97159253       0.00000000       0.03982475       0.00751379      -0.15092356
C       -1.23630733       6.36563725       3.74548897       0.00000000      -0.04496024       0.01633301       0.01404038
C       -2.46337819       8.52847064       3.55435218       0.00000000       0.02826409      -0.02216872      -0.03225765
C        4.92408362      -0.02311998       3.53312235       0.00000000       0.01706907      -0.00059984       0.03400866
C        3.69504509       2.09342272       3.85262487       0.00000000       0.08465735      -0.04176565       0.12902636
B        0.97305344       6.58567768       4.70108236       0.00000000      -0.02559351      -0.10299361      -0.00725965
C        0.00759271       8.52998212       3.67388863       0.00000000      -0.05070647       0.06775744      -0.05649734
C        7.39926602      -0.03048318       3.48953279       0.00000000      -0.00720497       0.01521892      -0.01482815
C        6.15453725       2.11846469       3.56354126       0.00000000       0.05354370       0.05396347       0.05535764
C        5.00061073       4.29979165       3.84315091       0.00000000       0.00995550      -0.04766244       0.02587854
N        3.84299295       6.43958240       4.09940098       0.00000000      -0.02329779       0.01984863      -0.02549484
C        2.47363080       8.49682893       3.75472597       0.00000000      -0.08809770       0.01401981       0.09697842
C        9.85884333      -0.02682458       3.56696035       0.00000000       0.00387237      -0.02741842       0.00472141
C        8.62108798       2.11729124       3.46144438       0.00000000       0.05836822      -0.03568145       0.07668813
C        7.40653935       4.26748143       3.43015360       0.00000000       0.05491471       0.01009008       0.01024144
C        6.18725939       6.41895541       3.47240372       0.00000000      -0.01013290      -0.06671345       0.10943061
C        4.94240490       8.52669511       3.59901989       0.00000000      -0.00647333      -0.06859396       0.05024703
C       -0.01270845       1.41704898       3.77062594       0.00000000      -0.00802175       0.02296312      -0.14655522
C       -1.24767806       3.53039828       3.71194660       0.00000000      -0.08959466       0.04057237       0.04675340
C       -2.46893528       5.66891508       3.54932809       0.00000000      -0.04816126       0.05172083      -0.09945956
C       -3.69781543       7.82466116       3.46985781       0.00000000       0.07599255      -0.03550372       0.00623849
C       -4.93897495       9.97392493       3.57497665       0.00000000       0.06473981       0.03002057       0.07728382
C        2.44459105       1.44816668       3.78864932       0.00000000       0.02089821       0.06887600      -0.02338403
O        1.13959198       3.50628673       4.02962241       0.00000000       0.05158929      -0.01452157      -0.00529559
C       -0.06603632       5.63754671       4.05355986       0.00000000       0.00275497      -0.04621504      -0.05074825
C       -1.23368822       7.80779972       3.67336110       0.00000000      -0.01852928       0.02543229      -0.00393892
C       -2.47989462       9.96371443       3.57615039       0.00000000       0.01245512      -0.00970691      -0.12629689
C        4.90986072       1.40594100       3.63920015       0.00000000       0.03383790       0.02032919      -0.10331620
B        3.92958386       3.43986458       4.52777832       0.00000000      -0.08600538       0.05311746       0.04095440
C        1.23257475       7.86243831       3.89997138       0.00000000      -0.10205163       0.07092298       0.05181030
C       -0.00435092       9.95262885       3.50266580       0.00000000      -0.01527167       0.04080154       0.11128490
C        7.38475163       1.40401249       3.46974125       0.00000000       0.00042043       0.00794139      -0.03175518
C        6.16657166       3.56389579       3.59019831       0.00000000       0.07837067       0.03421223      -0.10580333
C        4.97458709       5.72845711       3.78155684       0.00000000      -0.10002625      -0.08283035       0.00326067
C        3.74567452       7.77477135       3.82410222       0.00000000      -0.06245126       0.02483869      -0.02419822
C        2.46782865       9.92959701       3.55498717       0.00000000      -0.03251160      -0.00859900       0.07227796
C        9.85741438       1.40563625       3.55095929       0.00000000       0.06322657      -0.02790870      -0.00627603
C        8.62773378       3.54363008       3.44295333       0.00000000       0.04873612       0.00463457       0.02853379
C        7.40971537       5.69188512       3.41013949       0.00000000      -0.01020312      -0.01253191      -0.06696748
C        6.17700521       7.83342788       3.48878706       0.00000000       0.01755872      -0.04119133       0.02335185
C        4.92981779       9.95182088       3.60812717       0.00000000       0.00152835      -0.01247810      -0.04490582
Zn       2.70770263       5.33579689       5.41514770       0.00000000       0.02496226      -0.01138030       0.13099516
O        3.46835243       3.70824372       5.76927018       1.00000000      -0.01572954      -0.05262651      -0.01509650
O        1.39324473       6.47811435       5.98809615       1.00000000      -0.04361543      -0.08093221      -0.09203526
