52
Lattice="12.336457 0.0 0.0 -6.168228499999997 10.683685154694365 0.0 0.0 0.0 15.0" Properties=species:S:1:pos:R:3:forces:R:3 energy=-446.7200360103446 free_energy=-446.7200360103446 stress="-0.003217226691519361 0.0018650607508363401 -5.8557192959224644e-05 0.0018650607508363401 -0.0006059206399821892 1.997914084808768e-05 -5.8557192959224644e-05 1.997914084808768e-05 2.72142229000876e-07" pbc="T T T"
C       -0.01676246       0.03277216       3.74830169      -0.00609848      -0.00113632      -0.00850745
C       -1.25758065       2.15032924       3.71905981      -0.00830783       0.00062173       0.00250588
C       -2.49804826       4.29174126       3.65414810      -0.00403617      -0.00251347       0.00146811
C       -3.73333377       6.42740327       3.64567688       0.00528899       0.00047946       0.00847363
C       -4.96672648       8.56716713       3.70655865       0.00167988       0.00594285      -0.00445262
C        2.45051037       0.04982484       3.73681999      -0.00438438      -0.00195760       0.00612126
C        1.22105968       2.21550608       3.87779374       0.00312059      -0.00012384       0.00531785
C       -0.04384335       4.27361377       3.90148349      -0.00550183       0.00359106       0.00147763
C       -1.27140011       6.43686483       3.76389761       0.00900654       0.00150308      -0.00865938
C       -2.50472325       8.57064859       3.71183139      -0.00332636       0.00426943      -0.00728424
C        4.91359375       0.00394451       3.68539758       0.00254888       0.00122974      -0.00083462
C        3.72287374       2.13000755       3.65810564       0.00741117      -0.00065033       0.00966321
C        1.19040442       6.42095010       4.04439992      -0.01197277      -0.00063373      -0.00432269
C       -0.03114439       8.54972910       3.79222013      -0.00416623      -0.00673338       0.00941594
C        7.38102091       0.00349734       3.68998904      -0.00670141       0.01267945       0.00959457
C        6.16368338       2.13063550       3.57412768       0.00216410       0.00059980      -0.00596816
C        4.95190139       4.22786967       3.56873247       0.00213141      -0.00383779       0.01605435
B        3.64087442       6.41419755       3.91877685      -0.00529898      -0.00719642      -0.01029699
C        2.43719614       8.56900494       3.84903717       0.00773872       0.00025893      -0.00417768
C        9.84804039       0.01571705       3.71782272       0.00628114       0.00424058      -0.00300387
C        8.61839152       2.14683644       3.61120912      -0.00378715      -0.00676767       0.00339574
C        7.38703271       4.28636468       3.56432312       0.00153848      -0.00254823       0.00192209
C        6.12413419       6.40250900       3.66283827      -0.00819612       0.00706370      -0.00690067
C        4.91532197       8.56937560       3.76325183       0.01119368      -0.00203831      -0.00119707
C       -0.01557119       1.45872111       3.77892195      -0.00751887      -0.00061735      -0.00523239
C       -1.27993623       3.56961399       3.73329687      -0.00484699       0.00300106      -0.00291498
C       -2.49957963       5.71986442       3.67735365       0.01053848      -0.00279365      -0.00066759
C       -3.73490548       7.85515498       3.68573010       0.00069973       0.00355284      -0.00743743
C       -4.95381864      10.00072339       3.73939663      -0.00381123      -0.00039047      -0.00762444
C        2.47440156       1.48180197       3.77206541       0.00724296      -0.00437152      -0.00221738
C        1.12368412       3.57032445       4.08862577      -0.00279858       0.00426101      -0.00569845
C       -0.02494166       5.73434909       3.90130548      -0.00050824      -0.00042677       0.00477195
C       -1.26976351       7.85644346       3.75232336      -0.00294607       0.00213431       0.00169742
C       -2.49556166       9.99844934       3.71118619      -0.00126204       0.00293677      -0.00433193
C        4.93004410       1.42560987       3.62978355       0.00827483      -0.00278381       0.00002513
O        3.77864569       3.50184623       3.53006143      -0.00761161       0.00293547       0.00263798
C        1.21375466       7.81426932       3.90157878      -0.00038283      -0.00402510       0.00114354
C       -0.02069567       9.96812782       3.71714272      -0.00172104      -0.00669065       0.00726576
C        7.38425908       1.42738637       3.61150522      -0.00229611       0.00685842       0.00270845
C        6.16731070       3.54849253       3.53448424      -0.00190272       0.00154077       0.00496447
C        4.90280775       5.64236545       3.69267759      -0.00912876      -0.00040604       0.00043889
C        3.66891233       7.87970965       3.84107251       0.00846344      -0.00676954      -0.00108667
C        2.44221276       9.98666912       3.74853606      -0.00065873       0.01131755      -0.00135995
C        9.84534625       1.43440521       3.67011493      -0.00591464       0.00234783       0.00134139
C        8.61536619       3.57472731       3.59083839      -0.00167442      -0.01106494       0.00628697
C        7.37158209       5.70754379       3.60724541      -0.00718907       0.00192385       0.00717679
C        6.13293276       7.83747234       3.71392793       0.00646726       0.00497753      -0.00611375
C        4.91800613       9.99730719       3.74196497       0.00120133      -0.00554977      -0.00438057
Zn       2.39234867       4.99754222       4.76329005      -0.00272957       0.00356883       0.00125810
O        3.34042353       4.17806995       6.21692904       0.00833299      -0.00316033      -0.01291344
O        2.60306519       4.70195686       7.38043070       0.00826086      -0.00266554       0.00352733
H        3.33333237       5.16728678       7.82895094       0.01709378      -0.00598347       0.00692997
