52
Lattice="12.336457 0.0 0.0 -6.168228499999997 10.683685154694365 0.0 0.0 0.0 15.0" Properties=species:S:1:pos:R:3:forces:R:3 energy=-444.5731692351045 free_energy=-444.5731692351045 stress="-0.0061975397098055236 0.0023167657193742144 -1.2937622328264215e-06 0.0023167657193742144 -1.936434625031972e-05 -4.918056299337463e-05 -1.2937622328264215e-06 -4.918056299337463e-05 1.8292886119581215e-05" pbc="T T T"
C       -0.01107587      -0.01547805       3.75653481      -0.00474836      -0.00659351       0.00566948
C       -1.24124385       2.11420496       3.81620576      -0.00158623      -0.00572880       0.00080250
C       -2.46218618       4.25252406       3.75880266       0.00112938       0.00108889      -0.00099904
C       -3.70246399       6.39164100       3.67659622      -0.00083575       0.00276693      -0.00254083
C       -4.94586377       8.53738280       3.64740141       0.00025234      -0.00215454      -0.00914492
C        2.45565836       0.00892650       3.82737705      -0.00002583       0.00110927       0.00098329
C        1.21653118       2.16366924       3.98065509      -0.00297322       0.00125023       0.00692101
C       -0.00333090       4.27189037       3.98004413       0.00625453      -0.00417659       0.00326432
C       -1.25464219       6.40602569       3.82816192       0.00020475      -0.00219141       0.00577413
C       -2.48167458       8.54067935       3.77016284       0.00007574      -0.00715980       0.00484796
C        4.92900645      -0.01159152       3.81525283       0.00895922       0.00348224      -0.00063049
C        3.71329914       2.15054983       3.88494352       0.00188652       0.00264020      -0.00893123
O        1.11584175       6.45172547       3.98564811      -0.00744670       0.00123194       0.01033194
C       -0.02201976       8.52362415       3.79584586       0.00044071       0.00475994      -0.00046802
C        7.40245159      -0.04299497       3.78541039      -0.00099244       0.00242570      -0.00108018
C        6.19094784       2.09429702       3.74901649       0.00439363      -0.00180761      -0.00190418
C        4.97953828       4.20717786       3.61326176      -0.00051271       0.00197669       0.00018676
P        3.56906389       6.25651272       2.60554158      -0.00128570      -0.01595806      -0.00014176
C        2.43137949       8.48626646       3.64846997       0.00379217       0.01305057       0.01233620
C        9.85980207      -0.04144354       3.73530046      -0.00338302       0.00089272      -0.00711495
C        8.64359805       2.10113816       3.74530368      -0.00599697      -0.00553197       0.00391773
C        7.43003469       4.24046034       3.63755628      -0.00200224       0.00139081       0.00032619
C        6.19333974       6.38779509       3.45803955       0.00137536       0.00008408      -0.00517581
C        4.91959992       8.51640250       3.50861366       0.00601204      -0.00187360      -0.00267175
C       -0.01667126       1.40706227       3.85268253      -0.00220786      -0.00627494       0.00198144
C       -1.24201832       3.54366288       3.84055118       0.00549597      -0.00241605      -0.00294853
C       -2.47525724       5.67635508       3.75556474      -0.00051403       0.00498373       0.00055060
C       -3.71416219       7.82355691       3.69796797      -0.00206594      -0.00268156      -0.00869643
C       -4.94269412       9.96422317       3.74572535      -0.00223188      -0.00386922       0.00288118
C        2.46206222       1.43174891       3.92502142      -0.00263517       0.00576036      -0.00570515
C        1.15933307       3.54165686       4.15309171       0.00435705      -0.00296240      -0.00333576
C       -0.05567659       5.71512327       3.94682066      -0.00280575      -0.00701714       0.01006757
C       -1.26143967       7.82861444       3.80168749       0.00250068      -0.00281782       0.00420390
C       -2.48166161       9.97053530       3.80641010       0.00664538      -0.00126718      -0.00644175
C        4.94906280       1.40369772       3.81315152       0.00499851       0.00523981       0.00160387
C        3.79569573       3.53843041       3.90843718       0.00151673      -0.00055598      -0.00769516
C        1.17784133       7.82143606       3.76657952      -0.00109337       0.00529236      -0.00357478
C       -0.00665199       9.95021902       3.79707637       0.00513611       0.00280533      -0.00294969
C        7.41707709       1.38189465       3.76215208      -0.00137303      -0.00691693      -0.00038419
C        6.21602998       3.50871648       3.65427542       0.00002069      -0.00276671       0.00316435
C        5.00409681       5.63081131       3.35308205      -0.00432078       0.00222044       0.00506123
C        3.67347640       7.82757224       3.37856528       0.00044425       0.00152421       0.00946280
C        2.45374511       9.91619283       3.74326784      -0.00166136       0.01300476      -0.00034074
C        9.86516235       1.38618081       3.76838213      -0.00617199      -0.00321909      -0.00256215
C        8.64989944       3.52900728       3.70930742      -0.00240014      -0.00159541       0.00461284
C        7.42082817       5.67073789       3.59120213      -0.00064295       0.00297837       0.00277265
C        6.16632840       7.81691288       3.50450877       0.00542587      -0.00334654      -0.00097227
C        4.92636610       9.94274804       3.67508234      -0.00372909      -0.00318128      -0.00378344
Zn       2.55422048       4.73191539       4.83117096      -0.00950813      -0.00235255      -0.00203904
O        2.72468754       5.83463307       6.34327711       0.00378273       0.00872054      -0.00410350
O        2.37018392       4.88377834       7.41749451      -0.00090715       0.00556956      -0.00059893
H        3.18749162       4.94607188       7.94584073       0.00095743       0.01016700      -0.00478926
