51
Lattice="12.336457 0.0 0.0 -6.168228499999997 10.683685154694365 0.0 0.0 0.0 15.0" Properties=species:S:1:pos:R:3:initial_magmoms:R:1:forces:R:3 energy=-733794.50494929 free_energy=-733794.50494929 stress="352.5749788333342 147.53175587879244 -185.60700049428885 147.53175587879244 112.59295811711299 -112.34488119135291 -185.60700049428885 -112.34488119135291 308.4791090039744" pbc="T T T"
C        0.98461084       1.34094455       1.54177897       0.00000000    1017.24673981     889.00616552     327.30611348
C       -0.67676225       2.77501540       5.20182982       0.00000000   -3867.52553646   -2728.85054994    2525.77601404
C       -2.20933877       8.58291282       6.17512409       0.00000000     -19.49565725      46.78055688      38.30903977
C       -2.93460187      10.01056782       2.93817011       0.00000000    -189.42096938    1123.86104476      38.85332175
C       -6.26416172       9.04320181       4.32836612       0.00000000     267.88085885      18.90547898      91.72101204
C       -1.29446928       2.52280340       2.07667280       0.00000000    2038.68140456     103.10442269    -330.05925907
C        4.22505240      -0.60890018       5.46505868       0.00000000      65.30001239     -88.13665708     181.34355126
C       -1.19928716      -1.89529805       1.76758554       0.00000000   -1830.23991107   -1223.08869791     723.11502362
C       -3.09412004       8.05275344       4.89708857       0.00000000    -100.35623727      26.18365169     113.15736952
C       -3.60707804       9.94326852       5.75733363       0.00000000      19.11498869     -84.82078574     135.83423959
C        5.38277821       4.33308128       6.91059283       0.00000000   -2752.90988964    1294.35148340   -2655.66663895
C        3.28327626       0.29354956       3.62269742       0.00000000    -461.51928669    2695.36312515   -1836.67120842
O        2.05617808       4.69632119       2.95515047       0.00000000 1854438.10646326 1546949.13486681  384516.54395547
C        3.21523940       1.65430043       4.48549960       0.00000000    2121.15302606   -2456.64570452    1494.63150629
C        8.39378364      -0.60513081       3.83682119       0.00000000    -232.29213481   -1993.71569886    -303.95960851
C        4.17456938      -1.36272847       2.36069920       0.00000000     -80.57309703     126.35957301      36.55829195
C        4.33515373       3.31196176       4.96889040       0.00000000    6309.80284545   -4434.01601713    4984.46855114
C        3.18689197       5.86052636      -2.56860942       0.00000000     -95.30698853     -60.89782202     169.16479031
C        2.96808497       5.38470572       1.60515844       0.00000000  -79013.34344546 -135913.15980202  336025.34111085
C        9.33958783       0.86821452       1.70249006       0.00000000    -260.27349167    -105.16075188     -27.52519835
C        4.66742596       1.75502611       4.27774318       0.00000000   -2004.24219103    2975.74612246   -1375.43353742
C        6.32302022       7.53739751       8.30111186       0.00000000     -24.78997110      -9.94485084     -43.85313860
C       10.49890913       4.22397686       5.04882207       0.00000000    -612.86149218     228.92006715     -52.75834171
C        3.70276385      13.81147010       1.05736773       0.00000000    1498.36799013     490.92081108     481.12879983
C        0.92017968       0.39181255       3.08984473       0.00000000    1134.17596386    2854.69875834   -1343.44153199
C       -0.88860188       6.60996815       4.85357157       0.00000000    1806.19094528     717.93354162   -1485.43212893
C       -6.54192772       3.20887434       1.46031839       0.00000000   -1586.77356455     137.03297164    1034.67122196
C       -1.65489611       8.91850829       3.70294404       0.00000000     391.31033452    -401.62223028    -109.68043279
C       -3.86666134       6.40798073       3.68280337       0.00000000     -54.24378895      11.62444358     -15.14881750
C        6.07876046      -0.04800924       5.27936311       0.00000000     -14.04453952      38.80211878      38.60646378
O        2.07656786       4.70837698       2.93602976       0.00000000 -1418978.59362778 -1310727.02296493 -764891.30629304
C       -1.77890645       1.52717322       4.19829204       0.00000000     150.21191284      40.42295830      32.58690423
C       -1.58756669       7.81347036       7.00219713       0.00000000     -25.22341322      14.36818389      14.45045149
C       -2.97279090       8.09774817       4.00646927       0.00000000     -54.27220013     -20.15444641    -102.48184991
C        8.64920182       0.29673364       5.23614507       0.00000000      -7.74144183      44.10369302     -19.76451494
N        3.24315556       6.08596121       5.47682126       0.00000000 -197646.63751343   10191.27403196   71936.96603425
C        1.21799435      11.75163958       7.63131809       0.00000000      -1.34155450       3.66449714      -8.61879031
C       -1.41175205      13.73133374       0.42542801       0.00000000     751.53981617   -1504.77653656    -688.96362132
C       10.00103049       0.58341306       1.18020405       0.00000000     -64.56752329    -189.00216410    -216.76663713
C       10.87588739       3.71562469       1.28590100       0.00000000    2822.59239675    2646.67128730    -801.58789126
C        6.05393721       8.07666836      -1.88717523       0.00000000      49.59522646      52.99054378     -62.83034084
C        3.45342883       5.29935974       2.06194016       0.00000000 -335598.66646346  -85922.33007330   69501.89080213
C        3.80359356      11.52245152       7.58178794       0.00000000      -0.81552594      32.59565527      -2.84207101
C       10.59705841       0.04635380       3.39709549       0.00000000       5.53984755      34.64678336      44.52736741
C        6.88808254       5.31693571       5.95930904       0.00000000    -432.17955198     -37.84640410    -262.07568894
C        5.07882943       7.79668773       1.71967034       0.00000000    -666.19346071    1197.54545284    -161.99836493
C        4.97204967       7.27218855       2.50471709       0.00000000    4575.29921852    2408.26022711    2622.41085755
C        4.31150744       8.53115444       3.42179765       0.00000000   -2003.61263298   -1992.16946531    -366.36847020
Zn       2.55343783       6.39999832       5.43653927       0.00000000   98271.49841685   -5740.20422708   10313.08995124
O       -2.86138737       2.26622531       8.07892322       1.00000000       4.75754800      -8.97123428      -8.69640849
O        3.16055303       6.16476471       5.81401658       1.00000000   70941.69114587  -21752.73543318 -110248.52196040
