52
Lattice="12.336457 0.0 0.0 -6.168228499999997 10.683685154694365 0.0 0.0 0.0 15.0" Properties=species:S:1:pos:R:3:forces:R:3 energy=-443.92971785135376 free_energy=-443.92971785135376 stress="-0.00493704065702358 -0.0036911183842849755 1.8043163476284247e-05 -0.0036911183842849755 0.0019688548258080265 -5.7268566664445715e-06 1.8043163476284247e-05 -5.7268566664445715e-06 1.4446974781288308e-05" pbc="T T T"
C        0.00560159       0.09355273       3.82009168      -0.00534015      -0.00539531       0.00033183
C       -1.25535992       2.21196016       3.83966110      -0.00037554       0.00009141      -0.00069654
C       -2.46795955       4.36169285       3.81686247       0.00679484      -0.00121816       0.00093190
C       -3.66955406       6.51507209       3.76336666      -0.00158126      -0.00200994       0.00560856
C       -4.90380499       8.66405618       3.79251438       0.00266810       0.00024474       0.00466160
C        2.47079426       0.13098450       3.79155861       0.00048586      -0.00329408       0.00051610
C        1.18575037       2.21790643       3.76680022      -0.01289198       0.00730805       0.00388024
C       -0.04041428       4.31746333       3.98879488       0.00002696       0.00436984      -0.01004931
C       -1.23246481       6.49565420       3.91795085       0.01060792       0.00495968       0.00540822
C       -2.45418302       8.65513098       3.84309816       0.00323370      -0.00249245      -0.00911957
C        4.93835130       0.10180401       3.74323967      -0.00287619      -0.00632083      -0.00304633
C        3.68473670       2.20114676       3.37890387       0.00275345      -0.00173254       0.01967938
C        1.15644714       6.49486944       4.26034551      -0.00788686       0.01203670       0.01237809
C        0.00362989       8.63061183       3.93925847      -0.00481401       0.00928517      -0.01349836
C        7.40423392       0.07355733       3.80077256      -0.00699151      -0.00166229       0.00205268
C        6.16404958       2.23547336       3.54641588      -0.00129229       0.00220877      -0.00291018
C        5.02495321       4.44632619       3.32588412      -0.00120453       0.00592977      -0.00217948
N        3.85659145       6.52046270       3.91687002       0.00657663      -0.00544156      -0.01143878
C        2.49045889       8.58727197       3.97330473       0.00399219      -0.00460153       0.00238019
C        9.86392590       0.06666244       3.83686929       0.00180264       0.00198386      -0.00432273
C        8.62609744       2.21963826       3.74782408       0.00154756      -0.00640845      -0.00516389
C        7.42553953       4.37664175       3.63985934       0.00239549      -0.00176249      -0.00075864
C        6.23708841       6.54430651       3.64670985      -0.00649927       0.00146351       0.00011223
C        4.96643320       8.63882153       3.80862181       0.00444320      -0.00765176       0.01169452
C       -0.01142040       1.51928380       3.81751804      -0.00814033      -0.00162549       0.00193744
C       -1.24808979       3.62991508       3.87902939       0.00284902      -0.00294422       0.00067057
C       -2.45075955       5.78715519       3.82570299       0.00820366       0.00244962       0.00238672
C       -3.67512392       7.94249470       3.79989579       0.00170020      -0.00018642       0.00296322
C       -4.92043586      10.09018786       3.82317148      -0.00112926      -0.00050293      -0.00725133
C        2.44633042       1.56155977       3.67520760      -0.00959300       0.00180842      -0.00269395
O        1.12585521       3.58027584       3.98968927      -0.00369853       0.01392270       0.00177903
C        0.00218488       5.76109947       4.05722218       0.00677707       0.00046649      -0.00814594
C       -1.22494310       7.92570130       3.90053502       0.00371849       0.00450514      -0.00254869
C       -2.46122442      10.08576777       3.80344151       0.00024798      -0.00630076      -0.00473078
C        4.92411787       1.53212414       3.55170510       0.00259762      -0.00949081      -0.00767208
S        3.61891469       3.75466024       2.61778207       0.01482827       0.00560994       0.00492018
C        1.23803992       7.86739075       4.06725227      -0.00665885       0.00846709       0.00034648
C        0.00423453      10.05494203       3.82873806      -0.00867394       0.00380444       0.00814056
C        7.38886514       1.50874027       3.69725963      -0.00348519      -0.00186163       0.00066321
C        6.18743380       3.66931603       3.49282829      -0.00206230       0.00386416       0.00370256
C        5.00998099       5.85745253       3.59429148       0.00133568      -0.00118968      -0.00098606
C        3.75449671       7.88128813       3.90256105       0.00750637      -0.00884472       0.00464696
C        2.47130334      10.01813626       3.86995211      -0.00113971       0.00004454       0.00605555
C        9.85966064       1.49931872       3.81166950       0.00334439      -0.00018640      -0.00093913
C        8.64032161       3.64941339       3.73362283       0.00500126      -0.00591218      -0.00107526
C        7.44561930       5.80329195       3.66997175      -0.00547658       0.00054759      -0.00717631
C        6.20840005       7.95698276       3.74877735       0.00272658      -0.00126283       0.00469154
C        4.93896764      10.05548923       3.83063388      -0.00114642      -0.00747432      -0.00257543
Zn       2.56026403       5.33678592       4.82738166      -0.00294205      -0.00180263      -0.00519506
O        3.23362051       3.93339217       5.88141678       0.00095730       0.00294311       0.00779446
O        2.05166261       3.31683584       6.49381732       0.00777549       0.00154537       0.00834217
H        2.42250143       3.16832108       7.38765026      -0.01099819      -0.00028371      -0.01450233
