52
Lattice="12.336457 0.0 0.0 -6.168228499999997 10.683685154694365 0.0 0.0 0.0 15.0" Properties=species:S:1:pos:R:3:initial_magmoms:R:1:forces:R:3 energy=-358268.0487687407 free_energy=-358268.0487687407 stress="345.6848676955593 31.967875606386546 23.843101389831112 31.967875606386546 547.6394144981389 158.75962725368748 23.843101389831112 158.75962725368748 35.81810973711898" pbc="T T T"
C       -1.21948843       0.29530066       2.55342257       0.00000000     248.38325724     411.80605715     268.18140410
C        2.57047190       3.11127368       2.79443506       0.00000000   11572.07623263   56007.09486454  -26194.71754271
C      -14.98317167       5.29299050       1.82450176       0.00000000    -735.23052455    -112.18481362    -272.69501382
C       -6.82066372       0.98179648       8.06261931       0.00000000       0.95210741       7.14303650      -5.05154018
C       -9.18583890       5.50014961       6.02716404       0.00000000    -622.67779067     464.37623856    -982.74144166
C        2.43947561       4.13452267      -3.01520360       0.00000000      16.55399452      -4.80291447     -45.89959354
C       -0.15386613      -0.08226104       1.32166325       0.00000000     395.90696980     141.14253519     -94.11957305
C       -1.01433400       5.63958917      -1.75807594       0.00000000      33.76888305      17.56511372      96.23418589
C        3.56564448       4.86628884      12.81592132       0.00000000    -165.28564946      23.99410842     566.19615629
C       -0.09977320       8.83223936      -1.76887040       0.00000000    -153.08434332      19.95462451    -237.10269876
C        6.40012678       0.53355058       3.30103169       0.00000000    -510.49255701     994.43780018     154.08414927
C        3.53240131       4.12805166       5.15129117       0.00000000   -2105.33151887     457.04210881   -8565.92194773
C        2.02350946       5.73531275       2.65690034       0.00000000 -1677667.39700565 -227786.29364629  737801.51217882
S        1.85689491       7.65158954       2.44646107       0.00000000  103004.22492027  472848.39291737  230100.90352186
C       -6.62650815       8.16528402       9.88687019       0.00000000      -1.19632678       0.70511346      -2.21065059
C       -1.12905260      -0.83046598       7.98475082       0.00000000       1.22274798      -0.97568092       2.10345162
C       15.87199695       1.97657521       7.67907012       0.00000000      -7.81487280       3.04504294      17.59130390
C        5.13681366       7.97859598       5.07090663       0.00000000     537.53270808    -359.76210837      67.40044506
S        7.46633589       4.25070447      -1.97403671       0.00000000       0.71223246      -0.87695720       2.19287398
C        3.98550304       2.77040283       6.45698201       0.00000000      57.43164236    -110.86582295      92.56575104
C       10.39671828      -0.08740475       2.25395433       0.00000000     831.04345848     981.74644745    -122.56157690
C       12.32640076       0.67659164       4.52548516       0.00000000     145.02735280     329.63264291    -110.56442130
C       10.60234420       7.23296906       8.80976390       0.00000000     -22.16871330       4.28017472      34.00858549
C       14.53920012      -0.48877443       7.92893348       0.00000000      -0.43902491       0.47845560      -1.25173735
C        4.58389108      10.82643254       1.45219770       0.00000000     253.80044201     422.53275425     -84.19532177
C       -0.33998233       0.13911738      -0.48792710       0.00000000      41.13987561      12.45833947     -21.54754654
C        0.96256060       5.18945256       7.08172050       0.00000000    -176.94151845    -391.39039533     885.08698241
C       -1.16045724       9.51412896      -0.10498194       0.00000000    -259.10551637     182.03938023    -236.80545521
C       -0.47514420       7.67052440      -1.39785284       0.00000000     149.99572684    -120.07230609     162.61049300
C       -5.70315406      10.01540628       2.11045257       0.00000000     174.79053088       6.83124252      17.39504317
C        3.17510590       5.53469242       6.98338682       0.00000000      42.66525364   -1275.69745215    -576.18022420
C        2.42033367       4.69835939       2.51002793       0.00000000  196991.80915955 -148677.53172528 -143299.70060899
C        1.15090844       6.62142735       3.83050505       0.00000000  243044.91567363  335195.90756463  159359.07852117
C       -6.58318235       0.33734794      14.97403011       0.00000000    -108.71144612     136.03014635    -119.27459848
C       -9.45211268      16.92565100      13.79542678       0.00000000      -7.18715412      -7.02853475      -2.61239966
C        7.18890078       6.82438582       4.84311093       0.00000000      -5.68842774       3.81486602      33.36587281
C        6.42254264       2.05264622      -1.32440375       0.00000000      -1.22456211      -3.34624410       1.70547889
C        1.98769637       8.01826595       2.64488716       0.00000000 -156190.78059025 -661801.86503900 -270616.14341259
C        1.32471494       6.90209589       4.07687754       0.00000000 -165062.38916318 -444837.35478548 -262934.96852258
C        3.39992060       1.99826772       0.20658656       0.00000000    -422.41811708    1480.07524272    1282.86160000
C        2.76250827       4.84482883       6.28953967       0.00000000     987.41439065     968.05880820     853.49856430
C        2.50969072       5.20927807       2.38755637       0.00000000 -464390.72372663  258996.98976573  -15970.29106872
C        5.30979697      11.31652831      -4.09500774       0.00000000      -0.05467484      -0.13757117      -0.13094223
C        2.03301893       2.34157864       4.14439848       0.00000000    1181.54258861    1229.68704199    -986.44234457
C        6.98778313       1.55335642       7.71490652       0.00000000      -7.05995196      -1.77683209       0.78908736
C        9.98131467       2.50872505       1.45956183       0.00000000     182.54517762     163.83952806      50.31081828
C        5.07452387       6.15463529       4.23114750       0.00000000   -1039.24769179    -718.68749018   -1220.50745400
C        6.18639904       8.77731829       2.91438140       0.00000000     537.26173895     150.42867788       7.52217120
C        5.22883450      10.47653910       1.06468499       0.00000000     221.60247698      42.79340181    -571.66271213
Zn       1.82660487       5.87390509       2.49236673       0.00000000 1427948.37652673  -59737.74081702 -741135.41321905
O        8.31665620       5.15440921       6.32391129       1.00000000      -3.41282169       0.78257182      -2.11429933
O        1.68955080       5.43906669       2.78281727       1.00000000  481063.36762090  414243.28452275  342555.62922773
