51
Lattice="12.336457 0.0 0.0 -6.168228499999997 10.683685154694365 0.0 0.0 0.0 15.0" Properties=species:S:1:pos:R:3:initial_magmoms:R:1:forces:R:3 energy=-439.1643553244899 free_energy=-439.1643553244899 stress="-0.005911006954903243 -0.0022425691272992096 4.599235229206364e-06 -0.0022425691272992096 0.0011777087110012617 5.280283364966396e-06 4.599235229206364e-06 5.280283364966396e-06 7.519918329386313e-06" pbc="T T T"
C        0.04058464       0.01980974       3.87262891       0.00000000      -0.00361075      -0.00707272       0.00867984
C       -1.22138417       2.13251288       3.88704372       0.00000000       0.00320222      -0.00006368       0.00049360
C       -2.44514893       4.28191436       3.96734009       0.00000000      -0.00021800       0.00253984      -0.00102479
C       -3.64842888       6.43510651       4.01399708       0.00000000       0.00016188       0.00915048      -0.01221618
C       -4.87589365       8.58693984       3.95506753       0.00000000      -0.00440156       0.00366814       0.00063485
C        2.50529364       0.05676131       3.83854676       0.00000000      -0.00070101      -0.00945263      -0.01049090
C        1.22116510       2.13972500       3.71296842       0.00000000      -0.00755955       0.00621049       0.00092554
C       -0.03078936       4.24658496       3.79116905       0.00000000      -0.00464584       0.00497900       0.00399910
C       -1.21247530       6.42213839       3.97606445       0.00000000       0.00089188      -0.00348458      -0.00328469
C       -2.42623703       8.58056994       3.97685621       0.00000000       0.00500340      -0.00476486      -0.00143952
C        4.97015366       0.02057681       3.76057497       0.00000000       0.00554454       0.00138327      -0.00277232
C        3.73275283       2.09878243       3.27757994       0.00000000       0.00130633      -0.01195684       0.00373957
C        1.15495973       6.41527886       3.57347379       0.00000000      -0.00306477      -0.00062117       0.01137479
C        0.03245485       8.55274338       3.82243732       0.00000000      -0.00468443       0.00257528       0.01130764
C        7.43879591      -0.00806671       3.74441509       0.00000000       0.00282077      -0.00633965      -0.00206105
C        6.20581686       2.15342481       3.56231996       0.00000000       0.00359455      -0.00355054       0.00440043
C        5.12090656       4.36415354       3.16635515       0.00000000      -0.00177975      -0.00625279      -0.00262375
N        3.92400390       6.49313073       3.31768582       0.00000000       0.00763185       0.01192449      -0.00923104
C        2.52206957       8.50897178       3.65134723       0.00000000       0.00368596       0.00423285      -0.00646991
C        9.89875922      -0.01282566       3.81108365       0.00000000       0.00457782       0.00255970      -0.00609817
C        8.66073064       2.13879823       3.83251467       0.00000000      -0.00519046      -0.00291805      -0.00593146
C        7.45556171       4.29579058       3.80132035       0.00000000      -0.00400538       0.00273521      -0.00267877
C        6.27182718       6.46193672       3.74838463       0.00000000      -0.00425522       0.00012483       0.00289013
C        5.00369442       8.56403030       3.77276317       0.00000000       0.00834619       0.00338372      -0.00066275
C        0.02456689       1.44526367       3.84031030       0.00000000       0.00070530      -0.00406278       0.00766409
C       -1.22459721       3.55055365       3.91044165       0.00000000       0.00060634       0.00067553       0.00093208
C       -2.43007556       5.70807171       4.01792011       0.00000000      -0.00029945       0.00265555      -0.00182042
C       -3.64858671       7.86509528       4.01059851       0.00000000      -0.00262714       0.00942896      -0.00151675
C       -4.88627402      10.01657904       3.91272968       0.00000000      -0.00421249      -0.00147386       0.00653252
C        2.48646138       1.48636817       3.62068735       0.00000000      -0.00693992      -0.00515083      -0.00551679
O        1.15192131       3.52486837       3.75265872       0.00000000      -0.00741136       0.01158138      -0.00218973
C        0.01371704       5.68527048       3.81461761       0.00000000      -0.00314341       0.00013227       0.00649179
C       -1.19735160       7.85141001       3.94608755       0.00000000       0.00190876      -0.00704849      -0.00157857
C       -2.43095565      10.01033254       3.87254104       0.00000000       0.00711006      -0.00467772       0.00119284
C        4.96460102       1.44485342       3.53935995       0.00000000       0.00558256      -0.00365343      -0.00578045
S        3.82917381       3.55038058       2.29207656       0.00000000      -0.00267985       0.01333700       0.00407466
C        1.26246512       7.79293374       3.67687068       0.00000000      -0.00578677       0.00277550      -0.00244642
C        0.03645834       9.97579014       3.78285129       0.00000000       0.00093737       0.00059433       0.00608677
C        7.42535048       1.42947425       3.72511136       0.00000000      -0.00156732      -0.00847228       0.00300758
C        6.23772440       3.58983602       3.52267205       0.00000000      -0.00435105      -0.00411815       0.01078556
C        5.08771265       5.78309992       3.39504805       0.00000000      -0.00032928      -0.00230190      -0.00484110
C        3.79650224       7.82068337       3.58392646       0.00000000       0.00956546       0.01319576      -0.00831443
C        2.50580662       9.93923915       3.74340020       0.00000000       0.00581199      -0.00096426      -0.00340851
C        9.89453753       1.41875342       3.86417580       0.00000000      -0.00023894       0.00177290      -0.00576390
C        8.66794354       3.56773670       3.89648485       0.00000000      -0.00459583       0.00058524       0.00369689
C        7.47095626       5.72035408       3.88296938       0.00000000      -0.00150220       0.00442436       0.00090905
C        6.23872507       7.87543809       3.84742226       0.00000000       0.00158670      -0.00107108       0.01038625
C        4.97493609       9.98003394       3.83629933       0.00000000       0.00121329      -0.00307119       0.00194430
Zn       2.51826147       5.22898339       2.95838490       0.00000000       0.00974640      -0.01162066       0.00133937
O        0.74006331       4.59525056       6.46254389       1.00000000       0.01544298      -0.00584293      -0.00969127
O        1.94748574       4.58100447       6.22823592       1.00000000      -0.01718287       0.00338102       0.00636442
