52
Lattice="12.336457 0.0 0.0 -6.168228499999997 10.683685154694365 0.0 0.0 0.0 15.0" Properties=species:S:1:pos:R:3:forces:R:3 energy=-446.6540423537777 free_energy=-446.6540423537777 stress="-0.0021763517811555196 -0.0004870082124214848 4.168425398250733e-05 -0.0004870082124214848 0.005401462712281846 1.7461251725914633e-05 4.168425398250733e-05 1.7461251725914633e-05 2.6246768230679072e-05" pbc="T T T"
C       -0.00894721       0.04506734       3.66432779       0.00394850      -0.00359975       0.01177729
C       -1.26072328       2.16341536       3.69224479       0.00464819      -0.00585461       0.00275274
C       -2.48890154       4.31006642       3.63129936       0.00023804       0.00174455       0.01363627
C       -3.71333366       6.45654725       3.55866409       0.00392737       0.00666039       0.00100291
C       -4.94031345       8.60399433       3.59149044       0.00389924      -0.00524253      -0.00015969
C        2.45249850       0.10426152       3.66672836       0.00935766       0.00054412       0.00093316
C        1.18032893       2.19090897       3.74380917      -0.00409336       0.00114705      -0.01538543
C       -0.05794600       4.27615510       3.83792944      -0.00390355       0.00575813       0.00293558
C       -1.26693423       6.44747500       3.71085477      -0.00724414      -0.00042961       0.00959363
C       -2.48959537       8.60590999       3.64484681       0.00193911      -0.00354989       0.00502098
C        4.91513652       0.04994500       3.70720126       0.00611440      -0.00984195      -0.00767694
C        3.72244419       2.21005559       3.67550646      -0.00215317       0.00180791      -0.00127165
C        1.10116268       6.45344298       4.17961333       0.00325052       0.00957335       0.00409774
C       -0.02784238       8.57796883       3.80699086      -0.00468226      -0.00054184       0.00210592
C        7.39182881       0.01123948       3.75445665      -0.00470701       0.00245470       0.00006523
C        6.16201268       2.16965721       3.65879756      -0.00426615      -0.00836480       0.00245512
C        4.95435108       4.29786074       3.65904317       0.00450512       0.00407515      -0.00958140
N        3.81872140       6.46077159       4.01935755      -0.00698194       0.00291028       0.00225028
C        2.46635418       8.52955995       3.90851857       0.00522056       0.00423221       0.00894012
C        9.85297009       0.00849249       3.72614992      -0.01389893      -0.00561297       0.00999811
C        8.61979229       2.16022054       3.65984405       0.00845960      -0.00014657      -0.00174525
C        7.39262967       4.31200751       3.57658339       0.00051867       0.00526822      -0.00304118
C        6.16919799       6.44956641       3.57837389      -0.00178637       0.00143686       0.00004633
C        4.93764200       8.57202046       3.69984445       0.00710424       0.00965917       0.00452579
C       -0.01307513       1.47605655       3.69803574       0.00194409      -0.00634828      -0.00223629
C       -1.26094217       3.58442750       3.70762545       0.00177931      -0.00122411      -0.01064755
C       -2.48626816       5.73651447       3.61323041      -0.00328126       0.00082310       0.00155533
C       -3.71243154       7.88710198       3.58352917       0.00389282       0.00125255      -0.00459970
C       -4.93773111      10.04326497       3.63816981       0.00824400      -0.00488174       0.00213736
C        2.45226703       1.55628073       3.70246731      -0.00197627       0.00504371      -0.00674932
O        1.11963343       3.56511927       3.86780553      -0.00819540      -0.00105442      -0.01067455
C       -0.03348193       5.71777555       3.89824658      -0.00205263       0.01024259       0.00297675
C       -1.26021487       7.87759750       3.71286932      -0.00340891      -0.00449563      -0.00534436
C       -2.49150673      10.04325031       3.67302831       0.00812060      -0.00570739      -0.00715750
C        4.91582934       1.48435409       3.68487428      -0.00558723      -0.01016229      -0.00887054
O        3.77947378       3.58612354       3.67181712       0.00504158       0.00257420      -0.00731770
C        1.20289240       7.81805485       3.97156902       0.00037857       0.01036243      -0.00044111
C       -0.01841307      10.00061021       3.75614213       0.00232805      -0.00356187      -0.00244893
C        7.38460752       1.44476435       3.68705149       0.00357371       0.00087617      -0.00853025
C        6.15984082       3.59537447       3.61384449       0.00164407      -0.00341995       0.01252639
C        4.94379250       5.73951057       3.72262344      -0.00256574       0.00456067       0.00522746
C        3.72846333       7.81403136       3.87517824       0.01037167       0.00640042       0.00684356
C        2.45838687       9.95778617       3.79408258      -0.01242603      -0.00358168      -0.00581873
C        9.85430485       1.44312976       3.68660069       0.00372666      -0.00794451      -0.00182787
C        8.62090749       3.59174771       3.60777715       0.00163784       0.00277288       0.00390644
C        7.39371139       5.73523437       3.54251425       0.00373651       0.00819350       0.01316562
C        6.16726677       7.87769741       3.60492473       0.00244346       0.00032674       0.00558426
C        4.92347858       9.99549756       3.69293287      -0.00619185       0.00832013       0.00073438
Zn       2.45724852       5.36277941       4.94458583      -0.00539287      -0.01466157       0.00058137
O        3.07999179       4.01249013       6.07498589      -0.00094276      -0.00185907      -0.00542446
O        2.47977576       4.42300392       7.36235618      -0.00236669      -0.01218385      -0.00795709
H        3.28847274       4.42971122       7.91054959      -0.01388966       0.00524971      -0.00246864
