51
Lattice="12.336457 0.0 0.0 -6.168228499999997 10.683685154694365 0.0 0.0 0.0 15.0" Properties=species:S:1:pos:R:3:initial_magmoms:R:1:forces:R:3 energy=-538992.4474214852 free_energy=-538992.4474214852 stress="-23.719922371286966 -45.962643172260414 108.58770835473744 -45.962643172260414 36.38462819793415 50.46643485912709 108.58770835473744 50.46643485912709 281.3305644127571" pbc="T T T"
C       -3.37100127      -1.12988380      -0.07807303       0.00000000     481.12021863   -1682.49396922    1098.78830587
C        1.44798565       1.93433644       7.02891345       0.00000000       4.46713425       1.37785103      -1.75839286
C       -5.14473654       3.58132423       5.49687632       0.00000000   -3574.60227553    2593.14034544   -2680.23726436
C       -7.89022854      10.61246002       5.73423007       0.00000000     193.56283108     506.46895590    2216.07023498
C       -1.06810760       5.65994652      -0.51828447       0.00000000      32.77029462       4.55394428       5.58497643
C        3.31876361       0.40446080       5.83085028       0.00000000      15.84479667      87.61019796     -24.52753998
C       -0.93294210      -3.33061694      -4.69573661       0.00000000      -0.31076998      -1.18499337      -1.27800564
C        5.49070491       1.91344471       3.12092534       0.00000000   -2255.63831239   10115.82303371    -849.69549665
C       -2.10292180      10.31353552       3.73846790       0.00000000       8.71793695     225.16262339      12.55267229
C       -0.25476214       8.35927654       4.01405251       0.00000000    2123.45114957   -1558.10006638    -442.47175010
C        5.04053216       1.63109276      -0.06331631       0.00000000    -452.85226455    3208.19899016    2429.87861334
C        0.31134149       3.53175946       7.89345000       0.00000000     -27.24323288     -55.29363867      46.75673358
O        0.31704317       8.27441797       0.59719880       0.00000000     756.77721625    -377.37050776     464.79992735
C       -2.81291650       6.78459953       4.77227938       0.00000000    -533.93428635    -242.64449943    -110.26106148
C        7.84995149      -0.95086555       4.21693576       0.00000000    2561.74075615   -4118.27236433   -1316.70459023
C        3.35805138       1.33739393       6.91610096       0.00000000      85.96203318     388.36914258    -311.22231271
C        4.16704812       5.09901776       2.99563931       0.00000000  510861.09643839 -615735.95193636 -1646047.21293451
C        4.20485214       5.52640572       3.07264266       0.00000000  619433.66102463 1450288.38882220 1752359.38100496
C       -3.15601639       3.43654843       4.47994959       0.00000000   -1498.20919728     587.16671290    -365.79622789
C       10.02020919      -1.12010944       3.81694653       0.00000000   -1577.39393959   32654.43940347   15386.48932373
C        5.92079995       7.39762502       1.91021416       0.00000000  -32352.90784565  -37211.53789740   51056.40279377
C        3.59322945       7.79310778       3.69825648       0.00000000  339536.02925005   83283.52171719 -341023.21647251
C       11.41343241      10.30175272       7.73723913       0.00000000       1.32677039       5.98340945      -4.06027360
C        7.66291560       5.79904822       6.06810724       0.00000000   -3681.47269936    -845.34459799   -2858.20306879
C       -1.13992612      -0.32320055       7.15544175       0.00000000     107.95750557      98.81038535     438.65701718
C        3.96741904       3.78933654       6.49693371       0.00000000     615.00633016    2565.03134792   -3819.35653523
C       -3.50671189       6.96590047      -0.83075087       0.00000000       3.42030344     -15.39511442       1.94968636
C       -3.46221931       0.66845754      -8.64697923       0.00000000    -215.59654941     346.98719997     378.19957347
C       -4.08046308      11.60292349       3.23970471       0.00000000    1289.30148608    2658.40111379    -183.19107525
C       -0.81634949      -2.61886390       3.46693770       0.00000000   22449.66309036   89551.02219922   -7651.40632567
N        5.66181535       3.07021185       3.91866119       0.00000000    9314.12312194  -14372.26812201    4015.98205730
C       -1.39298441      -0.63849417       3.79904794       0.00000000   -6895.37432011  -21092.55263841   -4660.39413119
C        1.92474455       5.88041345       0.70490409       0.00000000   11157.00403633   -3492.77844325   11900.94014926
C       -0.25544078      14.42673629       3.09732905       0.00000000   92245.22825387 -141596.56409392     361.82069035
C       10.83402162       0.35277658       4.13526800       0.00000000     -49.14409831     860.76884049    -751.20280625
O        4.28147584       5.69517123       3.30603912       0.00000000 -1957026.63775391 -896139.42676412  331352.54086422
C        4.01124034      11.18001039       5.66975306       0.00000000    -159.53619799    1092.68439604     938.82560989
C       -0.04861183       8.86700677       8.79052193       0.00000000       3.43029850       1.13668594     -10.42237078
C        3.32849359       1.62290349       2.67202537       0.00000000    1430.05348063    4497.28839703     258.25955082
C       10.58762101       1.36510576       9.73717842       0.00000000       2.70938162      -2.96347517      -3.88186771
C        4.21349556      -0.15894801       3.07024516       0.00000000      60.89716292     -99.62211034      96.62756233
C        5.23065538      10.67960153       8.51824525       0.00000000      -2.11000718       9.57567712      10.47864093
C        1.16631529       8.40104244       7.33788080       0.00000000     -68.27878086     -49.64961610     153.50994921
C        8.36157483       1.45750038       3.51887990       0.00000000    -572.62291967     601.97295165    -124.84708692
C        1.10417477       4.49129119       6.86714651       0.00000000    2435.52324352     961.33829145   -2909.40316435
C        5.35756252       8.00939684       2.17860841       0.00000000  -20000.69607612  -43319.34531864   48709.87935966
C        3.72819264       8.17760608       3.49690940       0.00000000 -149336.86345069 -395012.99397213  189593.49825255
C        4.75595438       9.38929683       3.55012202       0.00000000   19151.15749042   21969.89789794    1578.48344043
Zn       4.59109644       5.95752031       2.95244991       0.00000000 -118486.98720494   84731.78418034 1764819.43997021
O        5.21851714      16.30926824       5.07030117       1.00000000     150.10826918      -0.00455447     -63.90595565
O        4.76011569       6.27195684       3.18777563       1.00000000  662256.30087741  383124.85397999 -2163471.14025017
