52
Lattice="12.336457 0.0 0.0 -6.168228499999997 10.683685154694365 0.0 0.0 0.0 15.0" Properties=species:S:1:pos:R:3:forces:R:3 energy=-446.1863861910187 free_energy=-446.1863861910187 stress="-0.003902721768203755 0.0018160031094551663 1.611162413810615e-05 0.0018160031094551663 0.0052210943348954784 4.218322607483774e-05 1.611162413810615e-05 4.218322607483774e-05 4.143912640523884e-05" pbc="T T T"
C        0.00655939       0.02847860       3.73913353       0.00121187      -0.00608356      -0.00011185
C       -1.23469950       2.14436577       3.70310003      -0.00391000       0.00235754       0.00756481
C       -2.46482857       4.28302362       3.60435122       0.00056711      -0.00312444       0.01573765
C       -3.70250214       6.42810748       3.58361162      -0.00049402       0.00255873       0.00183358
C       -4.92870115       8.58091608       3.66311781       0.00333927      -0.00018469       0.00564072
C        2.47017267       0.07651561       3.71766392      -0.00621411       0.00013727       0.00964051
C        1.21856477       2.24093661       3.82794709      -0.00076049      -0.00159195      -0.00368046
C       -0.01720068       4.28630240       3.80779941      -0.00138854       0.00706739      -0.00196904
C       -1.25728177       6.42791970       3.67057301       0.00445498       0.00030060       0.00842792
C       -2.47428520       8.57586515       3.65552309       0.01187823       0.00408227       0.00651527
C        4.93542409       0.01214794       3.69865194      -0.01118922      -0.00236068       0.00176719
C        3.74683358       2.14440580       3.71167843       0.01564579      -0.00530174       0.00374387
O        1.08427984       6.45910762       4.00818407      -0.00224563      -0.00558200       0.01386523
C       -0.01592969       8.54633487       3.75969557       0.00636201       0.00139316      -0.00701897
C        7.41266000      -0.02670492       3.72841451      -0.00515934       0.00757791       0.00714370
C        6.19499004       2.12540914       3.64415732       0.00406743       0.00506622      -0.00679226
C        4.99929828       4.24729514       3.66853758      -0.00555073      -0.00155892      -0.00364203
C        3.78874554       6.38497963       3.98671155       0.00920037       0.00604559      -0.00512018
C        2.44139139       8.48485623       3.87123991      -0.00471586      -0.01038567      -0.00598205
C        9.86701982      -0.02293347       3.74941706       0.00305500       0.00338129       0.00606705
C        8.64562231       2.12783105       3.64390316       0.00060151      -0.00153688      -0.00225369
C        7.42180788       4.27823389       3.58189091       0.00153232      -0.00521897       0.00433596
C        6.19037752       6.41811997       3.64309876      -0.00960286       0.00573136      -0.00023695
C        4.93856034       8.53744901       3.77342237      -0.00255871       0.00671232      -0.00278944
C        0.00759050       1.46136592       3.75408985      -0.00661674      -0.00532185      -0.00262592
C       -1.24534359       3.56900412       3.67974209       0.00109572       0.00428966       0.00465669
C       -2.48073998       5.70532730       3.59773867       0.00185000      -0.00228204       0.00307442
C       -3.70776239       7.86006146       3.62282576       0.01092589       0.00665956       0.00144688
C       -4.92600690      10.01504443       3.71107366       0.00018339      -0.00478810      -0.00534856
C        2.48417107       1.51921682       3.76470861       0.00914028      -0.00058024      -0.00545859
N        1.15682523       3.59749647       3.95934464      -0.00324623       0.00201014       0.00330661
C       -0.07776844       5.71780325       3.80984782       0.00278435       0.00257840      -0.00726305
C       -1.25716416       7.85850070       3.68654158       0.01250748       0.00110715      -0.00348042
C       -2.47609111      10.01618216       3.68924549      -0.01006241       0.00028269       0.01047258
C        4.95042035       1.43660184       3.68364475       0.01347849      -0.00673822       0.00339618
O        3.82350955       3.52479128       3.66246102      -0.00274381      -0.00384191       0.00356805
C        1.18568672       7.84608746       3.87513479      -0.00300600      -0.00966424       0.00500571
C        0.00412315       9.97101519       3.72672142      -0.00848824       0.00377043      -0.00098535
C        7.41291274       1.41055668       3.66540976       0.00061495       0.00817334      -0.00206673
C        6.19898282       3.54819727       3.61126728      -0.00503044       0.00531975      -0.00121666
C        4.94958580       5.68194360       3.74534290      -0.00267994      -0.00212891      -0.00819262
C        3.70874077       7.75864875       3.88249655       0.00235069       0.00020196      -0.01335937
C        2.46457092       9.92258052       3.78336944      -0.00173997      -0.00371202      -0.01485320
C        9.87280802       1.41016369       3.69186018      -0.00176391       0.00366288      -0.00076711
C        8.64277198       3.55885878       3.59242120       0.00308323      -0.00853128       0.00732635
C        7.40890113       5.70562811       3.58226832      -0.00799375      -0.00009744       0.00178346
C        6.17766517       7.84577182       3.68628467      -0.00592461       0.00790121      -0.00378912
C        4.93898724       9.96667671       3.75687325       0.00212790       0.00243179      -0.00571568
Zn       2.49321452       5.03116207       4.62199770      -0.00078575       0.01818213      -0.00006239
O        2.89030280       4.14898929       6.28204217      -0.00177420      -0.00684551      -0.00648920
O        2.20304892       4.99077713       7.27357306      -0.00044898      -0.01549036      -0.00706959
H        2.96335514       5.17931312       7.85527535      -0.00596372      -0.00603115      -0.00797991
