52
Lattice="12.336457 0.0 0.0 -6.168228499999997 10.683685154694365 0.0 0.0 0.0 15.0" Properties=species:S:1:pos:R:3:initial_magmoms:R:1:forces:R:3 energy=-143408.03363926086 free_energy=-143408.03363926086 stress="197.38883069602488 123.19210054623687 -89.55780352122316 123.19210054623687 290.69550913023767 -32.708473442095624 -89.55780352122316 -32.708473442095624 223.35499260705268" pbc="T T T"
C       -0.70421355      -1.45758200       4.98377254       0.00000000     -51.19995255    2487.82556810   -1137.82517572
C        0.93596697       6.78787567       0.26428203       0.00000000     -14.96220726       7.16234461     -38.25860737
C       -2.96545931       4.56572300       6.36004839       0.00000000     -45.26954506      -5.52147308       3.73708504
C       -1.24738822       6.70683150       2.91494116       0.00000000     258.11995387      32.55631820     176.04065692
C       -9.26749332       9.44511486       2.63095704       0.00000000     -37.95885923   -1356.18234289    1428.94918384
C        3.26264031      -0.98759710       3.16352395       0.00000000      -6.22452078       6.93970315       9.77539707
C        1.75162643       2.68345303       5.27997065       0.00000000    1499.36714686    -906.44342256    -618.11163328
C       -2.78005190       4.42669403       0.25311301       0.00000000       0.53312367       0.43887751       2.52897503
C        0.82372201       2.64091497       4.88293540       0.00000000   -1654.96418326   -3560.15676475   -1274.93490787
C       -2.56028842       9.02434624       1.66893807       0.00000000      -8.20363010       1.43539346      -2.64053521
C        1.44858772       3.88876432       5.31155437       0.00000000  -10589.75436936   -5772.97980180     387.28096477
C        6.16218707       0.80258576      -0.43687261       0.00000000      -5.85224392      -1.37562528      -0.31054204
C        7.88606521       7.88193271       3.94317644       0.00000000    -375.26648702    -107.89666839     126.42090190
C        1.76448324       7.26108477       5.03626996       0.00000000    9269.72132895   -1586.42093153  -21929.92443929
C        2.97573556       8.29084823       4.11265409       0.00000000   -1512.43304670  -16439.39545151   10185.25588968
C        3.03448432       3.01705109       4.98069240       0.00000000    1381.80864224   -3077.56883667    -235.02049887
C        4.96940320       6.07135957       2.82089406       0.00000000    2225.58813551    -522.61857488   -2415.58390078
C        4.60028142       2.30577192       1.17640821       0.00000000      13.88256508     -26.42908077     -34.89196690
N        3.07162031       6.39545775       5.42106965       0.00000000   31487.46347089 -881260.72521291 -155118.83807287
C        2.25832980       7.16833034       3.48333649       0.00000000    2289.47036901   -6992.04677959   33766.19676121
C        9.89688404      -3.04479221       5.06219266       0.00000000  -25834.96010722  -11179.52741323    -646.62621361
C        8.20270047       0.30519629       4.66447126       0.00000000      23.34882758    -156.80980074      44.50013170
C        6.32730691       2.22209828       4.57371683       0.00000000      43.51095997     -26.76814713      34.54204107
C        4.32552023       4.55053364      -0.23374664       0.00000000       2.83735470       1.19086405       4.53273742
C        3.59784931       8.78656850       9.49392254       0.00000000     -79.66301551    -207.89426539    -279.97934121
C       -2.05174901       4.42252521       1.46837868       0.00000000      -3.38234523      -4.08315985      -3.83086121
C       -4.21354171       3.30913138       3.28855346       0.00000000       8.47897154       0.72565159     -11.07202822
C       -3.87602151       6.11129885       1.32730096       0.00000000     -39.84752490      13.20673515     -58.09173753
C       -6.43820938       8.24493030       3.80498950       0.00000000    1024.94320446     578.86582548    -713.50707927
C       -5.69253530       8.22523969       3.15568665       0.00000000    -275.03680925      -3.41132287     -29.54313126
C        2.31618737      -2.62090419       6.35435786       0.00000000     -16.71910702      -3.10036677      -5.94923735
C        6.38837341       3.97660577       5.84100804       0.00000000     796.35777002    -828.50776451     112.21410331
C       -0.08622267       8.76734995       2.65083864       0.00000000     257.83263802     -17.26796201      92.72317287
C        2.92832045      10.12080414      -2.40574849       0.00000000      -0.09962848       4.52084497       7.67178829
C       -2.59045903      10.28019153       2.10260531       0.00000000     -10.49922790       9.89433184       1.35408421
C        4.14859199       3.45400792       4.22378963       0.00000000     830.92124765   -2135.05091878     489.71643109
C        6.50045424       2.07987143       2.98048918       0.00000000      65.63716096     -38.63488169     -27.52273111
C        0.19783792       7.92403771       3.15506406       0.00000000    2721.50304085   -1474.06263932    1339.68634098
C       -1.92580918      10.62665234      -0.69715944       0.00000000       5.18967043       2.67552520       0.38118969
C        9.65812598       4.77443639       8.74346759       0.00000000      -0.74009750      -0.56860835      -2.20100776
C        9.48046044       1.71818268       5.06403654       0.00000000      16.21162419      -0.13167517     -11.56938724
C        3.05808066       5.94041450       5.08635464       0.00000000   43563.37440236  618583.63808612  523322.97056992
C        3.43642335       6.15878551       5.44354550       0.00000000 -562768.40239775 -294331.75170056  203747.12154103
C        3.93623175       9.50648362       5.79497180       0.00000000    -313.01546871    1687.33577997    -764.69912365
C        8.90205998       5.93844200       2.14029698       0.00000000      32.01081113     -11.84711780      58.44198847
C        8.67514980       1.00674967       5.77681908       0.00000000     -11.21549204    -152.57709117      -9.89573368
C        9.08950477       4.10370751       4.58176726       0.00000000      15.03992450      -1.33447394      -8.96914609
C        8.40026834       0.87367475       7.13651837       0.00000000      14.82730620     -77.18273733     -31.70943134
C        2.99655742      11.04695487      -0.97243243       0.00000000      -0.51461505      -3.81601939      -6.07918826
Zn       2.81006777       5.78647328       5.79681835       0.00000000  385351.96667952  622391.13488725 -694624.76158178
O        1.94104740       3.55937475      11.54378702       1.00000000      -0.75658627      -2.66226245       7.88082605
O        2.48813779       5.41393781       6.00154536       1.00000000  120456.99513794  -13536.79544155  104692.42447922
