51
Lattice="12.336457 0.0 0.0 -6.168228499999997 10.683685154694365 0.0 0.0 0.0 15.0" Properties=species:S:1:pos:R:3:initial_magmoms:R:1:forces:R:3 energy=-1546337.8832012953 free_energy=-1546337.8832012953 stress="1992.89767012725 -1139.8917420110336 1762.488092983441 -1139.8917420110336 2744.9562710941877 -2341.404653266216 1762.488092983441 -2341.404653266216 2011.21405318024" pbc="T T T"
C        3.36131066       0.07517883       5.02834692       0.00000000   -2047.22776646  -31121.54283710    6427.55873390
C       -3.48960564       3.72245620       0.53338429       0.00000000     -29.70119527     -68.08858499     -34.18239116
C       -1.14706169      10.61437513      -1.78955116       0.00000000       0.15004144      -0.28464226       0.10590027
C       -4.54863510       6.33388122      -2.99112168       0.00000000      -3.73613905       0.66880094       5.72389644
C        0.21105852       4.25778632       3.41171179       0.00000000  -64122.35868569    6880.10482336  -11037.68708014
C        2.48266585       0.04868141       5.24736249       0.00000000   -5794.13276054  -21227.12657699    5098.41598655
C       -0.10648419       7.64425036       4.35239444       0.00000000   -3544.92933100    4113.26498945     171.79214354
C       -2.98408388       4.52961306       0.76847211       0.00000000    -170.35355031      61.39322875    -188.20221922
C        2.20017096       4.99102266       3.65670193       0.00000000  710387.08253188 -706922.11394615  120650.99867259
C      -10.11238592       6.92238856       9.29845172       0.00000000    -133.11836361     416.67518083     582.42321434
C        3.10920431       0.75015837       1.28837735       0.00000000       5.38608841   -7769.23749206   -9078.84015775
C        0.86719321       3.17001573      10.20087821       0.00000000     -63.21862350     -25.06470046      84.54182306
C        3.22742467       3.59307832       4.84179134       0.00000000 1358826.51356751 5102597.76688514 2239863.52519147
C        2.65914741       7.87911835      -1.65654008       0.00000000      -0.52024413       3.92628944      -8.11318658
C        8.69670865       1.48648150       8.20463260       0.00000000      15.48842961     -12.34201278      20.88970291
C        6.78153251       1.71130394       2.68767892       0.00000000    9964.94917360   -6038.44742574   -6182.12730594
C        3.30720896       5.27913724       4.07102774       0.00000000   89006.80040376 -644699.97917358  -88271.58609448
N        2.95610552       3.98751850       4.16163971       0.00000000 3708431.94603736 -2291371.12168809 4015359.35462921
C        7.35499359       8.39518605      -9.86813947       0.00000000      78.04393400     194.76263599      54.52524185
C        8.62296661      -3.96021006       0.17664813       0.00000000    -310.46594783    1935.19755040   -3094.16641556
C        8.03154390       4.28429879       3.73062516       0.00000000    8219.20021032    1136.61291907   -1875.97695412
C        8.44298414       6.09184031      11.02212035       0.00000000       5.17323979      -1.40722557     -13.57612220
C       13.27652872       8.19955269       3.21221929       0.00000000   -2184.42235502    4588.56701153   -1121.10730818
C        2.66967575       5.34139107       3.26222630       0.00000000   81740.48981437 -728742.57448795  469108.52574146
C       -4.08011579       3.42216912       9.83252884       0.00000000       2.38752853       0.39392744       6.45290315
C       -2.48362180       4.55088302       1.24007543       0.00000000      46.94785336      -4.57621087     127.53747072
C       -0.50574345       3.24692849      -5.27000052       0.00000000     -62.08444215     -14.91847223      48.92044614
C       -2.61508384       6.87648970       4.72792030       0.00000000      -0.60995825     112.89759524      33.83632967
C      -10.34685753       8.11064871       5.67243182       0.00000000    -571.53961630    4092.45298180    1415.67955173
C        1.56114995       3.14092517      16.43305819       0.00000000  -13644.00144952  -10166.55859920  -33373.96815191
O        3.88169104      -1.32811953       2.81487583       0.00000000     753.52321618   -6324.15679477   -2027.23898934
C        2.12831762       4.42753350       3.32913628       0.00000000  824453.32529212 -109951.20697140  712269.66171463
C       -1.93857920      10.80007237       1.53546961       0.00000000    1595.91319780   -5370.96780044   -4567.92613376
C        2.98095406      10.03797863       2.54469408       0.00000000      39.20436900     361.09212835     -90.20452413
C        5.47675816       3.43382140       4.99034463       0.00000000 -235626.97204716  133837.78708820    -596.68539396
O        3.57676159       4.17434718       6.35833476       0.00000000  179031.45528663   88538.53457467 -373309.00901077
C        2.55594495       9.02270522       6.08314996       0.00000000    -649.43904699    2692.16962040     876.81169863
C       -0.54004910      11.81807037       3.94641724       0.00000000   36426.82096785  -34738.26360699  -11629.33084516
C       10.05576531       8.23182532       7.77882962       0.00000000       0.61323009       0.69939038      -5.47898109
C        6.21547345       4.24586687      -4.17223461       0.00000000      68.16205598       0.28684440     104.64189062
C        9.89770026       4.29696543       2.59509436       0.00000000    -476.45669211       4.18442340    -183.64630405
C        8.74826169       6.11461343       9.03173085       0.00000000       2.02522817      -0.38533084       6.23036105
C       -0.09915573       5.28196137       7.49250447       0.00000000   -4183.24258794    1577.42030826    3709.48920983
C       10.96150802      -2.88652230       3.85752645       0.00000000    2835.00429119    9711.14388836   -1442.74743807
C        4.74740290       4.59115752       4.65386619       0.00000000 -759154.00392305 -235250.96508962  -24828.10910933
C        6.73410595       6.99184230       2.20119071       0.00000000    2737.14573370    2328.31989668   -1835.07927891
C        5.39969466       7.34014041       3.82255991       0.00000000    5736.39125284   11033.18494000   -2912.32233626
C        2.24498273      10.92288892       3.36283196       0.00000000      44.26816620     -28.16551612      -9.88343537
Zn       3.36270477       3.36711592       4.70512194       0.00000000  190501.34626230 4702872.45388374 -7768757.42499200
O      -11.24098114       4.95724282       7.10560719       1.00000000    1746.37983534   -2065.46279714    4762.92448730
O        3.24560508       3.66006068       4.69101974       1.00000000 -6119929.60251346 -5237177.00382288  765684.05321839
