52
Lattice="12.336457 0.0 0.0 -6.168228499999997 10.683685154694365 0.0 0.0 0.0 15.0" Properties=species:S:1:pos:R:3:forces:R:3 energy=-437.13714964812044 free_energy=-437.13714964812044 stress="-0.0005724184245335639 0.0022295827050250036 -1.1937135480303106e-05 0.0022295827050250036 -0.0062150293883354605 4.087540887267948e-06 -1.1937135480303106e-05 4.087540887267948e-06 2.76580549873821e-05" pbc="T T T"
C        0.10543115      -0.04261509       3.68218029       0.00026314      -0.00725165      -0.00676394
C       -1.09887166       2.12709812       3.55991753      -0.00337462       0.00455604      -0.00607076
C       -2.33813644       4.25963746       3.66315834       0.00107396       0.00197254      -0.00742656
C       -3.58554587       6.38152745       3.73751303      -0.00038762       0.00365348      -0.00696974
C       -4.84075766       8.49956300       3.71052578      -0.00762837      -0.00249360       0.00164138
C        2.56954589      -0.06103003       3.88494082      -0.00085624       0.00298081      -0.00294688
C        1.37912379       2.03339795       3.57037084       0.00184159      -0.00720323      -0.00236358
C        0.08374971       4.30033169       3.32363260       0.00250572      -0.00353920      -0.00311377
C       -1.11493710       6.40260243       3.65634730      -0.00560839      -0.00835912      -0.00150266
C       -2.36579374       8.51393263       3.81364003      -0.00159586       0.00494393       0.00464102
C        5.04089443      -0.02760260       3.98596410      -0.00503018      -0.00588192      -0.00171591
C        3.79194767       2.03408607       4.30504170       0.00402034      -0.00440142      -0.00109318
C        1.38122698       6.42555573       3.75674501       0.00555779       0.00591083      -0.00326963
C        0.09342018       8.54502247       3.80772956       0.00259071      -0.00005624      -0.00070106
C        7.50753321       0.00312891       3.87671772       0.00543950      -0.00321772       0.00553675
C        6.28858406       2.11736086       4.14624557      -0.00452326      -0.00298966      -0.00344402
C        5.14384526       4.28938820       4.34376098      -0.00491034      -0.00105460      -0.00374351
P        3.45802139       6.14408941       3.22755354       0.00720772       0.00701165       0.00714544
C        2.55587688       8.57972083       3.68398484       0.00673311       0.00173991       0.01063411
C        9.98608545      -0.00260234       3.69640767       0.00369430      -0.00202319       0.00423254
C        8.76178530       2.12743819       3.82290497       0.00095777       0.00541283      -0.00079675
C        7.54082100       4.25005709       3.92535794       0.00446719       0.00094769      -0.00810977
C        6.27593054       6.36890130       3.74524060       0.00027334       0.00007781       0.00038247
C        5.02568951       8.50997250       3.60030012      -0.01124925      -0.00322212       0.00504032
C        0.12168188       1.39240836       3.59872289      -0.00154755      -0.00310216       0.00111523
C       -1.10199085       3.54982918       3.50393575      -0.00142052       0.00307635      -0.00447617
C       -2.34252540       5.68100308       3.68216720      -0.00597124      -0.00270698       0.00810013
C       -3.59771166       7.80082924       3.74828151      -0.00308142       0.00386756       0.00917448
C       -4.83519852       9.92172347       3.74862090       0.00134474      -0.00237699      -0.00147858
C        2.57836879       1.35977152       3.94897854       0.00443063       0.00054012      -0.00007910
S        1.52559108       3.53890243       2.75699023      -0.00456921       0.00400108      -0.00617905
C        0.14073691       5.70658909       3.54751486       0.00158172      -0.00283606      -0.00604798
C       -1.13015386       7.81892395       3.77631485      -0.00250229      -0.00344502      -0.00709793
C       -2.35887159       9.92982987       3.91425661      -0.00544125       0.00506553      -0.00398087
C        5.04484008       1.39579226       4.16173808      -0.00386803      -0.00780764      -0.00997977
S        3.79189119       3.54499957       5.14816194      -0.00064514       0.00847079       0.00009062
C        1.32964931       7.84435046       3.74608617       0.00973714       0.00609842       0.00183262
C        0.10629506       9.96374357       3.89455522       0.00031434      -0.00114572       0.01169724
C        7.51466329       1.42181765       3.95546783       0.00002254       0.00004591      -0.00000573
C        6.32320467       3.53274480       4.16638007       0.00036720      -0.00151168       0.00364456
C        5.06323451       5.61460421       3.88377308       0.00230979       0.00531227       0.00841062
C        3.76085670       7.85541823       3.53923004      -0.00309353       0.00077947       0.00552745
C        2.57283567       9.99449647       3.75538431       0.00823687      -0.00211601       0.00820837
C       10.00145558       1.42385443       3.69097947       0.00037962       0.00188230       0.01501678
C        8.77113018       3.54464984       3.80807892       0.00633064       0.00504631      -0.00157883
C        7.52111871       5.66793514       3.80138881       0.00499009       0.00227145      -0.00129443
C        6.26139595       7.79046156       3.64632622      -0.01255342      -0.00086856       0.00352621
C        5.03570897       9.94218014       3.65080295      -0.00191134      -0.00618525       0.00100173
Zn       2.37773139       5.39318034       5.33525969       0.00122937       0.00210646       0.00189764
O        1.55492405       6.02122811       6.88478441      -0.00019761      -0.00097573      -0.00587979
O        0.49939312       4.97996612       6.91117100      -0.00521781       0.00678371      -0.00574524
H        0.65948767       4.66075848       7.81942089       0.00928363      -0.00778378      -0.00464249
