51
Lattice="12.336457 0.0 0.0 -6.168228499999997 10.683685154694365 0.0 0.0 0.0 15.0" Properties=species:S:1:pos:R:3:initial_magmoms:R:1:forces:R:3 energy=-440.4966615734857 free_energy=-440.4966615734857 stress="-0.006956094746715276 -0.0010634512812445897 9.818997044383273e-06 -0.0010634512812445897 5.3829064570972724e-05 -9.78169868775016e-06 9.818997044383273e-06 -9.78169868775016e-06 2.8563863966223427e-06" pbc="T T T"
C       -0.05325038      -0.06609137       3.74450770       0.00000000       0.00804909       0.00194075       0.00757189
C       -1.31108515       2.05123325       3.56274275       0.00000000      -0.00789120      -0.00581438      -0.00428281
C       -2.54917001       4.20233397       3.74969999       0.00000000       0.00588236      -0.00066125       0.00012950
C       -3.75673327       6.34910330       3.94320620       0.00000000      -0.00522595       0.00254053      -0.00863812
C       -4.98427072       8.49428789       3.92840296       0.00000000      -0.00363067      -0.00193941      -0.00643976
C        2.41703833      -0.04767581       3.75622958       0.00000000       0.00107772       0.00205863       0.00477407
C        1.17092283       1.99057856       3.25614408       0.00000000      -0.00397062       0.00013864      -0.00695355
C       -0.18582073       4.23455721       3.18739247       0.00000000      -0.00669100       0.00315059      -0.00344819
C       -1.34053294       6.36327862       3.69709192       0.00000000      -0.00233405      -0.00819711       0.00940842
C       -2.52703485       8.49912424       3.87993869       0.00000000       0.00284106       0.00525657       0.00420226
C        4.88636420      -0.05954824       3.82053591       0.00000000       0.00645131      -0.00006298      -0.00035951
C        3.65770460       2.12003462       3.63848293       0.00000000       0.00358647      -0.00524028       0.01190228
C        1.07797688       6.34422413       3.49029024       0.00000000       0.00733354      -0.00498848       0.00461790
C       -0.05432867       8.46709724       3.78057455       0.00000000      -0.00563096      -0.00490130      -0.00436464
C        7.35882493      -0.09494415       3.84223773       0.00000000       0.00237700       0.00327624       0.00162996
C        6.12429334       2.06120831       3.86395249       0.00000000       0.00110304      -0.00262821       0.00109624
C        4.89611221       4.22321643       3.80787262       0.00000000      -0.00442250      -0.00036926      -0.00010788
O        3.80433184       6.40409886       3.61228061       0.00000000       0.01082200       0.00560297       0.00595559
C        2.44651926       8.42216103       3.76685221       0.00000000      -0.00243607      -0.00165805      -0.00480934
C        9.81356859      -0.09185115       3.80592505       0.00000000       0.00627979      -0.00304809       0.00360553
C        8.58076330       2.05301806       3.84245041       0.00000000      -0.00054644       0.00137697      -0.01053786
C        7.35112137       4.20326609       3.94324667       0.00000000       0.00459903      -0.00561070       0.00660811
C        6.14254435       6.36068855       3.97806540       0.00000000      -0.00348917       0.00492618       0.00175987
C        4.90106464       8.48002510       3.88490963       0.00000000      -0.00085139       0.00653438      -0.00478041
C       -0.07153349       1.34028816       3.51761454       0.00000000      -0.00303064       0.00196003       0.00162703
C       -1.34005279       3.48360126       3.49671252       0.00000000      -0.00176285      -0.00345492      -0.00091143
C       -2.54521956       5.63151084       3.80915282       0.00000000      -0.00414027      -0.00477946       0.00204218
C       -3.75096970       7.77973026       3.93593225       0.00000000       0.00100215       0.00670238       0.00105887
C       -4.98242915       9.92072708       3.81691627       0.00000000       0.00429368      -0.00259593       0.01043477
C        2.41534752       1.36585902       3.54402795       0.00000000      -0.00160181       0.00221345       0.01178135
P        1.11527778       3.45409432       2.26011540       0.00000000       0.00169484      -0.00094038       0.00034832
C       -0.12810573       5.66155063       3.43772622       0.00000000       0.00111260       0.00180007      -0.01137212
C       -1.30082370       7.77899400       3.80346952       0.00000000      -0.00320770      -0.00627413       0.00664053
C       -2.52108463       9.92084806       3.83604972       0.00000000       0.00450384       0.00482485       0.00103105
C        4.89154160       1.36356404       3.78529262       0.00000000       0.00568700      -0.00585134      -0.00305554
C        3.70715669       3.51204455       3.62325410       0.00000000      -0.00783993       0.00362130       0.00090304
C        1.17821835       7.70372019       3.68504967       0.00000000      -0.00428320       0.00076053      -0.01813577
C       -0.04976807       9.88973753       3.83048371       0.00000000       0.00308326      -0.00393965       0.00255271
C        7.35757820       1.33345846       3.87035621       0.00000000       0.00143678       0.00368571       0.00480804
C        6.13168483       3.48909094       3.89776727       0.00000000       0.00089094      -0.00220549       0.01002778
C        4.96134674       5.65774841       3.84691678       0.00000000      -0.00147574       0.00264756       0.00584729
C        3.69946889       7.78604028       3.77955463       0.00000000      -0.00032588       0.00210688      -0.00758477
C        2.42410443       9.85750577       3.81920046       0.00000000       0.00257730      -0.00209015       0.00408664
C        9.81103136       1.33994789       3.75345593       0.00000000      -0.00727353      -0.00405144      -0.00765423
C        8.57771138       3.48387770       3.86822512       0.00000000       0.00907860      -0.00157713       0.00520731
C        7.36220162       5.62978300       3.98148288       0.00000000      -0.00516853      -0.00269405      -0.01033277
C        6.13554036       7.78353410       3.95001243       0.00000000      -0.00564551       0.00255828       0.00260905
C        4.88588937       9.90215978       3.82659958       0.00000000       0.00884600       0.00150974      -0.00612078
Zn       2.39921617       4.93251709       3.42369608       0.00000000      -0.00245277       0.00704833      -0.00960261
O        4.33108164       6.81501646       6.41522436       1.00000000       0.00463321      -0.00345995      -0.00945588
O        3.20912431       6.31417937       6.32855480       1.00000000      -0.01391426       0.01079195       0.00468037
