53
Lattice="12.336457 0.0 0.0 -6.168228499999997 10.683685154694365 0.0 0.0 0.0 15.0" Properties=species:S:1:pos:R:3:forces:R:3 energy=-461.2502278864673 free_energy=-461.2502278864673 stress="-0.002110337122310018 -0.0009099444869006399 7.099321352933915e-06 -0.0009099444869006399 -0.0011177874588515508 -8.029936319385913e-06 7.099321352933915e-06 -8.029936319385913e-06 -1.5405362243174458e-05" pbc="T T T"
C        0.03602272       0.01910735       3.57242576       0.00456167      -0.00240709      -0.00197079
C       -1.20220451       2.15193444       3.68211474       0.00315705       0.00178351       0.00854294
C       -2.43605719       4.28941412       3.68221438      -0.00130705      -0.00519122       0.00377974
C       -3.66401766       6.42809204       3.57219710      -0.00248052      -0.00245352      -0.00258781
C       -4.89383667       8.56800160       3.51783043       0.00656449      -0.00443861      -0.00266173
C        2.50541108       0.01555240       3.55736110      -0.00082031       0.00159628       0.01410276
C        1.26701677       2.13462164       3.73782796      -0.00295738       0.00648976      -0.00395780
C        0.02631544       4.28536999       3.93193662      -0.00203180      -0.00252045      -0.00084702
C       -1.21600313       6.43542091       3.73954501       0.00632082       0.00005908       0.00058038
C       -2.43164899       8.56721001       3.56204437      -0.00684761       0.00099313       0.00174139
C        4.97154787       0.01754333       3.63411899       0.00457702       0.00718862      -0.00249648
C        3.73219014       2.14787850       3.76291796      -0.00050190       0.00021258       0.00361627
C        2.48521532       4.14724303       4.31186461      -0.00129258      -0.00287123      -0.00879870
C        1.13747083       6.48338798       4.31121397       0.00407702      -0.00849834      -0.00287594
C        0.02849435       8.56336577       3.76656473      -0.00155460       0.00259637       0.00880036
C        7.43883348       0.00914747       3.72738173      -0.00242706       0.00343900      -0.00276094
C        6.19715623       2.15876506       3.72270419       0.00077827       0.00530313      -0.00075503
C        4.96122553       4.31573869       3.93173166       0.00414992      -0.00117712      -0.00046300
N        3.91626457       6.53117818       4.28605863       0.00045458      -0.00311152       0.00512142
C        2.52083924       8.54487801       3.93645013      -0.00287727      -0.00386661       0.00393521
C        9.90333455       0.00945575       3.68684665      -0.00220883       0.00672306       0.00299323
C        8.66650814       2.15212843       3.68123472      -0.00870487      -0.01075949       0.00504021
C        7.42883868       4.29371051       3.67951001       0.00757227      -0.00016820       0.00780343
C        6.21868286       6.44115518       3.67493882      -0.00409436       0.00313972       0.00035317
C        4.98933640       8.57087989       3.67806308       0.00333387      -0.00141468      -0.00115765
C        0.03363321       1.43956035       3.64637604       0.00205033      -0.00105176       0.00068608
C       -1.19594608       3.58032751       3.74935534      -0.00237373      -0.00146422       0.01145389
C       -2.43509203       5.71567997       3.64784057       0.00224053       0.00068878      -0.00480028
C       -3.66081656       7.85239224       3.53005888      -0.00204966      -0.00521502      -0.00796836
C       -4.89717678       9.99337464       3.52777412       0.00358056      -0.00508147      -0.00480810
C        2.50292384       1.43760424       3.67182432      -0.00419058       0.00534072      -0.00143327
C        1.27297103       3.55616908       3.98492798      -0.00323085       0.00399981      -0.01088771
C        0.01878025       5.72971193       3.98414965       0.00446016      -0.00760312       0.00225540
C       -1.20123164       7.85385785       3.67637584      -0.00208603       0.00397042      -0.00820365
C       -2.42843276       9.99033925       3.56613662       0.00148690       0.00319141       0.00132849
C        4.96681900       1.44365476       3.69365523       0.00271759       0.00477303      -0.00113148
C        3.70914496       3.57842818       3.99820661       0.00157507      -0.00079146      -0.00005217
C        1.25638526       7.82865930       4.00131345      -0.00287195      -0.00664619       0.00011696
C        0.03618047       9.98442130       3.69675662       0.00274485       0.00454379      -0.00152841
C        7.43202589       1.43861505       3.70033914      -0.01026447      -0.00269932      -0.00963276
C        6.18273860       3.59559974       3.76599670       0.00787811       0.00371842       0.00423805
C        4.99256970       5.76606756       3.95412339      -0.00048607      -0.00183111       0.00066264
C        3.79177998       7.84614924       3.95593769       0.00287572      -0.00128813       0.01059163
C        2.50799496       9.96286892       3.77421765      -0.00360372       0.00144331      -0.00817524
C        9.90136480       1.43730779       3.66910107      -0.00012004       0.00410873      -0.00532481
C        8.66489499       3.57901063       3.66606965       0.00247110      -0.01222636      -0.00431146
C        7.43811961       5.71573491       3.62031226      -0.00399117       0.00336062       0.00423494
C        6.21312090       7.85781415       3.59860070       0.00558127       0.00227869      -0.00295528
C        4.97081078       9.98973953       3.62592955       0.00029138       0.00076724      -0.00561541
Zn       2.50206380       5.71062801       5.47984888      -0.01253805       0.01024983      -0.00580583
O        2.84720013       5.89806680       7.30944712       0.00447247       0.00652377       0.01691256
O        1.58854221       5.42237315       7.92648085      -0.00204029      -0.00714846      -0.00703316
H        1.97001604       4.71787591       8.47994725      -0.00002025       0.00344188       0.00210911
