51
Lattice="12.336457 0.0 0.0 -6.168228499999997 10.683685154694365 0.0 0.0 0.0 15.0" Properties=species:S:1:pos:R:3:initial_magmoms:R:1:forces:R:3 energy=-245056.489079121 free_energy=-245056.489079121 stress="236.71832707354352 5.065304967770309 -48.93468246662765 5.065304967770309 91.52414091890061 19.102065885412756 -48.93468246662765 19.102065885412756 104.87956686221086" pbc="T T T"
C        8.47701732       1.66346064      -0.78248421       0.00000000       0.55296680       0.67138987      -0.37942709
C       -1.50587966      -2.43085801      -2.53971474       0.00000000       1.94926673       0.70003789      -1.91819181
C       -3.56257568       2.50564784       0.17680870       0.00000000      -4.77840084       3.65019856       3.21943403
C        0.97929816       7.17224377       3.76838971       0.00000000   -1603.70910283    1570.78530817    -506.99656566
C       -4.68307198      12.79010610      12.50084344       0.00000000      -3.35265074      -3.00930774      -2.32932736
C        5.19982958       4.47936564       1.98728354       0.00000000    -133.75383835     174.94863246     546.18963680
C        0.74697922       4.19177935       7.87390030       0.00000000     171.75467705     206.54077770    -143.37188428
C       -8.83108370       6.61031665       2.81663550       0.00000000    -861.26270304   -5730.26246918   35070.29045123
C        2.01042289       6.75254914       1.87171471       0.00000000     953.16272977      59.50962035    1720.87298722
C       -6.92443318      12.39752030       0.41650406       0.00000000      -2.43381722     -14.40676934       6.21603503
C        8.67015569       5.72135354       4.80562409       0.00000000    -425.89378524      70.85885823      46.42780134
C       -0.90052653       2.09709779      -2.25578702       0.00000000       5.28936259     -50.11789815      68.91968690
C        3.22040834       6.42954161       4.85218147       0.00000000  662986.88137189 -125048.46207261  -56253.44862944
C        0.94837780       7.15622490       8.53189732       0.00000000     207.30511384     -86.41770939    -330.40212358
C        7.96006122      -3.05297007       2.81284387       0.00000000    1228.45333770   -1079.13822902    1715.31124271
C        1.15721734      -7.04084555       0.88082073       0.00000000     -30.47500343       2.08786448       5.30505969
C        8.37440061       5.41571369      -5.40156166       0.00000000       1.62548916       5.19995252      -7.30786578
C        4.13954480       6.68518163       4.63396647       0.00000000 -496151.06775146   74431.35725824  257288.45570074
C        5.73197417      10.38911427      10.18430464       0.00000000       0.86178199       2.28285626       2.89203803
C        4.60393087      -0.28523236       4.61933964       0.00000000      17.25635547      -4.72004665       8.24307949
C        6.05035291      -1.75758463       5.27839292       0.00000000     624.32739799    -365.30369669     -76.20762240
C        9.46071022       2.78112968      -3.17566234       0.00000000       4.62114408      -0.59407332       0.44957956
C        2.65705974      21.85070109       7.15919564       0.00000000      -1.27000678      -6.83134190      -4.44740365
C        5.19372688       4.52182084      -2.13346113       0.00000000       0.70148854      -0.46492300       0.04617357
C       -0.88570118       3.76395724       5.99073752       0.00000000     -77.74106311     -77.05867397      37.97439579
C        2.19017578      -1.25753601       6.03159083       0.00000000     -79.77159086     -50.62057830      -4.21282480
C       -7.69897193      10.31231798      17.38825322       0.00000000     -76.85307476    -189.93696277     154.40026663
C       -1.66485364       9.16489066       3.57529311       0.00000000     -22.95690809       2.54621613       9.92365507
C      -11.11139939      11.17191456       4.76119053       0.00000000      70.72834457    -237.87181761      24.71064096
C        3.02657444      -5.27090765       8.36611296       0.00000000       1.85245442       2.17672916       0.59533950
C        0.39052626      -3.14391886      16.57077749       0.00000000     -74.99053096     -23.24253660     194.09740761
C        1.75105743       5.85817941      -7.42246603       0.00000000    -725.69259826    -246.06049558    -265.83122521
C       -0.93073141       2.60711725      11.97976264       0.00000000      -7.11024381      47.66473751     -72.64674590
C      -12.66066696       9.02608765       8.53852078       0.00000000      35.79280550     -23.19072976     -24.64315741
C        5.77315463     -10.79943656      -0.64053484       0.00000000      -1.25669284       5.22066502       6.48240246
O       11.55781618      11.55624020      -4.54174644       0.00000000      -1.41748498      -4.31296337      -0.60763164
C        1.91844018       7.72741329       1.41420017       0.00000000     443.29010273    -453.02632441     647.64872774
C       -4.43187556       7.29013200      -6.73114602       0.00000000     -93.99860428     -27.62814132     -82.06480107
C        7.31060791      -0.71724509       4.32480302       0.00000000     435.71752352    -523.84452492     131.43428474
C        2.78563743       3.80510168       2.54466970       0.00000000     168.29345247     712.17631537     731.47008699
C       11.21206207       6.22119857       6.57985531       0.00000000     149.00646598      56.18569136      -6.35710994
C       10.95265607       9.62827065      10.21522877       0.00000000       4.42706737       2.10618475      -3.51054080
C        0.37391566       8.29936955       1.43436005       0.00000000      28.78547105      89.58261817      10.59002258
C        3.72427877      -4.03377377       6.13316289       0.00000000       7.67343421      -0.73433719      -0.15834913
C       10.61876549       3.79564794       8.55741243       0.00000000      10.90747624       2.18746272      -2.92701086
C        9.76640356       8.04914677       1.78686111       0.00000000      -3.61217829       1.07261210       3.08503783
C        6.28999624      11.75127587      -3.23647017       0.00000000      -0.05055919       3.70030857       2.04879106
C        5.13776245      12.18586151       6.21254857       0.00000000     -11.14569192     -32.61676540      -7.23746694
Zn       3.63058631       6.47726274       4.88836972       0.00000000 -324625.74732588  363511.05049747  -31728.36760035
O        3.66251237       6.61119520       5.46446594       1.00000000 -132628.53683300  138064.90578826     410.75512055
O        3.86756474       6.95364666       5.14518737       1.00000000  290087.66135853 -444749.29519312 -209322.68158074
