52
Lattice="12.336457 0.0 0.0 -6.168228499999997 10.683685154694365 0.0 0.0 0.0 15.0" Properties=species:S:1:pos:R:3:forces:R:3 energy=-446.70415626307783 free_energy=-446.70415626307783 stress="-0.0028788559735616484 0.0005482158184313631 -7.150832698470807e-06 0.0005482158184313631 0.007101326965320413 -2.3067248626747883e-05 -7.150832698470807e-06 -2.3067248626747883e-05 -3.0448332009164932e-05" pbc="T T T"
C        0.11532808      -0.03198099       3.76943275      -0.00360401      -0.00600981       0.00140584
C       -1.12907660       2.09013721       3.64792151      -0.00563478       0.00303080      -0.00049020
C       -2.35821919       4.23197587       3.58380487      -0.00020303       0.00412413      -0.00195951
C       -3.58579572       6.37696944       3.66103534       0.00423118      -0.00562530      -0.00842462
C       -4.81085961       8.52981228       3.75887342      -0.00169858       0.00315589       0.00004321
C        2.57728711       0.02696768       3.79026787      -0.00154031      -0.00340562       0.00342598
C        1.31431785       2.12831724       3.74460022       0.00041991       0.00104120      -0.00785180
C        0.07123366       4.23541369       3.50236114       0.00119252      -0.00298813      -0.00831422
C       -1.13801487       6.36888996       3.53814779       0.00845065      -0.00780462      -0.00512105
C       -2.35618088       8.52566906       3.68372464       0.00276785      -0.00378134      -0.00005683
C        5.04438353      -0.02703325       3.77528469      -0.00520850       0.00520882       0.00676038
C        3.84266725       2.16160026       3.96018904      -0.00214594      -0.00202005       0.00315446
O        1.24089671       6.38416611       3.61674977       0.00163081       0.00132073       0.00431333
C        0.10106229       8.48821060       3.69596916       0.00199508      -0.00197187       0.00139980
C        7.51950140      -0.07958762       3.76286381      -0.00070466      -0.00143333      -0.00574352
C        6.29958811       2.07978271       3.80226283       0.00443857      -0.00217341       0.00429518
C        5.09049740       4.18655961       4.00375369      -0.00169776      -0.00001540       0.00650305
C        3.91601220       6.35038705       4.17963402      -0.01057293       0.00443091       0.01239044
C        2.55325784       8.42666207       3.84653390       0.00015430       0.00982531       0.00275522
C        9.97550522      -0.07748498       3.77195847       0.00187784       0.00150816      -0.00916672
C        8.75297269       2.07484112       3.69495274       0.00007854       0.00566789       0.00384807
C        7.53215563       4.22519647       3.72842169       0.00136616      -0.00788730       0.01050479
C        6.31708164       6.37411843       3.83547806       0.00537711       0.00227463       0.00940968
C        5.05233692       8.48599059       3.86445516      -0.01043955      -0.00370731      -0.00039474
C        0.11229612       1.40184190       3.71860441      -0.00464625      -0.00107655       0.00257181
C       -1.12783908       3.51947112       3.55133076      -0.00289587       0.00267002      -0.00109182
C       -2.36300087       5.65338982       3.58008998       0.00672178      -0.00101890      -0.00352092
C       -3.58843577       7.80968783       3.69555246      -0.00082078      -0.00174942      -0.00471486
C       -4.81420216       9.96540020       3.77303935      -0.00146960       0.00075370       0.00050996
C        2.56770050       1.47191204       3.84713197      -0.00086000      -0.00359620      -0.00724645
O        1.25706891       3.50856049       3.61243557       0.00762120       0.00657258      -0.01427676
C        0.06099097       5.65233374       3.49443389       0.00659952      -0.00543192      -0.00590984
C       -1.13836243       7.79942742       3.62523841       0.00497852      -0.00974415       0.00934971
C       -2.36412656       9.96534831       3.75502263      -0.00212953      -0.00058604       0.00204367
C        5.05234143       1.40024934       3.84262949       0.00014311       0.00501858      -0.00390963
N        3.92866843       3.50627355       4.17947733      -0.00558773      -0.00078723       0.00111739
C        1.30574673       7.76329659       3.73031482       0.00378607       0.00424573      -0.00572687
C        0.11158677       9.91732078       3.74932193      -0.00492422       0.00183638      -0.00870262
C        7.52541340       1.35560719       3.74766773       0.00424972      -0.00055463       0.00371206
C        6.31587671       3.49761054       3.82634693      -0.00166778      -0.00485386      -0.00614014
C        5.08479600       5.65401740       4.00844040      -0.00424885       0.00685911       0.01300966
C        3.82081329       7.71713911       3.96737690      -0.01000013       0.00593367       0.00908830
C        2.57334945       9.86460002       3.79172206       0.00280574       0.00600747      -0.00262769
C        9.98727492       1.36064863       3.69936021      -0.00368614       0.00164431      -0.00758564
C        8.75465821       3.50684618       3.65877030       0.00209846       0.00325683      -0.00034790
C        7.53154020       5.65600452       3.73221844       0.00516704      -0.00805301      -0.00044876
C        6.29753860       7.80152405       3.81736410      -0.00313615       0.00430978      -0.00303658
C        5.04849041       9.91257777       3.79929206      -0.00312623      -0.00751778      -0.00609769
Zn       2.64121193       4.98188228       4.72500475       0.00428391      -0.00785010       0.00533273
O        1.19640424       4.78244778       5.92837287       0.00149403      -0.00190038      -0.00023962
O        0.88382085       6.13092223       6.37121856       0.00592073      -0.00520043       0.00787034
H        0.52951421       5.91180701       7.25687660       0.00279893       0.01804746       0.00433195
