52
Lattice="12.336457 0.0 0.0 -6.168228499999997 10.683685154694365 0.0 0.0 0.0 15.0" Properties=species:S:1:pos:R:3:forces:R:3 energy=-438.1050300707647 free_energy=-438.1050300707647 stress="-0.002523011087777758 0.0013888487971633007 1.2457817390944529e-05 0.0013888487971633007 -0.0048782608258672215 4.230419346631805e-06 1.2457817390944529e-05 4.230419346631805e-06 1.3711288731221154e-05" pbc="T T T"
C        0.01818975      -0.10543302       3.81360539      -0.00059032       0.00260411       0.00368575
C       -1.19600433       2.06001238       3.78720044       0.00165911      -0.00331844      -0.00494761
C       -2.42223298       4.19645675       3.85561008      -0.00364452       0.00296552       0.00409629
C       -3.66697936       6.32420115       3.78852225       0.00140064       0.00664745      -0.00094189
C       -4.92657145       8.44012683       3.75112976      -0.00630702       0.00440141       0.00200552
C        2.48079813      -0.13701520       3.99699404      -0.00463169       0.00033648      -0.00004829
C        1.27998385       1.97145344       3.68095025       0.00554213       0.00425627       0.00241899
C        0.03264507       4.25985004       3.75825517      -0.00136075       0.00375327      -0.00225132
C       -1.21966958       6.35060684       3.97614489       0.00689683      -0.00756421       0.00186253
C       -2.45204244       8.45333951       3.99018939       0.00514107      -0.00136083       0.00009569
C        4.95788465      -0.09048744       4.08668293       0.00235588       0.00401294      -0.00288886
C        3.70470000       1.99158747       4.12574594       0.00585253       0.00066879      -0.00614987
N        1.18073235       6.38687905       4.22269602      -0.00381270       0.00481689      -0.00693918
C        0.01744230       8.46562311       4.03223824      -0.00110625      -0.00094848       0.00128068
C        7.42862646      -0.07969900       4.01424846       0.00313934       0.00493916       0.01046472
C        6.19767473       2.06041164       3.95874501      -0.00254709      -0.00188501       0.00514495
C        5.02403238       4.21869516       3.46109474       0.00576971      -0.00155122       0.01174284
S        3.66012352       6.36368152       2.45798224      -0.00803833       0.00444886       0.00786762
C        2.48160690       8.45473463       3.80732610      -0.00104692      -0.00790788      -0.00907313
C        9.89317379      -0.08468545       3.85984255      -0.00073985      -0.00333153       0.00318189
C        8.67136264       2.05594278       3.90079284      -0.00562453       0.00378713      -0.00652192
C        7.45194505       4.18630961       3.71559671      -0.00544397      -0.00535676       0.00432061
C        6.24077731       6.33460434       3.37160043       0.00371291      -0.00328920       0.00197824
C        4.94921467       8.46021307       3.56512269       0.00622429       0.00358900       0.00183018
C        0.02497368       1.32475751       3.76268556       0.00630836      -0.00045430       0.00038905
C       -1.17351148       3.49874124       3.80860643      -0.00060729       0.00153965      -0.00213040
C       -2.43367550       5.61855471       3.88514788       0.00218384       0.00243098      -0.00164837
C       -3.68219568       7.74018592       3.84430683      -0.00175464       0.00886633      -0.00576908
C       -4.92440704       9.85590622       3.86170033      -0.00731421       0.00128189       0.00673751
C        2.48264272       1.27274703       3.97336783       0.00498262       0.00098207      -0.00351152
P        1.48772296       3.57467976       2.97299332      -0.00639389       0.00274393      -0.00691921
C        0.03023610       5.67835300       3.99293861       0.00513577       0.00028847       0.00116917
C       -1.21738603       7.75713419       4.02198244       0.00549465      -0.00885623      -0.00135860
C       -2.44391534       9.86830959       4.05239405       0.00067127       0.00157752      -0.01563854
C        4.96278145       1.33973895       4.08198178       0.00327953       0.00162942       0.00004456
P        3.49011996       3.72774332       4.19056421       0.00147256      -0.00896443       0.01449468
C        1.23756352       7.73302754       4.00833277      -0.00402277      -0.00122794      -0.00638436
C        0.02532801       9.88980063       4.05368296       0.00239011       0.00275010      -0.00726205
C        7.43040189       1.34795583       3.97342041      -0.00282592       0.00486351       0.00070217
C        6.21663705       3.47203675       3.72109019      -0.00083752      -0.00774389       0.00331163
C        5.08550087       5.58684847       3.09265474       0.00318109      -0.00344557       0.00317972
C        3.69128445       7.82651107       3.39520271       0.00692137       0.00049507       0.00061550
C        2.48894471       9.88296460       3.92080622      -0.00065716      -0.00749784      -0.00206647
C        9.90692869       1.34774576       3.86829731      -0.00518558      -0.00062517      -0.01147701
C        8.68231266       3.47986659       3.83689492      -0.00594827       0.00220464      -0.00282984
C        7.45576178       5.60973510       3.61850409       0.00191870      -0.00357348       0.00647448
C        6.18947713       7.74694910       3.52022152       0.00101996      -0.00110384       0.00117831
C        4.95154339       9.87891183       3.77098207       0.00239790       0.00274117       0.00058182
Zn       2.63507427       5.41231815       5.32818294      -0.00112864      -0.00000651       0.01444269
O        2.99441682       6.86255688       6.44233002      -0.01049623      -0.01224616       0.00102287
O        1.70869802       6.38670712       7.06105948      -0.00843317      -0.00096035      -0.00928127
H        2.06801558       6.21472331       7.95050903       0.00544708       0.00759722      -0.00028189
