51
Lattice="12.336457 0.0 0.0 -6.168228499999997 10.683685154694365 0.0 0.0 0.0 15.0" Properties=species:S:1:pos:R:3:initial_magmoms:R:1:forces:R:3 energy=-433.09515416091534 free_energy=-433.09515416091534 stress="-0.0072316119352877515 -0.003042361620443475 -8.782840630068385e-06 -0.003042361620443475 -0.005938319048057443 -1.1658747899674813e-05 -8.782840630068385e-06 -1.1658747899674813e-05 1.829822367930572e-05" pbc="T T T"
C       -0.02537649      -0.04286229       3.90964107       0.00000000      -0.00100174       0.00499624       0.00381695
C       -1.29376756       2.07972080       4.09922738       0.00000000      -0.00775067      -0.00206710      -0.00125446
C       -2.52618444       4.22949872       3.89401972       0.00000000       0.00463196      -0.00162548       0.00083688
C       -3.71394392       6.37815920       3.69768997       0.00000000      -0.00255897       0.00081093      -0.00377133
C       -4.93748800       8.52160177       3.72085570       0.00000000      -0.00483404       0.00243707       0.01140997
C        2.45254722      -0.05775934       3.87189974       0.00000000      -0.00896072      -0.00393130       0.00853967
C        1.20726170       2.02317335       4.30966567       0.00000000       0.00593783       0.00816998      -0.01161646
C       -0.13565241       4.25510370       4.30002768       0.00000000       0.00457580       0.00631366      -0.00309651
C       -1.28050461       6.36925522       3.74834627       0.00000000       0.01169518      -0.00553806      -0.00620145
C       -2.47576514       8.50360119       3.69192699       0.00000000       0.00461156       0.00211677       0.00499120
C        4.91356189      -0.04319664       3.66275241       0.00000000      -0.00618130      -0.00188601       0.00691629
C        3.63610517       2.03483486       3.59941671       0.00000000       0.01383273      -0.00497271       0.00885149
P        1.23359497       6.15540992       2.79839820       0.00000000      -0.01162277      -0.00766579       0.01164731
C       -0.01596178       8.50118826       3.53435503       0.00000000      -0.00754828       0.00141280       0.00216588
C        7.37423413      -0.03771130       3.62163926       0.00000000       0.00064789       0.00760830       0.00596974
C        6.12315408       2.11017410       3.52676784       0.00000000       0.00157492       0.00014404       0.01242446
C        4.97728113       4.31375727       3.30592427       0.00000000       0.00004317       0.00206592      -0.00824234
N        3.80314747       6.43653816       3.61462334       0.00000000       0.00527020      -0.00479580      -0.00281022
C        2.46216641       8.50650493       3.51532759       0.00000000       0.00062322      -0.00381598       0.00333489
C        9.83778708      -0.04047473       3.77055690       0.00000000       0.01194915       0.00606444      -0.00501989
C        8.59246616       2.09709932       3.75681355       0.00000000      -0.00307480       0.00019641       0.00476765
C        7.37942150       4.24699981       3.59844541       0.00000000      -0.00007024      -0.00791220      -0.00095642
C        6.19793790       6.41867590       3.51825314       0.00000000      -0.01093711       0.00507255      -0.01196326
C        4.94090504       8.52937370       3.62238175       0.00000000       0.00087756       0.00266498      -0.00846061
C       -0.04178001       1.36808911       4.12901202       0.00000000      -0.00184260       0.00280814      -0.00082272
C       -1.32316605       3.50471127       4.13170357       0.00000000       0.00409559       0.00125078      -0.00243628
C       -2.50669284       5.65438451       3.79788823       0.00000000       0.00628164      -0.00253951      -0.00649994
C       -3.70891659       7.80062620       3.70303819       0.00000000       0.00283719       0.00668082       0.01166439
C       -4.95364774       9.93261571       3.85039969       0.00000000      -0.00671538       0.00082876      -0.00757034
C        2.43780518       1.35927182       3.97632774       0.00000000       0.00636181      -0.00578326       0.00172308
P        1.18062983       3.52996229       5.24609021       0.00000000      -0.00013504       0.00260303       0.00438867
C       -0.08481620       5.61064365       3.83701032       0.00000000       0.01652238       0.00005880      -0.00425248
C       -1.25120976       7.78809998       3.62204716       0.00000000       0.00219626      -0.00545182       0.00538238
C       -2.48220930       9.92693040       3.73623061       0.00000000      -0.00881017       0.00154627      -0.00920514
C        4.89616769       1.39180653       3.59064999       0.00000000       0.00632368      -0.00770395       0.00339884
S        3.47242921       3.58471823       2.86238087       0.00000000      -0.01072043       0.00510189      -0.00868267
C        1.22713477       7.82596346       3.37916113       0.00000000      -0.00686894       0.00350900       0.00077545
C       -0.02024090       9.93122222       3.60331607       0.00000000      -0.00631964       0.00194203      -0.00296580
C        7.35628010       1.39491714       3.63078230       0.00000000      -0.00047502       0.00582338       0.00405260
C        6.13877312       3.54123895       3.46285224       0.00000000      -0.00241903      -0.00109651      -0.00523480
C        4.97264924       5.73620299       3.44058307       0.00000000      -0.00317598      -0.00154920      -0.00888836
C        3.72682383       7.79597272       3.55500531       0.00000000       0.00538300      -0.01009648       0.00315429
C        2.44688020       9.93133380       3.63762117       0.00000000       0.00903093       0.00410874       0.00347016
C        9.82515081       1.37983665       3.88383909       0.00000000      -0.00660169       0.00452690      -0.00549843
C        8.59234219       3.52158886       3.75317253       0.00000000       0.00324902      -0.00528951       0.00664874
C        7.39837883       5.67081485       3.59889279       0.00000000      -0.01344464      -0.00463386       0.00442729
C        6.17419536       7.82898946       3.61864189       0.00000000      -0.00470399       0.00323429      -0.00290168
C        4.91416338       9.94150094       3.76683019       0.00000000       0.00627584       0.00216026      -0.00132792
Zn       2.58209754       5.17863756       4.53228913       0.00000000       0.00844158      -0.01244085       0.00350610
O        2.86611667       5.55758230       7.44536724       1.00000000      -0.00347396       0.00401462      -0.01065150
O        3.30565310       6.04385849       6.34171645       1.00000000      -0.00302295       0.00052357       0.00206663
