52
Lattice="12.336457 0.0 0.0 -6.168228499999997 10.683685154694365 0.0 0.0 0.0 15.0" Properties=species:S:1:pos:R:3:initial_magmoms:R:1:forces:R:3 energy=-153113.8112282645 free_energy=-153113.8112282645 stress="319.8840032996248 -119.34160663782713 10.183579351766008 -119.34160663782713 92.15180494731948 10.921630053442549 10.183579351766008 10.921630053442549 181.04573467358986" pbc="T T T"
C        0.47758536      -0.03869761       6.36243845       0.00000000      12.52840197       7.01494336     -23.24861125
C       -1.87475059       1.57285736       1.44413460       0.00000000      -1.28438218     -24.18877586      15.87967639
C       -3.67270016      -2.67225862      -4.30899850       0.00000000    -127.72445089      49.31738652    -410.30200609
C       -8.32015140       9.75795256       3.48929366       0.00000000   -1322.47894509    1170.46679497    -687.40480284
C       -5.19129387       8.16193723       2.46046889       0.00000000  -13234.84106262   16297.09825928   -1685.78894562
C        1.16373572      -2.17966055       3.21309886       0.00000000  -13157.89256107    8267.19041230   -7321.54932637
C       -0.50559228      -2.25373895       2.95344627       0.00000000   11786.67669281    2125.26242239   -1345.61497488
C        3.54876240      -4.79344819      12.94854418       0.00000000       2.71913688      -1.09043861      -1.31397196
C        3.77320586       0.59534080       1.63860863       0.00000000     -44.83289874       1.00083308     -30.46473930
C       -0.42111404      10.86663787       1.73136888       0.00000000     193.17528462    -130.99192090    -114.10853748
C        2.74812251      -1.58520012       3.65976128       0.00000000    -361.60635088    -193.68090306     -33.48522961
C        2.99028188      -3.25229275       1.62567907       0.00000000     339.38830462    -844.75465044    -179.28973149
N        7.34263190       1.12254048       8.33724146       0.00000000      90.23547949    -742.38611260    -236.03137810
N        1.00512298       8.14950305       6.94880380       0.00000000  202123.50415356  -82513.24619249 -647605.06676966
C       -0.19756481       4.47950203       6.45909830       0.00000000     136.04468834     276.30056142     -20.37706264
C        4.98543194      -7.53231670       3.88251549       0.00000000      -2.69024091       8.64180636       6.60033763
C        5.16271804       0.96424970       3.22962481       0.00000000      47.87288918     -10.33985987     115.42437880
C        4.95863190       9.95653481       3.90988288       0.00000000    1024.33062934    -867.51506404    -102.11594840
O        6.12438449       7.42903782      -1.24256229       0.00000000      -4.38793140      27.54060920       6.38975205
C        2.47433707       9.78149139       4.74492904       0.00000000    1767.62807980    1464.70107948   -2481.29008759
C       23.16017363       8.81186560      -2.51508634       0.00000000      -1.92725568       0.92633556      -5.99928686
C        8.11804013       4.59218434       5.38070966       0.00000000      -2.02401541       5.19236359      -0.63734521
C        6.85279455       5.38327741       2.93682175       0.00000000     -22.44398495     -35.49879525      44.54072168
C       -1.04222033       7.51187600       3.37307272       0.00000000     235.97639318       3.71966795     232.77165747
C       10.62631840       9.11952265      -5.01329645       0.00000000     124.72648115     -15.41783616     -34.90702875
C        0.74186884       0.11203702       2.79372952       0.00000000    -307.74204904   -1475.51621296     -95.41396383
C        5.18137524       0.60553518       1.99840927       0.00000000    -116.87731071      55.28074332       8.52133271
C       -4.19720281       6.71430599       1.22082356       0.00000000    -557.07221369     458.02007139     686.01263773
C       -3.37761347       8.22850074       1.59800556       0.00000000     576.31821075     661.77310903     -98.02149468
C       -5.94181222       9.11155474       2.70455094       0.00000000   15141.14017932  -14880.14071151     846.28740816
C        5.58886013       6.53953633       3.76392271       0.00000000    -459.91162657    -435.47556101     403.89537444
C        2.82292404       5.26013107       7.97719713       0.00000000      95.29613072     335.14286508     -56.11675255
C        3.34962539       6.95445558       8.47920292       0.00000000    1821.81406899   -1207.87772905    1664.30365143
C       -7.20046157       7.62081806       4.98317069       0.00000000    -441.40091380      34.91522139    -101.84642160
C       -5.36830740       8.58727788       2.58693010       0.00000000    -660.47413227   -8957.51010477   10026.21262872
C        4.65689644       1.36552679       2.39813191       0.00000000     -79.61106820     117.69278857     -31.13236918
C        4.17872200       9.22693888       3.75259090       0.00000000     653.10954481   -1691.39208772     561.52291819
C        0.83056863       8.54461125       6.71507613       0.00000000  505882.37009631 -327179.78646764  239903.95880162
C       -2.33420434       8.72201489       0.45679753       0.00000000      77.95390552       9.54030036    -113.16173732
C        9.59919477      -0.82480680       6.26412569       0.00000000    7028.36730577    9539.77296663   -2819.78078632
C        1.19961765       7.72126826       3.37786227       0.00000000      77.38019899      10.81625258    1290.33275321
C        6.44159899       8.82673478      -0.05136932       0.00000000      28.87589861     -13.17439648    -273.49266079
C        5.09050080      14.01018967      -2.55312248       0.00000000      -0.27938564       0.14095693       0.00242629
C       -7.88357484      10.92314397      11.85158150       0.00000000       0.42037325      -2.00920473      -1.07799617
C        5.19693819       2.69976678       2.80672710       0.00000000       2.88558984       3.69263154      -3.65036569
C        6.64368021       3.66389747       3.32386382       0.00000000       1.50308198      52.28290999     -13.01857644
C        7.62602063       3.10018370       0.32988990       0.00000000      -0.12998760      -3.74406650      -1.58843624
C       10.94037604       5.45722654      15.25814908       0.00000000       1.04579051       1.01803058      -1.09648232
C        2.36585521       8.27793904       6.62558323       0.00000000 -167415.16672503  -24799.89013921   72479.14874984
Zn       1.18982853       7.95815148       6.50986758       0.00000000 -175757.66128920  243724.97089287  583172.06402248
O        4.88896420       8.97596318      10.99680408       1.00000000     -77.94266836     -15.23859925    -105.07884751
O        1.73247347       8.15435605       7.02280673       1.00000000 -375114.88354033  181331.43261438 -245430.39655410
