53
Lattice="12.336457 0.0 0.0 -6.168228499999997 10.683685154694365 0.0 0.0 0.0 15.0" Properties=species:S:1:pos:R:3:forces:R:3 energy=-458.84682924311704 free_energy=-458.84682924311704 stress="0.0012119067284185945 2.687886362443161e-05 -1.1781401986954177e-05 2.687886362443161e-05 0.0011824933361034812 -2.2476816429794524e-05 -1.1781401986954177e-05 -2.2476816429794524e-05 4.382965213624989e-05" pbc="T T T"
C       -0.00620540      -0.01246981       3.64903753      -0.00183858       0.00332514       0.00424047
C       -1.23054843       2.12938208       3.77527095      -0.00585038      -0.00476933       0.00038047
C       -2.46065649       4.25875928       3.77722739       0.00151413       0.00057635      -0.00493302
C       -3.70339677       6.39037039       3.65192862       0.00042323       0.00437544      -0.00208835
C       -4.94672066       8.52640600       3.58930468       0.00305648       0.00396274       0.00460287
C        2.46224610      -0.01396520       3.60137252      -0.00302116      -0.01089690       0.00292732
C        1.23402859       2.11737785       3.78546207       0.00753269      -0.00155659       0.00239157
C        0.02691065       4.27467793       4.02076814      -0.00120861       0.00511190       0.00085372
C       -1.23989769       6.40028935       3.79523875      -0.00386920       0.00629047      -0.00627359
C       -2.47086148       8.52987053       3.60732559      -0.00608230      -0.00187919       0.00210091
C        4.93269407      -0.01412553       3.60987771      -0.00195779      -0.00243969       0.00492355
C        3.69253376       2.11964602       3.71497943       0.00314423      -0.00003159       0.00090863
N        2.48061574       4.08783293       4.32620421      -0.00580444       0.00376554      -0.00756973
N        1.09039379       6.49301783       4.32710559       0.00820563      -0.01361825      -0.00092280
C       -0.00843982       8.52916913       3.72599744       0.00233855      -0.00268382       0.00203817
C        7.40371853      -0.02325550       3.69320023       0.00342770       0.00243036      -0.00082779
C        6.16089095       2.12984314       3.68398795       0.00612886      -0.00588119       0.00341865
C        4.89419037       4.28697978       3.80712039       0.00012642       0.00094889       0.00326565
O        3.78127412       6.44308586       3.76289245      -0.00827306      -0.00368111      -0.00060204
C        2.47074208       8.48488212       3.82351883      -0.00287970       0.00268918      -0.00387367
C        9.86153531      -0.02294970       3.70932791      -0.00274993       0.00408696      -0.00359554
C        8.63386165       2.12130440       3.71677412      -0.00721876       0.00706794       0.00760846
C        7.39049982       4.25750779       3.69792279      -0.00276245      -0.00105287       0.00537739
C        6.16178499       6.39325525       3.65012382       0.00982705       0.00044405       0.00309186
C        4.92842387       8.53018889       3.65909721       0.00587290      -0.00240009      -0.00378254
C       -0.00331008       1.41524093       3.72748960       0.00181233       0.00247153       0.00098635
C       -1.20796151       3.56228866       3.85600200       0.00228943      -0.00242818      -0.00385100
C       -2.46571138       5.67910591       3.73419039      -0.00214805       0.00226417      -0.00644889
C       -3.70531658       7.81457796       3.60381540      -0.00247970       0.00293085       0.00190870
C       -4.94218531       9.95751617       3.59939484      -0.00480718      -0.00087072       0.01107207
C        2.46062702       1.40839561       3.68618235       0.00643000      -0.00883602      -0.00368148
C        1.26529331       3.52209106       4.04749568      -0.00271675       0.00124808      -0.00003573
C       -0.00658445       5.72397130       4.05223007      -0.00232996       0.00472211      -0.00679488
C       -1.24004456       7.81733787       3.69605105      -0.00384617       0.00454677      -0.00369838
C       -2.46910977       9.95735546       3.58930727      -0.00398416      -0.00716192      -0.00605340
C        4.93132504       1.41308652       3.64742447       0.00423758      -0.00109929      -0.00040750
C        3.66282841       3.52061944       3.93844376      -0.00590537       0.00392396      -0.00436695
C        1.19036198       7.80210517       3.95012140       0.00189803      -0.01150775      -0.00288857
C       -0.00040896       9.95464784       3.65528367       0.00266930       0.00136601      -0.00111997
C        7.39885623       1.40898519       3.68676681       0.00352451      -0.00111101       0.00749181
C        6.13980109       3.56220365       3.72082282      -0.00045737      -0.00592614       0.00451791
C        4.95656621       5.69759540       3.74148088       0.00331490       0.00191805       0.00364686
C        3.72346415       7.83351208       3.75184610      -0.00084295       0.00125658       0.00808580
C        2.46538438       9.92557839       3.73579447       0.00009331       0.00481954       0.00000912
C        9.86937488       1.41154937       3.72870939      -0.01233200       0.00296612       0.00290941
C        8.63658140       3.54622983       3.72459337      -0.00354992       0.00526474       0.00482750
C        7.39987084       5.67523920       3.66077548       0.00633908      -0.00094223       0.00301353
C        6.16469926       7.81953323       3.61873414       0.01068962       0.00010627      -0.00414004
C        4.92601445       9.96091667       3.66861921      -0.00027644       0.00225540      -0.00187127
Zn       2.47508615       5.68417065       5.46097620      -0.00392201      -0.00645137      -0.00028242
O        3.36022772       6.36561633       6.94692995      -0.00053009      -0.01041842      -0.00396106
O        2.25526845       5.95012807       7.86212706       0.01121581       0.00948114       0.00315438
H        2.79036130       5.39358089       8.45707904      -0.00246725       0.01102739      -0.01568255
