52
Lattice="12.336457 0.0 0.0 -6.168228499999997 10.683685154694365 0.0 0.0 0.0 15.0" Properties=species:S:1:pos:R:3:initial_magmoms:R:1:forces:R:3 energy=-449.67089095333023 free_energy=-449.67089095333023 stress="0.0019247679749137532 7.2075199746002455e-06 -3.979450714280714e-06 7.2075199746002455e-06 0.0020266700673231674 3.931015333786942e-05 -3.979450714280714e-06 3.931015333786942e-05 -2.6735867790653593e-05" pbc="T T T"
C        0.00131829       0.00511933       3.67272274       0.00000000      -0.00430016       0.00964593       0.00155839
C       -1.22399688       2.15006783       3.71762534       0.00000000       0.00452123       0.01368159      -0.00500370
C       -2.45054095       4.27512505       3.70798916       0.00000000       0.00186205       0.00029040       0.00454713
C       -3.69623604       6.40921569       3.66764458       0.00000000      -0.00101361      -0.01145609      -0.00141492
C       -4.93641840       8.54653006       3.65068238       0.00000000      -0.00376298      -0.00122879       0.00257117
C        2.47219673       0.01163747       3.66169754       0.00000000       0.00438673       0.00124907      -0.00094757
C        1.24266133       2.14818605       3.73566496       0.00000000       0.00515545       0.00211001      -0.00321222
C        0.05689568       4.30611795       3.78588445       0.00000000      -0.00421167      -0.00366861      -0.00777067
C       -1.22082853       6.41328102       3.68192734       0.00000000       0.00509170      -0.00150754      -0.00190557
C       -2.45674761       8.54727861       3.64239563       0.00000000       0.00343472       0.00258149      -0.00195964
C        4.94393951       0.00632556       3.67032478       0.00000000      -0.00288787      -0.00071318       0.00478459
C        3.70152585       2.14833994       3.74139196       0.00000000      -0.00522019      -0.00359709       0.00363147
O        2.46912292       4.16182997       4.04693531       0.00000000       0.00096059      -0.00460478       0.00396597
O        1.15586096       6.46032195       3.81801557       0.00000000      -0.00039252       0.00171410       0.01971842
C        0.00883218       8.54295278       3.67368330       0.00000000       0.00331144       0.00083230      -0.00424431
C        7.41462329      -0.00629387       3.70110903       0.00000000      -0.01319419      -0.00211483      -0.00555762
C        6.16953333       2.15077328       3.72284544       0.00000000      -0.01362612      -0.00155967       0.00455484
C        4.88834874       4.30569155       3.82951015       0.00000000       0.00522902       0.00043990      -0.00398833
O        3.79853743       6.47044714       3.98653204       0.00000000       0.01713562       0.00874510      -0.00414736
C        2.47213885       8.49000115       3.75243825       0.00000000       0.00112597      -0.00310975      -0.00546810
C        9.86739960      -0.00652912       3.70435780       0.00000000      -0.00134457      -0.00292133      -0.00461739
C        8.64092351       2.13957981       3.71193392       0.00000000      -0.00106409       0.00536738      -0.00081120
C        7.39533768       4.27522330       3.72116831       0.00000000       0.00064553       0.00496427      -0.00120951
C        6.16413002       6.41331008       3.72168196       0.00000000      -0.00056947       0.00129995      -0.00194773
C        4.93432344       8.54234733       3.70004046       0.00000000       0.00305886      -0.00627474       0.00536545
C        0.00135655       1.43208912       3.70092070       0.00000000       0.00270737       0.01418889       0.00236747
C       -1.20149217       3.57976806       3.73463475       0.00000000      -0.00291507       0.00548255      -0.00666168
C       -2.46040206       5.69546033       3.68188264       0.00000000       0.00486392      -0.00585554       0.00134036
C       -3.69626827       7.83509776       3.64638344       0.00000000       0.00019056      -0.00692463       0.00879244
C       -4.93220699       9.97632473       3.65524096       0.00000000      -0.00194472       0.00618423      -0.00107015
C        2.47229494       1.42658224       3.70612081       0.00000000       0.00036909      -0.00225568      -0.00005903
C        1.24806193       3.53069897       3.85126602       0.00000000      -0.00169263      -0.00087401      -0.01045316
C       -0.01346551       5.72917297       3.75927470       0.00000000       0.00191028      -0.00331837       0.00292520
C       -1.23105641       7.83899933       3.65649645       0.00000000       0.00595212       0.00159557      -0.00652764
C       -2.45948248       9.97705043       3.65271461       0.00000000       0.00451177       0.00339389      -0.00576894
C        4.94394656       1.43316650       3.70497087       0.00000000      -0.01209306      -0.00439363       0.00089333
C        3.69343239       3.53024566       3.87072855       0.00000000       0.00501213      -0.00288879      -0.00845642
C        1.20476567       7.83854043       3.74148311       0.00000000       0.00312562       0.00132171       0.00220752
C        0.01159760       9.97585875       3.67664531       0.00000000      -0.00907688      -0.00308028       0.00124272
C        7.40866941       1.42811933       3.70919254       0.00000000      -0.01049701       0.00194590      -0.00032610
C        6.14694153       3.57962101       3.75330409       0.00000000       0.00246323       0.00040438      -0.00201426
C        4.96278052       5.72800729       3.84283043       0.00000000       0.00844137       0.00300181       0.00782158
C        3.73883747       7.84560857       3.80103743       0.00000000       0.00563440       0.00311741       0.00771270
C        2.47255595       9.94311353       3.71509755       0.00000000      -0.00855388      -0.00145517      -0.00467753
C        9.87318687       1.42777548       3.70890001       0.00000000       0.00541804       0.00664873      -0.00418265
C        8.64058450       3.56293772       3.71004722       0.00000000       0.00183037       0.00709790       0.00898953
C        7.40482765       5.69554356       3.69864169       0.00000000      -0.00762034       0.00111168      -0.00314551
C        6.17464705       7.83880322       3.68305989       0.00000000      -0.00288874      -0.00523564      -0.00955358
C        4.93354996       9.97545238       3.68321651       0.00000000      -0.00026196      -0.00778643       0.00307838
Zn       2.51591700       5.72000021       5.63908987       0.00000000       0.00204633       0.00077844       0.00874210
O        2.86730764       5.58293798       7.43560119       1.00000000       0.00378576      -0.01091576      -0.00031136
O        1.72103718       6.31259749       7.19247581       1.00000000      -0.00504954      -0.01145429       0.01060311
