51
Lattice="12.336457 0.0 0.0 -6.168228499999997 10.683685154694365 0.0 0.0 0.0 15.0" Properties=species:S:1:pos:R:3:initial_magmoms:R:1:forces:R:3 energy=-429.5996447820559 free_energy=-429.5996447820559 stress="-0.0032309626682911555 -5.131220596221113e-05 1.4917046505932616e-06 -5.131220596221113e-05 -0.010984722894727772 6.129982532717949e-06 1.4917046505932616e-06 6.129982532717949e-06 1.175536148849742e-05" pbc="T T T"
C        0.00581380      -0.00672106       3.93429191       0.00000000      -0.00052520       0.00293697       0.00518677
C       -1.22835721       2.14926382       3.98776051       0.00000000      -0.00274343      -0.00550542      -0.00230241
C       -2.46900157       4.27966527       3.73887741       0.00000000      -0.00087339       0.00724393       0.00405690
C       -3.69492550       6.40755708       3.62675768       0.00000000       0.00321536       0.00271914       0.00289642
C       -4.93657327       8.52887309       3.78768387       0.00000000      -0.00004931       0.00387928       0.01058592
C        2.47608250      -0.04639722       3.73549479       0.00000000      -0.00661657       0.00089855       0.00203110
C        1.27527344       2.06779297       4.06000033       0.00000000      -0.00110356       0.00321601       0.00029763
C       -0.04550985       4.31765103       3.97959005       0.00000000       0.00465372      -0.00341004      -0.00746719
C       -1.22856840       6.41059099       3.52445389       0.00000000       0.00024434       0.00417370      -0.00436059
C       -2.45817696       8.52885952       3.56965387       0.00000000      -0.00330781       0.00037086       0.00206921
C        4.93771729      -0.00944537       3.51671907       0.00000000      -0.00102303       0.00403399      -0.00466671
C        3.67464818       2.04394408       3.35122360       0.00000000      -0.00626333       0.00354918       0.00226171
P        1.51802519       6.26955118       2.88735140       0.00000000      -0.00102359      -0.00524707      -0.00103752
C        0.00933300       8.56174109       3.45148961       0.00000000      -0.00038051      -0.00718574       0.00139152
C        7.39682789       0.03730273       3.59841139       0.00000000       0.00472024       0.00080928       0.00683089
C        6.16534564       2.14456151       3.38267670       0.00000000       0.00363978       0.00480865      -0.00428186
C        5.00545847       4.30804118       3.17067997       0.00000000      -0.00002237      -0.00628491      -0.01483206
P        3.45316850       6.22083000       4.29239265       0.00000000       0.00162594       0.00034698       0.00605108
C        2.46548860       8.63575422       3.72256143       0.00000000      -0.00070159      -0.00367526      -0.00579585
C        9.87604009       0.03760990       3.85724050       0.00000000       0.00163395      -0.00445786       0.00199607
C        8.63753380       2.15522068       3.68971356       0.00000000       0.00697773       0.00004421      -0.00837790
C        7.41299822       4.27879754       3.51398211       0.00000000       0.00005001      -0.00277287       0.00251604
C        6.17526391       6.41110237       3.68543926       0.00000000       0.00239888      -0.00099219      -0.00816069
C        4.93584754       8.56157084       3.93574220       0.00000000      -0.00420428       0.00602820       0.00580147
C        0.00909106       1.41943982       4.02420430       0.00000000      -0.00052352      -0.00014422      -0.00556768
C       -1.25090670       3.56617189       3.93336205       0.00000000      -0.00233302      -0.00150925      -0.00167908
C       -2.46306713       5.69875666       3.62503447       0.00000000       0.00322637       0.00856094      -0.00086202
C       -3.69746873       7.82588203       3.65760519       0.00000000      -0.00087500       0.00072163       0.00775307
C       -4.93368321       9.94748147       3.84196677       0.00000000      -0.00446771       0.00267264       0.00036587
C        2.48178503       1.36778718       3.74423139       0.00000000      -0.00633079       0.00071226      -0.00031919
P        1.39490484       3.66336776       4.72178492       0.00000000       0.01115669      -0.00698728      -0.00424774
C       -0.02118981       5.66491871       3.55792922       0.00000000      -0.00104733       0.00239571       0.00625586
C       -1.22570930       7.83149676       3.46686460       0.00000000      -0.00284622      -0.00039690       0.00263469
C       -2.45890704       9.94779865       3.59632017       0.00000000      -0.00467546       0.00165327       0.00358677
C        4.93361411       1.41742396       3.40878351       0.00000000      -0.00162337       0.00931483      -0.00704368
S        3.52771445       3.58402603       2.60048021       0.00000000      -0.00176639       0.00438061       0.01206710
C        1.26744277       7.92566064       3.42581466       0.00000000      -0.00028212      -0.00743475       0.00173345
C        0.00554443       9.98830377       3.51860123       0.00000000       0.00122324      -0.00254562       0.00814617
C        7.39468916       1.45399142       3.55638937       0.00000000       0.00591219       0.00331999      -0.00068883
C        6.18736367       3.55935682       3.32279148       0.00000000       0.00192181      -0.00151427      -0.00861690
C        4.97116013       5.66150104       3.55996257       0.00000000       0.00226549      -0.01346112       0.00796387
C        3.67541451       7.92896989       3.96713065       0.00000000      -0.00306488      -0.00404084      -0.00160534
C        2.46740568      10.04290131       3.73563206       0.00000000       0.00336001      -0.00310427       0.00519280
C        9.87475824       1.45305183       3.85588199       0.00000000       0.00058655      -0.00677302       0.00141783
C        8.63990239       3.57063124       3.64953518       0.00000000       0.00268084       0.00172876      -0.00354136
C        7.40836540       5.69875924       3.60411197       0.00000000       0.00434330      -0.00098366      -0.00390554
C        6.16646330       7.82817289       3.84661913       0.00000000      -0.00252727       0.00685219      -0.00416511
C        4.93737896       9.99065585       3.92226890       0.00000000       0.00011951       0.00407049      -0.00281900
Zn       2.68726410       4.98712092       6.06850597       0.00000000      -0.00440986      -0.00508521      -0.00322616
O        1.92751134       4.89331039       8.73302200       1.00000000      -0.00317045      -0.00454828      -0.00366673
O        2.96210970       4.69294663       7.97174778       1.00000000       0.00282538       0.00661780       0.00214690
