51
Lattice="12.336457 0.0 0.0 -6.168228499999997 10.683685154694365 0.0 0.0 0.0 15.0" Properties=species:S:1:pos:R:3:initial_magmoms:R:1:forces:R:3 energy=-2505781.285177625 free_energy=-2505781.285177625 stress="1313.6622404019731 186.56540653079827 -1226.1730969889259 186.56540653079827 2709.438789994374 597.6179504298824 -1226.1730969889259 597.6179504298824 2801.583722307837" pbc="T T T"
C        1.20419931       3.22026880       5.46534596       0.00000000  -25861.75932105  -20998.00212588   -6491.83107293
C        1.07285191      10.15182503      -5.42832526       0.00000000      -8.23187042       3.34270078      -1.75199675
C        1.22910420       5.04548550       2.35173529       0.00000000    -739.81005730   -1067.18644802   -1145.70961049
C        0.95245478       2.99604630      -1.85435655       0.00000000     -34.93432170     -21.18142166      24.54791708
C       -8.63289883       8.14244893       3.98559470       0.00000000  -13753.50105987    2399.15865970  -22191.28509203
C        0.90397105       2.63131846       5.69982954       0.00000000  -13966.24229122   -6468.05479625  -11210.49714769
C       10.82605212      -1.20128096       5.49887219       0.00000000    1590.73557159   26306.27269440  -10971.04502853
C        5.60456826       5.97089640      -2.23316623       0.00000000      10.95201445       5.10540207     123.63592228
C        0.51186395       9.55318124       7.39924724       0.00000000   -3665.16936940    2904.21511239     122.74593596
C       -0.63017512      13.10220678       4.36118669       0.00000000    5764.34742355  -17634.00476210  -20878.89605420
C       -3.59279313       1.16215196       8.88170729       0.00000000      -6.42969310      -4.86059793      -1.67885236
C        3.20536566       3.98407682       5.91726307       0.00000000  463754.57653937  569939.78856914  328136.85185879
B        2.81164446       6.46598709       5.23914782       0.00000000 2334678.96195037 -895753.37765590  562664.63105416
C        1.25575361       5.66674599       1.80669835       0.00000000    -414.21363336     708.73258465   -1391.25303689
C        5.82407847      -0.91282803       6.74649190       0.00000000     -10.41361923      57.32793600     116.17301268
C        3.12908175      -0.49507697       9.21847392       0.00000000      39.73019445     -33.37112265       5.98886831
C        5.32375000       5.10830655       5.65881924       0.00000000 -1029310.72942645  998764.40163403 1540966.80096622
C        3.14495425       6.32748277       5.37516070       0.00000000 -2064707.45258885  727533.95319210 -283343.25576027
C        8.02315147       9.05327057      -0.92960796       0.00000000       0.10148020      -0.12189633      -0.46400031
C        3.78977529       0.47017926       6.13592068       0.00000000    9611.79929224     524.85175247    9290.68389566
C        2.57361660      -1.78718134      -3.70586332       0.00000000       3.93558132       6.37618904       0.96392918
C       -4.21430356      -1.96247648      -4.18958003       0.00000000   -2590.65918688    2825.16368978    3799.62705644
C        7.85306568      16.64273587      -0.61160957       0.00000000       7.08742177       7.25543984      -8.53210610
C       -1.13411733       9.45050439       4.94541056       0.00000000    -408.69151715     290.08782290     303.72186982
C       -0.26752423       6.06420756       4.36031412       0.00000000   -8554.80184961     102.89061155   -3749.87693092
C       -9.86458325      -0.07222068       5.39466067       0.00000000    1401.00722188      -2.11486398     751.57889445
C        0.58182240       3.53273443      -4.79687013       0.00000000   -1443.27710266    -805.73329192    1257.37020388
C       -0.46064072      12.91477228       3.65878126       0.00000000    3421.71210170  -14912.03901026   -8084.93896998
C       -4.81322205      11.47097634       5.49019175       0.00000000    -793.08846929    1039.63510908     197.38491292
C        4.34266699      -5.14623200       8.72886288       0.00000000     147.04849733       0.34852141      38.49775075
O        2.07861650       0.46363224       2.59384135       0.00000000      20.10700745     -84.19330449     -97.49675964
C        2.78259283       4.05616542      -4.96325800       0.00000000  -16174.75697117  -18833.90231789   35853.50537635
C        1.04234311       7.36674959       6.09188553       0.00000000  -13864.58932490    6224.19816564   -4284.55997633
C       -5.26079464       7.57117839       1.58163195       0.00000000     -51.10146147       6.50590051      52.35169351
C        2.46516961      -2.07672711       6.11066539       0.00000000    5568.16486030    3714.80631542   -3201.77746939
P        4.87834450       4.19102747       5.29392979       0.00000000  138108.73436653 1394982.17479815  861466.74885483
C        2.76716325       8.36481589       5.64523450       0.00000000  -21983.32906097   -5887.89710889  -12727.01862566
C        8.29684689      15.58453020       2.99031473       0.00000000   -6348.74401079    1733.44477674   -6534.22793034
C        3.43691143       0.24262810       5.86421903       0.00000000  -11293.94549681  -10487.50924501   -9661.80898294
C        9.54013376      -2.86949884      16.64320891       0.00000000    -225.24255611    1935.20431919    -692.59752142
C        2.38820905       4.25050770       5.89041619       0.00000000  310703.87161138  196255.75648446  146025.25956460
C        3.24467974       7.64932444       5.88017515       0.00000000  176623.61714460 -349633.59732926  273755.37677367
C        2.43267762       4.07288733      -1.48671166       0.00000000      10.39435183      11.18938522      35.16916067
C       10.00595050      -0.13068564       4.12372543       0.00000000   -2217.97250361    2131.22957314   -2767.99902222
C        7.49916154       0.23750029       0.74334355       0.00000000      17.95785614     -16.31753256      10.03916538
C       10.31209761      10.48824744       3.66076169       0.00000000      64.36470661      87.46186821     135.68088422
C        3.54300793       8.81338101       4.01157787       0.00000000   -2335.35184432   24033.35803179  -24295.57902287
C       -1.77501869      11.31430043       6.80799801       0.00000000   -2034.34948025  -17294.76375209   -2556.97548274
Zr       4.54430118       5.72123961       6.93206109       0.00000000 14008139.00381561 14413524.54619754 -17653362.27847439
O        5.59005909       6.05427776       7.30623516       1.00000000 2654051.22867977  968736.31740586  634172.39640683
O        4.68256978       5.79436696       6.81604278       1.00000000 -16870940.65160255 -17986856.87226013 13690345.60299876
