53
Lattice="12.336457 0.0 0.0 -6.168228499999997 10.683685154694365 0.0 0.0 0.0 15.0" Properties=species:S:1:pos:R:3:forces:R:3 energy=-458.739765968829 free_energy=-458.739765968829 stress="-0.0070855318037758045 0.004121172627759519 9.526186544631852e-06 0.004121172627759519 -0.004830256704696788 -1.9399158801977937e-05 9.526186544631852e-06 -1.9399158801977937e-05 -9.908538698952403e-07" pbc="T T T"
C        0.14750976       0.02168737       3.82850420       0.00015227       0.00405353      -0.00196776
C       -1.07251988       2.15742849       3.77583123      -0.00849820      -0.00144073       0.00426156
C       -2.30949627       4.28677851       3.74538532       0.00613500      -0.00297283       0.00124799
C       -3.56304267       6.41941893       3.81428331       0.00424243      -0.00161132      -0.01143649
C       -4.81866351       8.55023539       3.83502271       0.00797330       0.00219962       0.00299073
C        2.59962865       0.01716332       3.91249661      -0.00036936       0.00011342      -0.00938005
C        1.39307106       2.17592375       3.83867825      -0.00256485      -0.00484367       0.00152356
C        0.14082206       4.27876862       3.46734995       0.00119638      -0.00382809      -0.00397285
C       -1.14268219       6.44295338       3.43025055       0.00093182      -0.00150456       0.00643902
C       -2.35965709       8.57165434       3.73484844       0.00712742       0.00239381       0.00666649
C        5.07912325      -0.00235337       3.92885744      -0.00361951      -0.00311492      -0.00087919
C        3.87205050       2.11839992       4.07165112      -0.00176373       0.00120385       0.00444179
B        2.72413907       4.32868653       4.02828609      -0.00108555       0.00617244       0.01292771
P        1.34427349       6.56950334       2.16707265       0.00231555      -0.00784469       0.01438028
C        0.09863592       8.57597254       3.58108517      -0.00178577       0.00248441      -0.01734815
C        7.54789764       0.01027665       3.86586211       0.00151313       0.00284423      -0.01010072
C        6.35173268       2.10990434       4.10182656      -0.00466518      -0.00359660      -0.00780127
C        5.16561081       4.21922496       4.11921841      -0.00185332       0.00650096       0.00665515
S        3.58411456       6.15132068       3.40546422      -0.00728972      -0.00814567       0.00207202
C        2.61438206       8.61043150       3.58103430      -0.00043670      -0.00315652      -0.00045493
C       10.02902565       0.02166575       3.80780591       0.00159388       0.00103627       0.00441071
C        8.80726329       2.14228286       3.93531155      -0.00003042       0.00457620       0.00084320
C        7.59267744       4.27170822       4.02827535       0.00210876      -0.00484790      -0.00376791
C        6.30926379       6.39944514       3.89842808      -0.00143235       0.00274634       0.00281756
C        5.06790191       8.54529891       3.73049138       0.00096343       0.00022071       0.00142829
C        0.16206490       1.45136218       3.80914998      -0.00690259       0.00129678      -0.00545477
C       -1.09065959       3.57182195       3.65339606       0.00130842      -0.00497491      -0.00515569
C       -2.33914751       5.71125017       3.67236932       0.00263231      -0.00542454      -0.00077424
C       -3.58080255       7.84793568       3.79781807       0.00897279       0.00200616      -0.00544769
C       -4.80071120       9.98341599       3.85652642       0.00106505       0.00229247      -0.00160826
C        2.61030044       1.44269729       3.95906503      -0.00116005      -0.00266218       0.00910397
C        1.38793065       3.62587822       3.74821420      -0.00017449      -0.00538282      -0.00070642
C        0.05310316       5.68843555       3.08097798      -0.00065361       0.00196511       0.00284688
C       -1.12999327       7.86601688       3.54003762       0.00164639      -0.00053196      -0.00233701
C       -2.33965500       9.98428051       3.87014852      -0.00094393       0.00126438      -0.00381043
C        5.10682947       1.40284926       4.06896343      -0.00500384      -0.00258846      -0.01292686
C        3.94614980       3.52238927       4.10325116       0.00092542       0.00316903      -0.00219987
C        1.36130358       7.88570725       3.38807833      -0.00261560       0.00460094      -0.00749796
C        0.13744330       9.98335721       3.80754340      -0.00119262      -0.00064505       0.00269222
C        7.57464868       1.41831456       3.99180711       0.00092883       0.00272261       0.00126819
C        6.39179327       3.52851560       4.14392457      -0.00350425      -0.00193542       0.00446037
C        5.14868822       5.60839316       3.92552221      -0.00659357       0.00730168      -0.00358607
C        3.80921408       7.90539720       3.58710306      -0.00134528      -0.00683245       0.01599371
C        2.61768686      10.01301383       3.76222465       0.00223533      -0.00053799       0.00148359
C       10.03598465       1.44119445       3.84662985      -0.00519159       0.00054663       0.01190457
C        8.81444947       3.56512463       3.92564393       0.00596864       0.00134473      -0.00539960
C        7.56069599       5.69589927       3.94230284       0.00179730      -0.00223101      -0.00596454
C        6.28961161       7.82739150       3.81132930       0.00428130       0.00253616      -0.00683008
C        5.08418295       9.98553072       3.78432629       0.00271785       0.00226685       0.00280831
Zr       1.24272421       6.02918716       4.89637053       0.00336147       0.00762554       0.00014516
O       -0.01502701       5.77739839       6.22354977       0.00116682       0.00232750       0.00970761
O       -0.98811211       5.59025807       7.19739356      -0.00010535       0.00030195       0.00340354
H       -0.54852173       5.84269541       8.04010753      -0.00447987       0.00053998      -0.00211534
