51
Lattice="12.336457 0.0 0.0 -6.168228499999997 10.683685154694365 0.0 0.0 0.0 15.0" Properties=species:S:1:pos:R:3:initial_magmoms:R:1:forces:R:3 energy=-446.3611391034106 free_energy=-446.3611391034106 stress="0.00856429132388884 0.0005468925976485744 -0.00010315217941036142 0.0005468925976485744 -0.010423033328708517 -7.307616194282587e-05 -0.00010315217941036142 -7.307616194282587e-05 0.00032079296632781256" pbc="T T T"
C        0.07782932       0.06129684       3.59285877       0.00000000       0.04796972       0.02884457       0.02618622
C       -1.12917475       2.23781812       3.52044691       0.00000000      -0.02599480      -0.02257729      -0.03465073
C       -2.35982628       4.35552361       3.53740573       0.00000000       0.02497095      -0.00288894       0.00520127
C       -3.62820273       6.46233985       3.64308604       0.00000000       0.02256398      -0.00178243       0.01231949
C       -4.88198986       8.57334421       3.65498093       0.00000000      -0.02459757      -0.02331207      -0.03276553
C        2.54701018      -0.03118674       3.64331951       0.00000000      -0.02144802      -0.00244870       0.01518570
C        1.35103810       2.12595176       3.48836742       0.00000000       0.01076714      -0.02841614      -0.02302858
C        0.18898870       4.34985426       3.55034403       0.00000000       0.00077345       0.02077620       0.02824378
C       -1.12871839       6.46188170       3.89338555       0.00000000       0.00112439       0.02085420       0.00367457
C       -2.37876445       8.57153982       3.88480653       0.00000000       0.00442483       0.00472980      -0.02070223
C        5.00890869       0.05729102       3.87152415       0.00000000      -0.06030008       0.00024966      -0.01321484
C        3.74270169       2.11545335       3.61797837       0.00000000       0.00756733       0.01081108       0.01627978
P        1.56810079       6.37459724       4.61092226       0.00000000      -0.01861000      -0.01114707      -0.01073545
C        0.07927082       8.65276736       4.22041160       0.00000000       0.01887436      -0.00756853      -0.06716658
C        7.46646628       0.14858137       3.98957062       0.00000000      -0.02878500       0.02422459       0.01024093
C        6.21725080       2.22674889       3.68485836       0.00000000      -0.00273044      -0.00040761      -0.02829994
C        4.90581173       4.33194936       3.43113281       0.00000000      -0.02258529       0.03420092       0.00297156
S        3.42754062       6.48708279       3.12935561       0.00000000       0.02027859       0.01110581       0.02064984
C        2.55145819       8.76610021       4.15705671       0.00000000       0.01568164      -0.01014179       0.05838731
C        9.96021935       0.14817802       3.80545371       0.00000000       0.02490887      -0.02061538      -0.04602435
C        8.71078430       2.25114380       3.65458961       0.00000000       0.02167779       0.00053883       0.03361967
C        7.44583569       4.35037900       3.52680014       0.00000000       0.01664179      -0.01531836      -0.00497642
C        6.19605497       6.47533304       3.48582440       0.00000000      -0.01002596      -0.01229721       0.01382748
C        4.99024308       8.64584876       3.69300815       0.00000000      -0.00510541       0.02199815       0.00482781
C        0.09113846       1.48779571       3.50772709       0.00000000      -0.00196881       0.01888400       0.01528706
C       -1.09410004       3.65462569       3.47702575       0.00000000       0.00166380      -0.01447347       0.03162476
C       -2.37248262       5.76619429       3.66886530       0.00000000       0.01232271      -0.01062715       0.05505011
C       -3.62780910       7.87230454       3.73049606       0.00000000       0.00332248       0.00537626      -0.00169656
C       -4.87195883       9.98988409       3.62532166       0.00000000       0.00527821      -0.01696492       0.03611531
C        2.54141509       1.37476775       3.55865768       0.00000000       0.02017874      -0.01026186       0.00182357
B        1.62136456       3.63654625       3.43387131       0.00000000      -0.00131135      -0.02120418       0.01208136
C        0.09375311       5.70216635       3.91870458       0.00000000      -0.01202380       0.02639411       0.01165294
C       -1.13899833       7.88263754       4.04701766       0.00000000       0.01367484       0.01258428      -0.03273340
C       -2.38058728       9.98741683       3.81787704       0.00000000      -0.04679613      -0.00626493      -0.02167231
C        5.00203779       1.47672689       3.71532981       0.00000000      -0.00818428       0.00107782       0.02882339
B        3.48523413       3.61249520       3.38385214       0.00000000      -0.03755607      -0.03106723       0.04021095
C        1.34291955       8.07044936       4.40608216       0.00000000       0.01828207      -0.03101885      -0.03265745
C        0.07291267      10.08192771       4.05523234       0.00000000      -0.04903653       0.01313723      -0.01429370
C        7.46474459       1.54962154       3.78631500       0.00000000       0.01233241       0.01469472      -0.05977093
C        6.18650462       3.63781033       3.52932047       0.00000000      -0.01690551       0.00988375      -0.01472356
C        4.98559499       5.73591221       3.37769687       0.00000000      -0.01745358       0.03675207      -0.04109502
C        3.72677396       8.04952016       3.80909214       0.00000000       0.00553068      -0.01533624       0.02125362
C        2.55423346      10.16945514       4.02776840       0.00000000      -0.00373017      -0.00507110      -0.01404300
C        9.96148071       1.55588391       3.65591994       0.00000000      -0.00483804      -0.03576807      -0.01172834
C        8.71102142       3.66017567       3.54991057       0.00000000       0.03424024      -0.00945816      -0.00282904
C        7.45415846       5.76500877       3.52928015       0.00000000       0.01609973      -0.01089706       0.03227514
C        6.20546161       7.89106359       3.58353460       0.00000000      -0.03540353      -0.01752582       0.01263032
C        5.00833541      10.08027142       3.70819293       0.00000000       0.06039937       0.02017816       0.01871826
Zr       2.71964451       3.93977982       5.59831666       0.00000000      -0.18532808      -0.00182811       0.63972916
O        1.87111057       2.73167383       6.59939227       1.00000000       0.19981025       0.03749398      -0.24494626
O        1.92278965       5.89679587       6.07122681       1.00000000      -0.00064192       0.02189852      -0.43513712
