51
Lattice="12.336457 0.0 0.0 -6.168228499999997 10.683685154694365 0.0 0.0 0.0 15.0" Properties=species:S:1:pos:R:3:initial_magmoms:R:1:forces:R:3 energy=-767005.0789253467 free_energy=-767005.0789253467 stress="55.3692286423711 -57.247945684672295 -121.32205357825927 -57.247945684672295 62.57546005571537 73.19088379056049 -121.32205357825927 73.19088379056049 512.839771606253" pbc="T T T"
C        0.60194248      -3.81464417      10.40551400       0.00000000       2.65873633       1.48322280      -2.37538167
C        3.53116207      -0.48929438       4.37565951       0.00000000    -501.22737257     777.08480845    -667.63411479
C       -4.55854405       5.46669180       3.94582281       0.00000000     114.03380346     -94.71375516      41.47845365
C       -6.66090689      10.86418483       1.05208407       0.00000000   -5152.98031939   -8569.79790333   -2134.64372877
C       -5.94479202       5.38954344       3.62066995       0.00000000     -94.59765646     -40.13430071      11.27523047
C        4.37559217      -1.61115624       6.72224782       0.00000000      14.76319228     132.08254190    -202.77489784
C        1.06541744       3.00734761       1.79478808       0.00000000 -11548101.17052612 -9905054.77354301  725882.59070839
C        1.10528718       3.75485214       3.97583920       0.00000000 -415005.65301630  -79052.33605779 1063151.05234968
C        1.95140266       4.80427669       2.73343213       0.00000000   11371.42024495   24623.96222387   17276.19313248
C       -0.59188421       7.60197702       4.26772715       0.00000000      89.68706286     558.23547497     191.06796855
C        4.55220228      -3.09639901       2.20941270       0.00000000    -177.13879609     300.66497190     257.48707038
C        5.94986528       8.82620271       4.72945438       0.00000000      11.53508010      32.01862881     -15.30776649
B        4.10048082       4.55812438       6.75171102       0.00000000    -255.23224542    -145.83522264    -365.13869451
C       -5.06213636       9.80624054      -3.19915263       0.00000000       1.04126090       6.29076394       9.60880909
C        5.92141626      -2.33469565       5.02217377       0.00000000     -89.18567472      24.15187427     -67.41443929
C        6.01055195       1.25596132       0.87004770       0.00000000   -1347.40311039     461.76475020     235.48971244
C       -4.68483894       6.17933134       5.27767326       0.00000000      29.00476690     -47.49522682      26.60043403
P       19.77085934       1.24158157       9.54088333       0.00000000      -0.09422514      -0.00093291      -0.48865581
C        4.26809115       9.65167809      10.28542484       0.00000000      -2.17074701      -1.47418711      -5.89812024
C       11.86723612       0.42831031      -0.95122902       0.00000000    -438.57390053   -1221.50141825   -1134.93220696
C        9.76421357       4.58375768       0.53848466       0.00000000     683.30695956    -269.86063647     192.48905510
C        8.84287086       5.75935450       4.79802607       0.00000000   -2094.82338207    1467.81137200      81.43288512
C        5.14338986       6.60617334       5.42646897       0.00000000     -30.80923335     -20.23304032     -54.35232734
C        4.29685634      10.13615920       4.30711904       0.00000000     237.80054485     221.89390636    -263.23679157
C        1.51621320       2.67471180       4.06308477       0.00000000  -41547.59608831  118198.37460226  -42172.26426222
C       -3.44180921       6.14080983       1.25785710       0.00000000     -95.82202374     -61.44804055     -80.57859265
C       -4.81811704       5.68333510       2.59185171       0.00000000      40.04625423      -6.27097971     -16.18485647
C        3.95860379       5.90754004       6.94175505       0.00000000      18.86471322      15.25809492      15.32584920
C       -6.08503161       6.06360231       7.49036722       0.00000000      57.30290326      83.86813529      40.26943368
C        8.85996646      -1.79793578       3.12621571       0.00000000     -23.67083015    -104.01859577       6.48912096
B        1.06605768       3.00650478       1.79384643       0.00000000 11545207.30191118 9947963.96700198 -561401.34474436
C       -2.90371075      10.16812175      11.55051435       0.00000000      -5.24128844      -0.34145666       1.26142688
C        1.52828933       8.24062019       1.93977292       0.00000000      67.86284392    -184.23562333      62.06910530
C       -1.19651167      11.53627692      -0.39558987       0.00000000   -1943.02350201     955.02735876     928.69170181
C        4.64798247      -3.26054062       3.02658537       0.00000000    -134.99609257     365.74839744    -401.76111771
S        0.93749048       3.82804070       4.50764641       0.00000000  444902.62360393  -94371.11925529 -1177673.05787899
C        5.78903926       5.38665156       7.20694172       0.00000000     -56.30503649     -76.88439763     -27.20172165
C       -1.82843713       8.70383739       7.28125097       0.00000000      -9.67110258    -134.01654655     204.96278712
C        5.95919498      -1.04308646       2.02230218       0.00000000      -2.46551822       2.25958794      11.57174138
C        6.16743829       3.23159047       4.21854422       0.00000000    -454.12061722      20.60253322    -162.25186650
C        4.76221981       5.78335648      -1.93641007       0.00000000    -420.26607361    -120.63964227     197.93579761
C        3.90194191      13.46752143       4.05733351       0.00000000    1389.77657959   -1570.82357081   -2056.28365032
C        0.24322306       8.28059579       3.00595165       0.00000000      59.12403029     345.27344143     -14.34033042
C       11.26144008       7.30771148      -6.26618594       0.00000000      -4.95366792       5.93780085     -10.16365289
C        7.93146215       4.32698158       5.07238517       0.00000000    -436.63010737      42.45806932      29.38120712
C        3.77406147       5.48834400      -1.45760304       0.00000000    -209.72910726    -646.19248180     542.10375161
C        3.80210856       6.95891965       6.90798439       0.00000000      34.09007668      69.81754062      21.28779423
C       -2.27121990      14.31494400       6.40263120       0.00000000    -562.00350740      25.32138562    -678.92776269
Zr      -1.42183609       4.34843390       4.25132421       0.00000000   37021.22131755  -11857.20749562  -36327.57847569
O       -1.48012222       5.37358278       5.13389642       1.00000000      31.97994828   -5460.11583073   -4149.02428668
O       -1.98512735       4.37242198       4.52069621       1.00000000  -22187.89106544   12410.11165212   20667.04479825
