52
Lattice="12.336457 0.0 0.0 -6.168228499999997 10.683685154694365 0.0 0.0 0.0 15.0" Properties=species:S:1:pos:R:3:initial_magmoms:R:1:forces:R:3 energy=-710288.5386613735 free_energy=-710288.5386613735 stress="-109.39353763401533 360.93583215978884 407.49074596534894 360.93583215978884 331.0527246457313 927.9670745630374 407.49074596534894 927.9670745630374 919.4602513655911" pbc="T T T"
C       -1.43543683      -3.23229691       0.96883362       0.00000000    -128.16244716    -166.53687794       7.30887757
C       -1.98629740       1.05213201       4.08777370       0.00000000      72.85703683      22.44347985      32.99026102
C       -5.43936216       5.83101828       5.51654737       0.00000000  -75296.97033772 -224807.23191011  483602.78932403
C       -7.58875657       9.46095384       9.55313079       0.00000000      -0.86290963     -24.06356232     -13.90151791
C       -5.15420829       8.12864317       4.07361911       0.00000000  -18890.77885379  -62212.18034596   71745.30711146
C        1.10012347     -10.19888202       2.01979725       0.00000000    -191.72754437     109.83196093    -320.14813090
C       -2.16198899       2.54884286       2.71098150       0.00000000     -18.65730175      -2.28922261      18.29105467
C       -4.31675633       8.08303195       4.47844819       0.00000000  -25081.36883494  -71879.62497002    1285.44760216
C      -11.16745428       8.90705665       7.18257456       0.00000000   -1880.96508499    9771.97613181     458.57426626
C       10.28067065      14.91800478       9.98359292       0.00000000    7110.17598257    1254.05676279   15534.77754175
C        7.13286180      -3.23431083      -0.58684669       0.00000000      -1.12163423      -2.38259846       1.15397522
C        6.36999918      -1.30519572       2.38383571       0.00000000     156.72764647       4.09792090      86.13484979
B       11.28639454      10.20441019      -9.57454766       0.00000000    3784.27866271   -5562.28470716   -1862.76068051
B       -6.58310045       1.39409197       7.86812342       0.00000000   26952.09903459  -18662.19504157    7997.77422594
C       -4.60395110      11.81243090      -2.86239117       0.00000000      -0.43583082       5.95698347      -5.70593746
C        8.52824759      -0.10663272       3.33344936       0.00000000    -650.48367410   -1522.35857571    2048.28790441
C        7.66479231       4.27108719       3.81609943       0.00000000  -18928.81075724   53081.33031156   59587.06694027
C        6.32394038       5.79677448       5.56473977       0.00000000 -634203.83238193 -373832.38831366  419045.67753413
P       10.06151339       2.46072906      15.88433186       0.00000000    -190.56055153      81.68957419    -132.55972744
C        3.40275333      11.03681863       0.84280663       0.00000000      12.33351966      46.86533851       5.74240532
C       14.10956591      -0.14520757       0.88583903       0.00000000      14.09237580       5.85311301     -49.43340831
C        7.85837462       4.23677991       6.06217628       0.00000000    2825.45283980  -12641.17663811    4655.21301489
C        7.05038634       5.51090987       5.00976609       0.00000000  303824.92126047 -863719.79211285 -480366.93705034
C        6.93213553       6.48848708       4.96128108       0.00000000 -161149.90376889  638451.20541008 -242448.83610137
C        6.96434108       8.08828012       4.67558511       0.00000000   14159.67246928  110343.72581990 -149414.00890508
C       -2.34768688      -3.76962234       3.67551552       0.00000000    5047.88345814   12589.77270918   -9981.68532970
C        2.26131448       9.69054417       1.51389249       0.00000000    -161.57632177      31.58234732    -274.03041807
C       -2.97381898       6.00954585       2.63572028       0.00000000   -1351.28278663    1410.48154862     842.72631590
C       -0.69088821       3.13686995       1.39333474       0.00000000     201.03125247     201.02210952     -16.86544269
C       -7.45873380      13.21227887       1.37194659       0.00000000     -52.84302131      56.60166620      42.16093323
C       -2.77437537      -5.65736633       0.64461577       0.00000000      -7.54667278       0.98733062      11.97798119
C        1.99416730      -1.80761606       5.58855820       0.00000000    7705.13687591    1972.67641467    1635.54484518
C        2.94447496       9.13497110       2.00861959       0.00000000      71.61627377    -167.89332763    -125.80822000
C       -6.37629068       9.72814503       2.25405334       0.00000000     741.76687039    -214.68086539     919.30775903
C       -3.48505119       8.85224916       0.35125627       0.00000000     118.14602439     186.93049784    -291.39079576
C        8.83684854       0.07063320       4.66914991       0.00000000    -388.16258593       8.41466622   -1093.30635412
C       -4.92421532       7.98230225       3.56152445       0.00000000  -53659.51209321 -118798.11880317  149152.62165310
C        2.25738406      10.03428056       3.62521919       0.00000000    -461.87030903    3182.44448185    -730.30130381
C        1.67422956      10.36194737       3.05760142       0.00000000     819.89372216     844.21773880     952.71440280
C        8.06463915       0.62666731       3.77614770       0.00000000     676.86604456   -2643.71149567    -694.18434204
C        9.33537797       2.27380849       7.31941450       0.00000000     433.22021066    -583.85891656     341.81957097
C        5.85282150       4.53773220       7.70066304       0.00000000  -16027.76677087   20854.09581286  -34311.69354130
C        2.90851758       7.13749926       0.89606223       0.00000000     -29.65803266      -0.85340981     -44.08791774
C        4.87502353      12.36992161       1.39425016       0.00000000      77.88949760    -349.72798459      55.19325051
C        5.32830389       2.85971905       3.44409312       0.00000000   12204.99687590   -4852.86294345  -15357.10406947
C        6.43080195       3.29873293       4.59097932       0.00000000   28534.62913947   38238.10846706   -1217.25854765
C        6.74943468       6.10817317       5.24498021       0.00000000  595942.90670497  799145.89451484 -220090.84796379
C        7.28367615       7.17490081       3.45525379       0.00000000   36169.46085761   81848.44663850  -71166.95722019
C        8.35279372       9.90407864       5.58309231       0.00000000   -3894.39782369  -20920.10956329   -7898.54342551
Zr       2.60597936       3.97882389       6.83863963       0.00000000 1905550.25435261 7862732.55178198 8944158.69520028
O        2.59688071       4.80171247       8.69021093       1.00000000 -349271.33903591 -1014129.90947756 -1260405.10504559
O        2.68721099       4.06984006       6.81307853       1.00000000 -1591287.71162188 -6838787.02986948 -7665911.83740432
