52
Lattice="12.336457 0.0 0.0 -6.168228499999997 10.683685154694365 0.0 0.0 0.0 15.0" Properties=species:S:1:pos:R:3:forces:R:3 energy=-446.4764821738073 free_energy=-446.4764821738073 stress="0.004425433108528607 -0.00038122778958969017 1.8331934172034942e-05 -0.00038122778958969017 -0.0069383112283985665 3.870430554477806e-05 1.8331934172034942e-05 3.870430554477806e-05 1.3327714574805234e-05" pbc="T T T"
C       -0.07647729       0.03636426       3.64514213       0.00447903       0.00077762      -0.00084489
C       -1.30008996       2.19333219       3.70251657      -0.00151695       0.00036320      -0.00498834
C       -2.52979243       4.31278233       3.77083673       0.00041207      -0.00232096       0.00444836
C       -3.78247320       6.43741645       3.72190477       0.00102200      -0.00158782       0.00230724
C       -5.01595973       8.56536641       3.60728321      -0.00248203      -0.00482182      -0.00772346
C        2.38416424      -0.01907534       3.74750362       0.00028963      -0.00018616      -0.00752462
C        1.17880381       2.13116814       3.73302155      -0.00164139      -0.00334191       0.00024889
C        0.00151216       4.30235915       3.87999527      -0.00179812       0.00309356      -0.01389689
C       -1.32003995       6.44297614       4.02158112      -0.00041650      -0.00507847      -0.00232014
C       -2.54413969       8.56211397       3.86265196       0.00665702       0.00002883       0.00585563
C        4.84057445       0.04197659       3.88076374      -0.00529072       0.00753431      -0.00251318
C        3.57393689       2.13966900       3.81434319       0.00270920       0.00375647       0.00213691
P        1.37621420       6.33884991       4.74444718       0.00279647      -0.00562453      -0.00553809
C       -0.09206251       8.61361048       4.06763699       0.00456172       0.00328478      -0.00290441
C        7.30498155       0.08226601       3.86324913      -0.00049515       0.00758139       0.01497924
C        6.05738342       2.20117927       3.81021788       0.00251260       0.00208197      -0.00446493
C        4.74430266       4.32316204       3.55087483       0.00168517       0.00424595      -0.00366202
S        3.44883249       6.53681562       2.46006090       0.00540330      -0.00572356       0.01632125
C        2.37866746       8.66097450       3.88821357       0.00162196      -0.00216276      -0.00179602
C        9.79214903       0.07792466       3.70500040       0.00096435      -0.00070406       0.00372162
C        8.54907764       2.19977062       3.75136168       0.00268076       0.00695518      -0.00192875
C        7.28907070       4.31389793       3.68462516      -0.00369482      -0.00125788       0.00509056
C        6.08333382       6.44624500       3.40083497       0.00140452       0.00216303      -0.00522636
C        4.86132215       8.60135528       3.55231359      -0.00589647       0.00158951       0.00026596
C       -0.06753840       1.46828450       3.68666616      -0.00266668       0.00118404      -0.00017144
C       -1.26743481       3.60766902       3.76440418       0.00034811       0.00011769       0.00103919
C       -2.54643411       5.73222888       3.83831828      -0.00032044      -0.00539633      -0.00294754
C       -3.77996738       7.85582184       3.72462075       0.00320031       0.00102586       0.00101298
C       -5.02222522       9.98187039       3.66135441       0.00048661      -0.00331570       0.00024626
C        2.38084807       1.39367649       3.76200845       0.00294200       0.00152873       0.00272907
B        1.43231571       3.63622094       3.80600739      -0.00820012      -0.00247142      -0.00052627
C       -0.11575733       5.68479509       4.15360050      -0.00101541      -0.00089563       0.00129919
C       -1.31259596       7.86744731       4.02001778       0.00705220      -0.00400395      -0.00246579
C       -2.54617895       9.98142827       3.83445947      -0.00124533       0.00105539      -0.00327511
C        4.82574299       1.47510658       3.84289837       0.00250964       0.00371401      -0.00811359
B        3.30741985       3.64934873       3.83977864       0.00525759      -0.00099291       0.00014356
C        1.17497386       7.97453644       4.17217253       0.00463774      -0.00216792      -0.00334526
C       -0.09317972      10.03694923       3.93810904      -0.00344601       0.00856728       0.00832197
C        7.30167381       1.49890597       3.80886969       0.00441219       0.00912533       0.00540153
C        6.03635915       3.61493843       3.70557825      -0.00289270       0.00037251      -0.00961934
C        4.90243708       5.69601844       3.08156958      -0.00029555       0.00628054       0.00636362
C        3.60394751       7.92214555       3.61620562      -0.00241987      -0.00521580       0.00348265
C        2.38351047      10.07282985       3.81044423      -0.00185781       0.00002015      -0.00156700
C        9.79379087       1.49599461       3.71267265      -0.00066544      -0.00125864       0.00637132
C        8.55308370       3.61452088       3.73510608      -0.00181551       0.00390672       0.00077021
C        7.31520227       5.72906028       3.60307814       0.00095966      -0.00209073       0.00007234
C        6.07868232       7.87474945       3.46702612      -0.00709398      -0.00208494       0.00401822
C        4.85513275      10.03302067       3.63313961       0.00460709       0.00085403       0.00116266
Zr       3.87164570       5.73962724       5.16295082      -0.00927894       0.00199394      -0.00592091
O        4.55794888       4.89203973       6.63504057      -0.00646427      -0.00599845       0.00918187
O        5.14419950       4.22154312       7.69678687      -0.00679597      -0.00853021      -0.00620333
H        5.11406679       4.86353309       8.43876648       0.00409320      -0.00596945       0.00249537
