51
Lattice="12.336457 0.0 0.0 -6.168228499999997 10.683685154694365 0.0 0.0 0.0 15.0" Properties=species:S:1:pos:R:3:initial_magmoms:R:1:forces:R:3 energy=-450.29997091429857 free_energy=-450.29997091429857 stress="0.0071915908758519425 -0.0023719828716053178 -5.221903559330998e-06 -0.0023719828716053178 -0.012673684118042459 1.539990575443041e-05 -5.221903559330998e-06 1.539990575443041e-05 2.854150231416106e-05" pbc="T T T"
C        0.00206038       0.02776761       3.41267304       0.00000000      -0.00019082      -0.00206067       0.00740754
C       -1.21851519       2.19318137       3.49137017       0.00000000      -0.00961706      -0.00627089       0.00281332
C       -2.42853137       4.31145232       3.64118177       0.00000000       0.00272402       0.00232427       0.00181370
C       -3.68333684       6.42607116       3.65198716       0.00000000       0.00609885       0.00812160       0.00045534
C       -4.93311125       8.54695674       3.51520050       0.00000000      -0.00204555      -0.00547763      -0.00969304
C        2.46875759      -0.05550697       3.54016518       0.00000000       0.00424582      -0.00003127      -0.01958337
C        1.24231399       2.11619993       3.59224162       0.00000000       0.01191193      -0.00024485       0.00333366
C        0.11955170       4.26231300       3.73950367       0.00000000       0.00893614       0.01258803      -0.00284997
C       -1.15989773       6.41655529       3.78096948       0.00000000      -0.01673663      -0.00817771       0.02166564
C       -2.43679738       8.53436185       3.66295183       0.00000000       0.00442108       0.00064623       0.00815824
C        4.92691519       0.02280389       3.70354331       0.00000000      -0.00870414       0.01330643      -0.01489665
C        3.62922905       2.04097330       3.88461411       0.00000000       0.01474406       0.00721272       0.00488145
P        1.62906519       6.37694117       4.47453632       0.00000000      -0.00988153      -0.00813285       0.02430594
C        0.01967453       8.61287884       3.82072738       0.00000000      -0.00543490      -0.01327147       0.00645271
C        7.38086172       0.10697030       3.62340079       0.00000000       0.00265095       0.00584913      -0.00294597
C        6.12555354       2.20684889       3.75676797       0.00000000      -0.00931983      -0.00643003      -0.00209112
C        4.86844671       4.36410852       3.84876692       0.00000000      -0.00013302       0.00781843       0.01085441
B        3.52965027       6.52044611       3.85138516       0.00000000      -0.00178360      -0.01361104       0.01816091
C        2.47616180       8.72388266       3.67176694       0.00000000       0.01684702       0.00718056       0.00311807
C        9.87273648       0.10399318       3.44750450       0.00000000       0.00782007      -0.00964647      -0.01648934
C        8.62218873       2.21788708       3.57995016       0.00000000       0.00493482      -0.00831935       0.00468989
C        7.37619505       4.32621508       3.69054050       0.00000000      -0.00260315       0.00089343       0.00950007
C        6.13624752       6.45267368       3.64448241       0.00000000      -0.00808084       0.01408709       0.00740901
C        4.93432015       8.61800650       3.49129576       0.00000000      -0.01316929       0.01659428      -0.00212106
C       -0.00114890       1.44760058       3.45607615       0.00000000       0.00333658      -0.00084164      -0.00088514
C       -1.17405520       3.60004732       3.60481222       0.00000000      -0.00317302      -0.00160385      -0.00386296
C       -2.42564685       5.72474911       3.69280550       0.00000000       0.00029888       0.00306714       0.00410371
C       -3.68571650       7.83815775       3.60749926       0.00000000       0.00997843       0.00475283      -0.01594056
C       -4.94097683       9.95915623       3.45951990       0.00000000      -0.00203106      -0.00632969       0.00590685
C        2.45324183       1.34640705       3.64195122       0.00000000       0.01784319       0.00268326       0.00310016
C        1.36803018       3.50060327       3.79053008       0.00000000      -0.00264464       0.01670136      -0.00679400
C        0.06761806       5.67219846       3.87828232       0.00000000       0.00659469       0.00247168       0.01098805
C       -1.19186589       7.84623967       3.78103503       0.00000000      -0.01109129      -0.02012278       0.00244939
C       -2.45202604       9.95244559       3.63180731       0.00000000      -0.00133409       0.00279751       0.00041985
C        4.89723281       1.45465895       3.79155586       0.00000000       0.00107170       0.00818034      -0.01336869
P        3.21956602       3.69288929       4.31041991       0.00000000      -0.01595587      -0.02224160      -0.00143145
C        1.28524891       8.02178974       3.95350502       0.00000000       0.00833632      -0.00126442      -0.00660436
C       -0.00096537      10.04026464       3.70800313       0.00000000      -0.01040090       0.00174998      -0.00146446
C        7.36903664       1.52189447       3.64328928       0.00000000      -0.00182177       0.00273584      -0.00454122
C        6.10109663       3.63251324       3.76908918       0.00000000      -0.01093919      -0.00317327       0.01172123
C        4.87194325       5.76055304       3.76360948       0.00000000       0.00243563       0.00141748       0.01368193
C        3.68524980       7.98823376       3.61774000       0.00000000      -0.00101182      -0.00720920      -0.02125551
C        2.45817020      10.11880949       3.53652818       0.00000000       0.01252516       0.00377052       0.00154476
C        9.86662614       1.51350582       3.48305754       0.00000000      -0.00295279      -0.01813611       0.00037482
C        8.63420507       3.62764004       3.63677995       0.00000000       0.00637446      -0.00233669      -0.01284541
C        7.38885174       5.73902241       3.65887315       0.00000000      -0.00020993       0.00747768      -0.00769631
C        6.15942836       7.86590483       3.53558701       0.00000000      -0.01422649       0.01704863      -0.00077118
C        4.93310184      10.04184669       3.41637818       0.00000000       0.00075487       0.00365406      -0.00035197
Zr       2.14106024       5.19812286       6.76720538       0.00000000       0.02099766      -0.01541534      -0.07392946
O        3.24896413       3.76396725       5.91659617       1.00000000       0.00354733      -0.01927158       0.03471969
O        0.51593926       4.51230006       6.91330276       1.00000000      -0.01393644       0.02448987       0.01838285
