51
Lattice="12.336457 0.0 0.0 -6.168228499999997 10.683685154694365 0.0 0.0 0.0 15.0" Properties=species:S:1:pos:R:3:initial_magmoms:R:1:forces:R:3 energy=-449.64932365575567 free_energy=-449.64932365575567 stress="-0.0027277974696369783 -0.001206071798159509 -3.3323507801332046e-07 -0.001206071798159509 -0.00941480696314096 3.577002100859144e-05 -3.3323507801332046e-07 3.577002100859144e-05 4.791836692609441e-05" pbc="T T T"
C       -0.00788825      -0.02646842       3.66581626       0.00000000      -0.00093792      -0.00042580       0.00315880
C       -1.23318778       2.13049747       3.77453852       0.00000000      -0.00019391      -0.00054801      -0.00084606
C       -2.46437731       4.27444646       3.49907807       0.00000000      -0.00053697       0.00231191      -0.00116149
C       -3.69863105       6.40605313       3.34493246       0.00000000       0.00021420       0.00158752       0.00189118
C       -4.93503800       8.53821399       3.41247714       0.00000000       0.00032887      -0.00158555       0.00262065
C        2.46391149      -0.05855363       3.67676564       0.00000000      -0.00064536      -0.00247499       0.00331373
C        1.21300553       1.95008060       4.30946637       0.00000000      -0.00151851       0.00376241      -0.00042661
C       -0.05637168       4.31278402       3.91904111       0.00000000       0.00140614       0.00221863      -0.01026049
C       -1.23051089       6.41987275       3.50677201       0.00000000       0.00159012      -0.00045232      -0.00184208
C       -2.46172777       8.53829122       3.40282434       0.00000000      -0.00143453      -0.00179393       0.00088544
C        4.93403358      -0.00758119       3.58614817       0.00000000       0.00105664       0.00076928       0.00318780
C        3.69411572       2.00863186       4.11406259       0.00000000      -0.00189587       0.00392046       0.00490624
B        1.23222483       6.47258267       4.15282663       0.00000000       0.01973358      -0.01406507       0.00921833
C       -0.00309608       8.56482150       3.58279452       0.00000000       0.00252122      -0.00028674      -0.00180923
C        7.40087734       0.02036402       3.56699171       0.00000000       0.00114794       0.00090249       0.00211913
C        6.16017874       2.14503720       3.67556381       0.00000000       0.00150697      -0.00056371       0.00306139
C        5.00672755       4.34005840       3.88840056       0.00000000      -0.00075187       0.00142730      -0.00352926
C        3.75413032       6.46772794       4.13537946       0.00000000      -0.00495739      -0.00673464       0.00169025
C        2.47467109       8.58948011       3.76651607       0.00000000       0.00101165       0.00180253       0.00063111
C        9.87105121       0.01420435       3.60758803       0.00000000      -0.00118317       0.00274332       0.00155831
C        8.63667776       2.14748681       3.54510950       0.00000000      -0.00049698      -0.00032506       0.00062233
C        7.40493261       4.28159336       3.48066974       0.00000000      -0.00072577       0.00203353       0.00162966
C        6.17403182       6.43240417       3.50298070       0.00000000      -0.00120674       0.00101174       0.00203840
C        4.93363245       8.54705922       3.60142237       0.00000000      -0.00200838       0.00100422       0.00354491
C       -0.01488273       1.37837354       3.92114323       0.00000000      -0.00211645       0.00070715       0.00048122
C       -1.23946852       3.55717991       3.71934905       0.00000000       0.00137861       0.00115680      -0.00365632
C       -2.46329082       5.69706304       3.40988192       0.00000000      -0.00162824      -0.00037588      -0.00088099
C       -3.69858140       7.82900118       3.35164325       0.00000000      -0.00098869       0.00251760       0.00400966
C       -4.94279021       9.94337421       3.56494269       0.00000000      -0.00063112      -0.00006333       0.00138039
C        2.45456661       1.30127662       4.04949852       0.00000000      -0.00078244      -0.00036617       0.00503786
P        1.26925968       3.61554719       4.81912807       0.00000000       0.01915770       0.02369732       0.00467369
C       -0.02172476       5.72117442       3.79494430       0.00000000      -0.00037929      -0.00035598      -0.00572967
C       -1.22564461       7.83815807       3.47383644       0.00000000      -0.00061480       0.00013859      -0.00071492
C       -2.46313501       9.95029491       3.52710956       0.00000000      -0.00040100      -0.00284660       0.00150231
C        4.93646227       1.40513515       3.77996245       0.00000000       0.00006593      -0.00070338       0.00188954
P        3.61122670       3.64827599       4.63242341       0.00000000      -0.01419247       0.01987416       0.00539060
C        1.23562258       7.90433792       3.80758555       0.00000000       0.00178631       0.00143163      -0.00059383
C       -0.00110594       9.98540349       3.54134917       0.00000000       0.00169417       0.00052304       0.00086338
C        7.39547877       1.44198011       3.56951510       0.00000000       0.00175871       0.00041839       0.00151637
C        6.17751885       3.57303986       3.66075534       0.00000000      -0.00237963       0.00328297       0.00234554
C        4.95101347       5.76674884       3.81644163       0.00000000       0.00248171       0.00033505       0.00354218
C        3.70379644       7.84515153       3.84150987       0.00000000      -0.00063548       0.00160091       0.00043767
C        2.47121010      10.00027742       3.61403256       0.00000000      -0.00064610       0.00036200       0.00140750
C        9.87482363       1.43567789       3.61836560       0.00000000      -0.00219383      -0.00097677       0.00041826
C        8.63732893       3.56885459       3.48045032       0.00000000      -0.00217343       0.00029598       0.00190788
C        7.39835824       5.70358483       3.40924850       0.00000000       0.00291430       0.00002328       0.00104427
C        6.16433321       7.84225847       3.47241122       0.00000000       0.00135123      -0.00116035       0.00251576
C        4.92849493       9.96441538       3.59652909       0.00000000      -0.00009165       0.00027192       0.00470390
Zr       2.70260150       5.65571599       6.04679375       0.00000000      -0.02463637      -0.04785088      -0.11838983
O        3.78844753       6.05428269       7.41789964       1.00000000       0.01721960      -0.00249446       0.01860460
O        1.15468859       4.06779012       6.32015539       1.00000000      -0.00734124       0.00431744       0.04009053
