51
Lattice="12.336457 0.0 0.0 -6.168228499999997 10.683685154694365 0.0 0.0 0.0 15.0" Properties=species:S:1:pos:R:3:initial_magmoms:R:1:forces:R:3 energy=-1896151.912216844 free_energy=-1896151.912216844 stress="2263.2709239223354 258.2938340536459 -620.0657794279851 258.2938340536459 211.28181944488975 403.6959467105437 -620.0657794279851 403.6959467105437 1005.8934494231557" pbc="T T T"
C       -4.41156003      -4.69962826       0.19984855       0.00000000       3.79843811     101.10169481     -62.40557345
C       -4.04316820      -0.25579899      -3.24513582       0.00000000     -16.72073667      68.22001004      16.85457063
C       -8.44772059       0.92557733       5.77050135       0.00000000    2332.40997017  -10140.09618506   -9285.03060664
C       -3.14439869      10.31342713      -0.11485949       0.00000000      13.57941108       5.99815316      -9.04963637
C       -7.10288889       7.24343365      -0.83040819       0.00000000     326.69495279     335.28232387     718.51777272
C       -3.23508299       2.52107843       3.15654245       0.00000000      -3.72057729      -3.93536792      -0.54555857
C        1.46193645       3.75931270       7.66843053       0.00000000  248052.12965169  111330.28299793  218235.04501624
C        0.76388949       4.98307192       0.61833074       0.00000000      -5.01085098     -28.77919756      10.39055507
C       -4.22954837      11.02569093      -9.36279841       0.00000000       5.46974856     -75.43282616     -40.57610470
C       -6.77091612       2.69361669       5.27952742       0.00000000    7895.03526370   -6630.15699316  -12389.12102606
C        3.49709178      -7.10882762      -5.85206301       0.00000000   -7872.60863091   10720.60292170    3919.02564591
C        2.86323866       4.11984973       7.20195201       0.00000000  142306.89704722  -31906.47822036  -88448.67468380
B        0.18557026       9.38022944      -4.98851880       0.00000000   -8427.91805368   14223.81759560    2364.28919552
C      -10.80790810      12.23954113       8.32650375       0.00000000     491.03052025    -244.85328471     -79.90888716
C        4.92316122      -4.36292586       2.77567493       0.00000000     103.22125888     -36.15468536      44.64429496
C        8.40048951      -2.65972457       2.90713723       0.00000000      -8.06673614       6.49518922     -18.80812499
C        2.27015037       3.11852771       8.02993262       0.00000000  191490.81871928  233733.34315617  223975.74593611
N        3.72341336       5.46444064       7.40663714       0.00000000 -458496.17217252  -59177.09976489 -129422.06030735
C        3.18515255      11.44439901      10.43817861       0.00000000     -21.78115738      35.94234362     -22.43475963
C        6.06829298       1.57024419       5.83362345       0.00000000    1687.23212331   -1787.89387337   -1796.60814895
C       10.84286810       2.51757710       7.50430366       0.00000000  -15392.68974068   -8704.91379770   -6930.60540575
C       13.12814242       6.11922113       3.22531498       0.00000000      -5.41838733       4.09093654     -13.36065315
C        9.01318777       8.50225057      -1.24605873       0.00000000       4.55598334       2.46861706       2.02472216
C       18.96304497      20.75918227       5.99579442       0.00000000     -27.67847734      13.47179147      29.11176017
C        0.66488403       0.30908650      -0.84492571       0.00000000       1.73158045      -1.23640616       1.42788317
C       -0.97900495       1.62207681       6.62251682       0.00000000    -600.79627324    -401.72644340    -313.37094050
C       -1.55255709       8.75679442      -0.09389477       0.00000000      -2.44706984       1.21006542       1.50359826
C       -3.98844815       9.76702413       0.45452790       0.00000000     -14.08261239      -7.02157516       6.76696957
C       -2.42726976       3.13884225       9.00243165       0.00000000    4260.50679791  -11137.10962088   -3021.83275838
C        7.75468896       1.14597042       3.60718290       0.00000000      -1.09627329       7.58179244       0.23400047
N        2.02845515       5.08050510       0.16531731       0.00000000     -61.43190614      77.60831074     474.36946660
C        4.19841259       5.12009718       7.28171347       0.00000000 -622096.04694377  -20895.00201350  557148.09993972
C        3.27341619       9.65163194       6.41845060       0.00000000     409.38739755    7153.09957485   -4471.32028051
C       -3.31544612      23.56645119      -1.74734545       0.00000000       0.13915490      -0.15585582       4.84954658
C        4.20287098      -4.08434342       2.44685245       0.00000000     -96.38225280      36.59837557     -43.80348878
N        8.07707900       3.35906454       9.82003794       0.00000000   19565.33877864   -1544.32387157    3387.91009173
C        0.16552613       4.19012212       4.30726413       0.00000000    -527.91178383    -127.20357709    -938.23985395
C       -2.77599649      11.20679307       4.48510714       0.00000000      16.98896818     -59.24482348     -15.74786638
C        9.99750252       5.21593161       6.35824797       0.00000000     -71.55555420      24.20801569     -33.27809033
C       15.33749771       1.99567958       1.00771579       0.00000000       5.86778188     -18.00118210       5.94503136
C        8.12881491       2.92492768       9.52597957       0.00000000    1429.46515588   -4872.28797445   -1584.11537911
C        4.03738482      -2.16074453      10.96140325       0.00000000      18.05733377       8.18498151     -10.32212292
C        4.76037413      -1.98237573      -1.38396776       0.00000000      -3.46114474      -0.80673108      -1.21136459
C        1.83102753      -2.71379651       2.61507707       0.00000000       0.09221209      -0.11644426      -0.29829219
C        0.91978344       9.92136388       5.07061089       0.00000000      18.57744124      -4.25989182     -28.89352901
C        9.69344475       8.69652154       8.55358528       0.00000000       1.35054011       1.33837674       2.82377866
C        8.40866724      14.94862552      -0.00052012       0.00000000    -306.32431225    -367.48769145    2421.99924179
C        1.61014138       9.74184454       6.43277350       0.00000000    -197.43903236     734.50495793    -445.15365895
Zr       2.89795458       4.90520087       9.27555861       0.00000000 23721183.19354273 1172486.53121209 -7765198.20412396
O        2.85236361       5.03744654      10.22868847       1.00000000 1937979.63540192 -591599.74131988 -1486761.57251569
O        3.01589724       4.88842788       9.34611204       1.00000000 -25165346.44449584 -801340.46377589 8498614.97472442
