52
Lattice="12.336457 0.0 0.0 -6.168228499999997 10.683685154694365 0.0 0.0 0.0 15.0" Properties=species:S:1:pos:R:3:forces:R:3 energy=-450.0618109029924 free_energy=-450.0618109029924 stress="-0.0012856024323825439 -0.0018159133767466308 4.648322975259282e-05 -0.0018159133767466308 -0.00758752207482621 6.483203289726731e-05 4.648322975259282e-05 6.483203289726731e-05 3.2740376330795376e-06" pbc="T T T"
C        0.01547168      -0.00002189       3.79706474      -0.00408001      -0.00335186      -0.00360266
C       -1.22035012       2.14038432       3.86747877       0.00143406       0.00362568      -0.00045924
C       -2.44591220       4.28195867       3.73363352       0.01040500       0.00503439      -0.01301514
C       -3.67644018       6.40968470       3.58403347      -0.00055051       0.00436515      -0.00093255
C       -4.91653531       8.54216448       3.62923537       0.00559127      -0.00576945      -0.00365587
C        2.48516458      -0.03677437       3.86737861      -0.00220658      -0.00394241       0.00556454
C        1.24203821       2.10267207       4.10839622      -0.00549087       0.00240688       0.00668493
C        0.01299903       4.23727856       3.92977941       0.00438192      -0.00232729      -0.00728719
C       -1.18516783       6.40810413       3.55310191       0.00084991       0.00307470       0.00701848
C       -2.43535479       8.53448952       3.59019457      -0.00112716       0.00113028      -0.00162672
C        4.95680241      -0.01034951       3.76677582       0.00151208      -0.00395679       0.00392348
C        3.71346876       2.03310100       4.24896353      -0.00269606      -0.00141999       0.00338626
P        1.61575105       6.25286657       2.71046147       0.00528020      -0.00441261      -0.00243018
C        0.02812064       8.56702908       3.37767968      -0.01377403       0.00994098       0.00394105
C        7.40686894       0.04118061       3.62493378       0.00655631      -0.00622503       0.01300499
C        6.17482453       2.15106208       3.87514701      -0.00218100      -0.00748532       0.00847680
C        4.98966503       4.33029897       3.85719299       0.00357550       0.00123145      -0.00536912
B        3.53155217       6.41991922       3.53543824      -0.00568009       0.00634623      -0.00032803
C        2.49624402       8.64790974       3.38155615      -0.00253500       0.00615955       0.01072523
C        9.88840423       0.03899305       3.68158401       0.00434758       0.01045195      -0.00802908
C        8.64484491       2.16037427       3.75650375      -0.00253999      -0.00516937      -0.00144750
C        7.41834107       4.28765284       3.68314798       0.01046649      -0.00157105       0.01141408
C        6.16797316       6.42204528       3.52545655      -0.00288653      -0.00069245      -0.00968028
C        4.95494310       8.57539316       3.57180089       0.00529416       0.00087359      -0.00664246
C        0.00914570       1.41402552       3.92953633      -0.00442407      -0.00070317       0.00457322
C       -1.23563646       3.55232278       3.84949030       0.00712947       0.00285059      -0.00677164
C       -2.43047583       5.70468081       3.63113342       0.00218548       0.00666878       0.00128907
C       -3.67606746       7.83094294       3.59188981       0.00358965       0.00146018      -0.00741240
C       -4.91908705       9.95569105       3.76029252      -0.00237881      -0.00516292      -0.00253996
C        2.47687493       1.36175862       4.10527340      -0.00481040       0.00208560      -0.00380752
C        1.18688382       3.50027410       4.21657370       0.00454272       0.00424160       0.01025729
C        0.06464249       5.66144272       3.63595913      -0.00130045      -0.00554289      -0.00066039
C       -1.19567734       7.82730416       3.47472743      -0.00936757       0.00323057      -0.00966808
C       -2.44294430       9.95010800       3.73797614       0.00111023      -0.00132431      -0.00634556
C        4.95583802       1.40540966       3.97922682      -0.00640745      -0.00496450      -0.01655121
P        3.58509770       3.70778897       4.66913535       0.00451670       0.00228476       0.00446758
C        1.28391419       7.93146610       3.19971722      -0.00801654       0.00654278       0.01614285
C        0.01612089       9.98911340       3.57496901       0.00111948       0.00263412       0.00366772
C        7.40509679       1.45427583       3.75507044      -0.00284742      -0.00857987      -0.00278109
C        6.18987340       3.57165262       3.80910838       0.00539526      -0.00249574       0.00351307
C        4.91365592       5.71057145       3.56176954      -0.00674191       0.00422680       0.00217328
C        3.70463436       7.91774642       3.46804996       0.00018044       0.00854223       0.00957348
C        2.48054010      10.04790301       3.55318860       0.00843812       0.00725719      -0.00193210
C        9.88005008       1.44764551       3.77370290       0.00060237       0.00558484       0.00496472
C        8.64921255       3.58027619       3.72860138       0.01140959      -0.00441917      -0.00662419
C        7.41338917       5.70893422       3.58461061       0.00087915       0.00089162      -0.00017397
C        6.18463626       7.84346470       3.56501193       0.00590662      -0.00393802      -0.00787710
C        4.95376548       9.99584400       3.67875862      -0.00206831      -0.00036606       0.00385503
Zr       1.84255830       5.36004038       5.32625026      -0.00693374      -0.00868202      -0.00251221
O        1.71987735       5.05784327       7.16914220       0.00274094       0.00067749       0.00588263
O        1.62446289       4.82980436       8.53489147      -0.00283699      -0.01017387      -0.00153232
H        2.32049133       5.39622676       8.93281122      -0.01555923      -0.01114379      -0.00280402
