52
Lattice="12.336457 0.0 0.0 -6.168228499999997 10.683685154694365 0.0 0.0 0.0 15.0" Properties=species:S:1:pos:R:3:forces:R:3 energy=-451.3144203005538 free_energy=-451.3144203005538 stress="-0.002280119834197352 -0.0010467469739918584 2.798151213115708e-05 -0.0010467469739918584 -0.002475915725850066 -5.021060790182748e-07 2.798151213115708e-05 -5.021060790182748e-07 4.133692002876685e-07" pbc="T T T"
C        0.03180961      -0.05660865       3.70308148      -0.00278728       0.00098939       0.00446353
C       -1.20845764       2.07049176       3.63565938      -0.00153352       0.00533849      -0.00595369
C       -2.44060546       4.22272435       3.53257000      -0.00269174      -0.00890462      -0.00616597
C       -3.67293890       6.36109959       3.56971605      -0.00220489       0.00246998      -0.00150137
C       -4.90147725       8.49776893       3.64882895      -0.00705936      -0.00046162      -0.00457921
C        2.49029137      -0.03618899       3.75010516       0.00677370      -0.00986522      -0.00034634
C        1.22637441       2.05532648       3.97128845      -0.00119571       0.00469537       0.00088511
C       -0.02175444       4.17540347       3.69285228       0.00388015       0.00198905      -0.00561401
C       -1.20363521       6.35041155       3.47096153       0.00383045      -0.00319652       0.00494811
C       -2.43845852       8.50205636       3.52311752      -0.00374812       0.00310974      -0.01032903
C        4.95988165      -0.04209949       3.63408842       0.00492467       0.00632662      -0.00625125
C        3.75652954       1.99652266       4.29135538       0.00278400      -0.00004439      -0.00659122
B        1.25557376       6.41718908       3.64364431      -0.00231042       0.00197644      -0.00296002
C        0.01900260       8.52365053       3.44003470      -0.00274937       0.00231865       0.00364813
C        7.43444812      -0.03849198       3.54641086      -0.00878114       0.00374798      -0.00876756
C        6.21204848       2.08393458       3.84274321       0.00745011      -0.00843092      -0.00143017
C        5.08947254       4.24746633       4.37125104       0.00657687       0.00403725      -0.00611987
C        3.73424661       6.36799400       4.15363106       0.00494711       0.00364612       0.00614771
C        2.51549543       8.51532131       3.61469790       0.00523035       0.00440466       0.00039686
C        9.90589843      -0.05117125       3.60858549      -0.00398587      -0.00140637       0.00032773
C        8.66796127       2.08969690       3.58838313       0.00222270      -0.00116480       0.00449851
C        7.44527113       4.22946296       3.72100125      -0.00910196      -0.00055347      -0.00680862
C        6.20883130       6.36714232       3.84501956       0.00020274       0.00110022       0.00531362
C        4.96490011       8.48383247       3.74473599       0.01034893      -0.00922451       0.00198449
C        0.02969340       1.37469171       3.75403856      -0.00343087       0.00776007       0.00007485
C       -1.21650224       3.48187481       3.57580817       0.00322357       0.00174817      -0.00491279
C       -2.43746334       5.64547546       3.50511766       0.00157488      -0.00646607      -0.00008279
C       -3.67065654       7.78717666       3.56928151      -0.00662285       0.00648326       0.00504995
C       -4.90163324       9.92663877       3.68899326      -0.00202848      -0.00170061       0.00150154
C        2.47950273       1.38439939       4.01484458      -0.00038002      -0.00808104       0.01178640
O        1.14681066       3.46360005       4.09510082      -0.00103427       0.01162851       0.00086060
C        0.02222091       5.58742171       3.57610783       0.00741443      -0.00056560       0.01222277
C       -1.20000404       7.78149793       3.45874486      -0.00358421      -0.00122036       0.00631140
C       -2.44565397       9.93053060       3.62367484       0.01039702      -0.00006890      -0.00522125
C        4.97225901       1.36177966       3.89745003       0.00756240      -0.00008059      -0.00584398
P        4.04695440       3.30289173       5.46711876      -0.00021967       0.00301267      -0.00408535
C        1.27147825       7.85383342       3.49440505       0.00400307       0.00169271      -0.00343161
C        0.02244555       9.94320445       3.50567992      -0.00467613       0.00244068      -0.00247978
C        7.43151378       1.38195609       3.63166386       0.00622981      -0.00233668       0.00633207
C        6.24163770       3.50933200       3.95598365      -0.00077676      -0.00759160      -0.00035298
C        4.98207620       5.67172929       4.14855699       0.00261634       0.00585916      -0.00130398
C        3.72182923       7.76033410       3.83199356       0.00860719       0.00073089       0.00114675
C        2.50750541       9.93677769       3.56449310      -0.00935843       0.00661394      -0.00186346
C        9.90498806       1.37274037       3.58677590       0.00049111       0.00009625       0.01282319
C        8.66698896       3.51484211       3.59037518      -0.00793179      -0.00312615       0.00421674
C        7.43396560       5.65420835       3.70725946      -0.00396470       0.00234758      -0.00124221
C        6.20182107       7.78220281       3.74028051       0.00484681      -0.00722278       0.00562664
C        4.96651546       9.90813015       3.66893118       0.00041387      -0.00917826       0.00832389
Zr       2.22372334       5.10775749       5.17534368      -0.01374821      -0.00752814      -0.00621557
O        1.88109968       5.84351121       6.84331858       0.00343102       0.00522152      -0.00919286
O        1.57568405       6.47162637       8.04919800      -0.01334340      -0.00270746       0.01012960
H        2.07000236       5.96115925       8.72590665      -0.00073413      -0.00065868       0.00062677
