51
Lattice="12.336457 0.0 0.0 -6.168228499999997 10.683685154694365 0.0 0.0 0.0 15.0" Properties=species:S:1:pos:R:3:initial_magmoms:R:1:forces:R:3 energy=-943912.3034097042 free_energy=-943912.3034097042 stress="920.9106689222348 -824.1986378017302 -203.4311112549235 -824.1986378017302 1881.6717902668777 287.94688654637196 -203.4311112549235 287.94688654637196 1236.4215956763192" pbc="T T T"
C        3.62343445       0.30914930       3.65781304       0.00000000    2819.54495828    4586.39582713  -10459.59299734
C        2.46864495       1.52354166       1.83524857       0.00000000     923.14322253     386.23425428    -757.69743292
C       -2.96885317       3.64509634       4.50500369       0.00000000       4.13653828      -3.06197667     -12.83176870
C       -3.74998413       7.03786952       4.48097308       0.00000000    -184.01914987   -2829.82964710   -1789.69976252
C       -1.23872922       6.18681668       0.93288612       0.00000000      -6.13056349       9.16271531       0.34934634
C        5.21609644      -4.57012469      -0.23641026       0.00000000       0.46874408    2558.97727501    1811.73100949
C        2.56497745       1.35432284       4.52374604       0.00000000   66593.02495104   52222.68182884  174125.41120245
C        3.92718759       0.42778167       4.93908921       0.00000000  -29993.63644972   24203.84303128  211530.16597800
C       -6.67032449       8.10150840      11.08086489       0.00000000     121.20421195       2.58663666     -33.45956316
C       -3.92176947      13.06221855       0.90688004       0.00000000      96.33832210    -343.52226015     649.61193992
C        8.04303803      -5.19100471       6.10133852       0.00000000    1745.23444397   19747.27612780  -12347.08761853
C        3.94463244       1.67611772       4.69777169       0.00000000  -32688.81715634  -43798.95432369   61408.32806162
N       13.47316123      20.49617827      12.85815239       0.00000000      -8.62282763      -2.66589983       5.78553322
C       -1.46365340       5.63002292      -3.41089879       0.00000000      99.02753285     -92.91853958    -101.56289012
C        8.59690335       5.95983197       1.79011756       0.00000000      47.13111350      28.85373919      -3.48633522
C       10.34942516       2.35614288       2.89315039       0.00000000      33.97105442       8.21322091       9.60783756
C        2.12967632       5.88033930       5.57333636       0.00000000   -6541.41066313   14850.99418794    -558.47178605
N        4.88044246       8.10964252      11.29804859       0.00000000    -120.74900849       1.21053698      32.99186037
C        5.59725105      10.44939583       2.62371263       0.00000000     293.52162512     138.34099717     140.93441037
C       13.47003118       1.97585016       0.75288563       0.00000000      68.94609409     -96.22091785     365.19356243
C       11.60753339       4.29875585       1.07770008       0.00000000      17.12177099     -20.28023103      15.61124224
C        3.15276648       2.13460237       1.32357258       0.00000000    -248.28818389    -506.90407643    1735.84383300
C        2.92189714       3.43284090       7.63248083       0.00000000   26106.32889673 -158119.25765746  -59253.93656456
C       11.42025187      10.35129184       8.38730344       0.00000000  -86187.18560465   55306.09230347  -84564.53275169
C        0.26074717       0.66199252       0.18712046       0.00000000      55.66257632      44.98770945      55.55327633
C       -8.96749698       4.58510543       2.95085137       0.00000000     364.06681612    1998.68194469   -2843.78599054
C       -6.54107991       4.84025846      -1.54201348       0.00000000       8.41535376      22.21857170      46.34261813
C       -7.33686774       3.30872717      10.49248775       0.00000000   11698.99880285   11157.55988795   14755.64551234
C       -7.12127612      16.32887017      -0.56518155       0.00000000      -0.42927458   -2558.13208477   -1812.20076111
C        2.32024642       1.25737020       5.17996776       0.00000000  -41301.30361937   34754.81980766  439861.55573948
B       -4.65534263       3.70006512       5.07957519       0.00000000     -25.77868635     -12.24212545     -27.46343600
C        3.04512962       6.13912132      -3.58810968       0.00000000     -14.92651520      21.25043584      15.62975774
C        0.56162069       7.41984307       5.46190609       0.00000000     331.61479073    -231.47551836     -30.91398383
C       -6.47148417       9.35392650      -1.73654264       0.00000000      10.89349448       4.26500183      -1.79476686
C        2.95204552       1.66899209       4.51848441       0.00000000   -2901.21362558  -30959.50037617   -8324.37619329
B        4.19942142       2.76290633       7.20571926       0.00000000  -26789.14083332 -558208.67203213  -94152.64749781
C       -9.98344778       9.14191479       3.13608052       0.00000000      16.01044594       6.62092767     -16.28825794
C       -2.13041835       9.75182798       7.19303340       0.00000000  -74937.57442128  407268.98538449  -90341.57978577
C       15.25698051      -0.17766050       2.45511814       0.00000000    3046.36527696   -2794.77616653   -8739.33336703
C        9.48599996       4.00031954       2.40858023       0.00000000       5.03760996     -10.68763691       3.03587047
C       -1.68366945      10.16791402       6.82378305       0.00000000 -281482.45952402  419433.24499529   37379.82922384
C        0.74402777       3.36937877       7.24473332       0.00000000  210313.77133371 -230570.11287788   24531.70791456
C        3.04793725      10.35201056       2.80202611       0.00000000      -2.06774161      -4.08873441      -0.27711953
C        4.63652727      -1.09119921      -0.32502355       0.00000000     -23.78644860      18.99474994      59.76479825
C        7.70751734       4.38371968       1.18443571       0.00000000     -34.27241810     -99.22669246       2.09129872
C        7.64166823       5.63405184       2.17852852       0.00000000     -39.44003083     -10.00766868      20.23917535
C        8.12587716      10.33097084       1.57214994       0.00000000     690.57498415     498.67553149     827.29780250
C        7.96683887       5.21830615       1.21902227       0.00000000      27.13059315      69.14603108     -45.51424537
Zr       2.71906006       1.20661452       7.46224014       0.00000000 4849206.50410183 -5913562.92375775 -6925261.01423183
O       -0.21745972       4.49092112      10.26848868       1.00000000    -380.30685056     226.39825020     225.95729174
O        2.83153485       1.12619748       7.41060738       1.00000000 -4590832.63006328 5895258.74929001 6331863.33301125
