51
Lattice="12.336457 0.0 0.0 -6.168228499999997 10.683685154694365 0.0 0.0 0.0 15.0" Properties=species:S:1:pos:R:3:initial_magmoms:R:1:forces:R:3 energy=-656369.9010138126 free_energy=-656369.9010138126 stress="-897.5423734848181 -688.8981858914868 -568.5350958334312 -688.8981858914868 -199.30478123660464 -434.1758775109926 -568.5350958334312 -434.1758775109926 -135.1351860838907" pbc="T T T"
C       -2.56358743       2.08432622       0.40362951       0.00000000      -3.16563082      21.54769925     -34.86921625
C        5.40228133       1.26463222       3.33845537       0.00000000  -12298.87463099   15443.01319188    -979.31646516
C       -4.53240097      -3.57885346      -3.03388727       0.00000000      41.86974534      90.25802731     -56.32478208
C       -2.50137843       5.78793464       2.99536516       0.00000000   -9501.40107167   -3608.25547147   -1292.40358285
C       -2.17284431       6.68685405       2.69824972       0.00000000  -18415.48874794   -5142.81720960   -2427.68006372
C        5.60568224       4.72284047      -0.32309609       0.00000000       6.12861301     -18.81277107     -10.80826071
C        2.36271967       2.28827858       8.64433755       0.00000000      26.83230231      56.57472983      39.69680609
C       -3.75467213       3.55015891      -0.27278134       0.00000000      -0.84403183       0.42325278     -10.67813906
C       -1.03692656      11.56729991       5.62854952       0.00000000   -7747.90427496    8019.64481363    4300.89985457
C       -4.54871724       7.28746024       5.21298167       0.00000000     964.26325183    -304.48782412      12.61815077
C        6.22752195       3.32835932       4.28727872       0.00000000     -27.71137783     -63.37904859     -62.54581987
C       10.56948094      -3.71150578       8.51655181       0.00000000    2078.51845017   -1261.59074900    3821.62109543
B        1.12361224       7.44515537       2.60650514       0.00000000 -1509404.14024215 -534984.40001283 -1151158.69860731
C       -3.69711216       7.01051624       6.08230606       0.00000000      85.35096413      -5.50092050    -209.40382831
C        4.65612445      -0.69642068      -0.52606467       0.00000000     -51.16534468      34.69662363     -46.98087840
C        8.64337910      -5.46350702       8.46491197       0.00000000     280.49923133   -2605.14475931    4765.45218406
C        4.18360611       2.89167474       6.39321989       0.00000000      12.02127947      18.81288817      76.95104320
C        6.99934831      12.87936890       3.90084691       0.00000000      36.18912321      45.93908672      -1.02154398
C        3.42691365      11.62415799       3.73629679       0.00000000    8199.79320390   24982.19524423     255.06292275
C       10.75189825       2.50941887       4.27005427       0.00000000     721.30433363    2270.80147843     136.37328044
C        9.97245083      -3.89343420      -2.34017835       0.00000000       4.87185660      -8.63307654     -22.36920409
C        9.97348954      -4.62622270       7.66217288       0.00000000    6887.79984554   -5989.99422334   10613.93627435
C        4.96793280       8.92761549       6.20435731       0.00000000   14157.90483256   -2292.65929986   11074.70203977
C        7.65928553      11.98250541       8.83923455       0.00000000     -46.22292878     -19.35206570      49.48075673
C       -6.19310050       2.25958837       8.35620026       0.00000000      -0.75999950      -2.33420776      -2.10382971
C       -3.76648098       3.89597107       0.92767019       0.00000000       7.18541670      41.09016346      24.18621451
C       -2.65708910       7.42386114       3.35953848       0.00000000  -17983.14266744   -2567.56195691     874.35394541
C       -2.97531955       5.24030053       6.01686111       0.00000000     -17.27343514      18.14897467      13.20740029
C       -4.86213100       6.88436242       4.28322584       0.00000000    1798.27000966    -588.42306631    1286.86917278
C        3.90010062       2.39155804       9.58907800       0.00000000      -3.33363568      -4.24520259      -0.91547186
O       -4.37987172       9.92812871       7.88553906       0.00000000     114.43100027      36.77312015      69.55685262
C      -16.08977057       9.35192119      -2.17196108       0.00000000       2.87084493      -1.32331954       0.07798854
C        2.44807455       3.60029879      -0.73644690       0.00000000       2.11775840     -13.68039827       1.26493373
C       -0.28053003      15.16900217       6.63919477       0.00000000     272.80194196    -273.25755515     307.25675373
C        5.01906730       3.05020678      13.11189293       0.00000000       0.72515561       3.92555048       2.14117810
O       13.62663541       1.78909926       9.87702135       0.00000000       1.13931684       2.34757095       7.31349874
C        3.11080066       8.83103584       1.55529371       0.00000000 -184651.90902914 -209823.86823651  524703.11947676
C        1.98580018      15.08876387       2.50398165       0.00000000     128.83877117     135.79902497      16.54778004
C        7.48233546      -4.28577127      -2.76472175       0.00000000     -49.24153246    -105.51405361      16.61514274
C        4.13642559       2.74838462       5.63839776       0.00000000     282.17843535    -828.25746042     213.70314320
C        4.91748678       9.56659344       4.06108972       0.00000000  -82126.49406749  -86662.22551680   -8062.06482214
C        1.24127136       4.49388778      -4.79311889       0.00000000       0.12205459       1.25525249      -5.32062520
C       -7.54212239      -1.99283409      -2.31482571       0.00000000      -9.70846749       7.58382336      -5.79987331
C        5.74649302       3.86415263       2.93515762       0.00000000    5288.16184388   -5866.03370287    -241.16308356
C       14.85786116       2.66043100       1.19295025       0.00000000      -7.46460605    -836.12121414    -403.02043384
C        5.16693844       7.37613491       4.20622980       0.00000000 -390387.82432567   54505.16381782  -37206.59514982
C        9.15485439       7.40874676       3.91398636       0.00000000   -1376.21254656    -463.97989220   -1423.89602096
C        8.25877653      12.18565437       8.13989746       0.00000000      22.74725039     -39.55976397     -83.65701606
Zr       2.41289670       7.95983873       3.60013614       0.00000000 2820295.70122995 -3041749.52893538 3114815.66000708
O        1.30002001       7.06975675       4.36714677       1.00000000 -756853.73374553 -456749.59934040  361885.90325685
O        2.50974928       7.91397163       3.66526550       1.00000000  129243.37827712 4257144.54692055 -2835636.93443504
