52
Lattice="12.336457 0.0 0.0 -6.168228499999997 10.683685154694365 0.0 0.0 0.0 15.0" Properties=species:S:1:pos:R:3:initial_magmoms:R:1:forces:R:3 energy=-3396251.698013755 free_energy=-3396251.698013755 stress="2035.5037215953764 -440.7286015511675 972.6099062455105 -440.7286015511675 -116.22407225678057 -1386.5680744972212 972.6099062455105 -1386.5680744972212 154.3088044776698" pbc="T T T"
C       -3.35440953      -0.26907555       3.25152912       0.00000000    6017.80862022   14166.52711350  -15553.25632635
C       -1.18267843      -0.27546124       2.44479620       0.00000000       7.07628218      -2.61750829      10.16758210
C       -4.04493546       3.60386659       5.63375627       0.00000000     585.92970878     344.19113582      88.62346779
C       -3.20476065       9.42884554       6.48152307       0.00000000   -6415.08032914    2885.77316888    1021.26115652
C       -4.16732517       6.92650946       5.46965312       0.00000000    8099.39444147   -1279.19680128   -5026.90107414
C        2.13582050      -1.75704941       0.35768057       0.00000000      -0.04566440       0.29161727       1.67077591
C       -3.92270369       5.41967120       1.72628713       0.00000000     136.62723458      22.34462954     116.90010805
C       -0.13960715       6.00102774       5.55068176       0.00000000  616913.24087546 -584526.15560182  -23040.14623221
C       -0.18339181       6.53025614       5.70401073       0.00000000  399345.10526524  655179.09367596  314683.84199042
C       -6.97720773       9.87182657       1.26310850       0.00000000      71.60121534    -520.00455683     750.76307946
C        3.56779812       1.30536060       4.89199006       0.00000000      99.26140943      71.81066448      35.15590325
C        4.77202215       5.61603694       3.77715606       0.00000000   33225.52589495  -13877.35675821  -28669.69041568
B        2.52596635       5.92017961       5.37749582       0.00000000  386983.41918354 -272401.27690599 -564453.43564269
P       12.22312725       1.46573154      -1.99457543       0.00000000      -0.75603829       0.81850476       1.19484968
C        0.05732389       7.82566588       6.45543922       0.00000000 2064629.40768205 -1725158.87125483 1444985.14991924
C       11.07404383       3.30778853       3.08524862       0.00000000      47.06181311    1024.42747912     743.44060915
C        6.29595508       1.04905409       9.37675262       0.00000000   -2413.44157950    7599.00526093    4103.51947194
C        6.50307608       3.82507677       6.72630729       0.00000000   -8998.20016059   -3766.53627712   14330.49243695
S        5.58173156       4.80394985       3.91854605       0.00000000    8029.69541700   -2878.89645486   -8048.24019283
C       -3.38645815       9.71250095       3.17912471       0.00000000     134.61761829     -70.66925637      83.37118189
C       15.36802475      -1.77004228       3.90272575       0.00000000    -762.48151799     141.17212191    -630.84371761
C        9.57135166       3.21583318      -2.32993797       0.00000000       0.71719539      -0.40597711       0.22366008
C        7.27560341       6.55913756       5.89520328       0.00000000    -176.54086914     308.42169778    -531.65915894
C        2.99378128       7.36014838       4.74254484       0.00000000 -297408.45836208  -72679.06681290  343811.74591564
C        3.19959352       9.94295921       0.88039156       0.00000000     -15.61623964      16.05971363       8.59376596
C        2.53850850      -3.78275798       5.40278292       0.00000000  -12795.05634174    1252.30903547    5144.21058416
C       -8.00469759      -4.45775357       0.90399325       0.00000000      71.17799829      -2.17002416     294.34486771
C       -2.12375808       7.40325220       2.37477578       0.00000000    -310.31296541    -245.22286204    -132.14420950
C       -0.57699344       8.69958660      -0.11810829       0.00000000       1.30240018      -1.89345337     -19.19196212
C       -2.99038817      11.03086283       5.97768628       0.00000000     101.96790504    -223.48977519      63.47980902
C       -0.85588143      -0.46176990       0.76336996       0.00000000     -63.72887067     521.60878601    -754.23645103
C        0.87263827       4.82144041       6.61397006       0.00000000   66926.61217494 -297744.32002873  -69357.18755368
C        0.20838140       5.36097897       6.05841686       0.00000000  -78288.65532234  -15850.85252391 -333944.11989106
C       -1.49695577       8.27843241       7.71367745       0.00000000  118038.02328696  -73393.70574928    3727.38285882
C       -1.72956794      11.09602296       2.49243955       0.00000000      11.56452598     -24.04491958      21.53291707
C        5.48717651      -1.72504869       1.00518402       0.00000000       7.66233376     -53.38527263     119.69496969
C        7.81060486       3.95277854       6.78150622       0.00000000    -227.72413812      87.55069757    -150.31800816
C       -1.68833358      13.86118201       6.06932740       0.00000000   21791.01095129  -26853.43142741   -5608.74180148
C        1.41934913      12.67988992       8.10938723       0.00000000      -5.75223998     809.62273950     164.03594999
C        7.28925270       2.49858433      -4.72353297       0.00000000     -20.84405225     -36.03070326     -31.05607292
C        6.78084165       3.92445439       6.31314069       0.00000000    9327.14507059    3704.05311732  -14389.91621475
C        0.85701632       2.46463621       2.69327941       0.00000000     -76.70670921     243.69262609     219.92255860
C        5.88601377       2.38386806       2.86661356       0.00000000     -14.84546874     -16.45496424      11.45042085
C        7.80077585      14.23579779      -0.12841571       0.00000000       0.68177161      -1.64813010      -4.41688899
C        6.98377243       0.45853924       1.17655962       0.00000000       7.04454048      -5.98372810       6.96751789
C        9.64112514       3.36102144       3.88970749       0.00000000     766.05897365     967.78599409     424.09235895
C       11.18295961       5.20899222       4.21612898       0.00000000  -23561.39935492  -20664.24726632  -28833.33390808
C        4.84836637       3.33234563       4.82133280       0.00000000   10127.82363271  -10481.51072754   -6322.30468083
C        1.73131389      10.25441897       2.00258140       0.00000000      21.75033691       9.21103718      34.91090488
Zr       1.31210767       6.92837488       7.02299812       0.00000000 -26353809.90596928 -36621221.76838785 -4029262.20232054
O       -1.37767311       6.77874019       6.63279662       1.00000000 -234998.93605652  -54453.22652536  -99561.16355909
O        1.28475939       6.93877844       7.04675592       1.00000000 23268838.17249053 39109078.66981789 3099316.36469103
