52
Lattice="12.336457 0.0 0.0 -6.168228499999997 10.683685154694365 0.0 0.0 0.0 15.0" Properties=species:S:1:pos:R:3:forces:R:3 energy=-446.95962852569033 free_energy=-446.95962852569033 stress="-0.0033929609153496706 0.0011384332545407365 -1.8624140914627616e-05 0.0011384332545407365 -0.010609292279168295 -2.3589642344292852e-05 -1.8624140914627616e-05 -2.3589642344292852e-05 5.9978452812170335e-05" pbc="T T T"
C        0.00593266      -0.01753744       3.66898841       0.00363064       0.00555352      -0.00263336
C       -1.20936464       2.13972941       3.42580937      -0.00473264      -0.01480931      -0.00096166
C       -2.45697770       4.27312010       3.57878321       0.01000928       0.00471464      -0.00396182
C       -3.69521055       6.39389672       3.77652176      -0.00742993       0.00105674       0.00349666
C       -4.94014356       8.51648146       3.83504355      -0.01002393       0.00216565       0.00070491
C        2.47038224      -0.06833127       3.71303183      -0.00314015       0.00900660      -0.00995066
C        1.26908549       2.06221242       3.46385215       0.00134864       0.00972016       0.00225020
C       -0.02131195       4.30797108       3.35977059       0.00325336      -0.00561008      -0.00164786
C       -1.21958777       6.40044281       3.78293384      -0.00119900      -0.00170958      -0.00425126
C       -2.45774608       8.51601866       3.77310110       0.00009334      -0.00229353      -0.01140549
C        4.94548704      -0.02386435       3.67961989      -0.00085285       0.00410697      -0.01332528
C        3.69960391       2.06174230       3.79217055      -0.00168587      -0.00081512       0.01237602
B        1.36684082       6.43890794       4.02946810       0.00944660       0.00497953       0.00887500
C        0.00419755       8.55692324       3.73657128       0.00147159      -0.00003700       0.00643791
C        7.40609562       0.02292619       3.61140160       0.00325135       0.00103415       0.00098440
C        6.17781415       2.12771289       3.65484938      -0.00449758       0.00172547      -0.01075408
C        4.96719888       4.24462103       3.88341011      -0.00795999      -0.00060919       0.00512685
P        3.34762724       6.23523789       4.45839678       0.00842540      -0.00168773      -0.01254544
C        2.46965528       8.63503188       3.86783745      -0.00295107       0.00154244       0.00477383
C        9.88939208       0.02749089       3.64751029       0.00384958      -0.00721942      -0.00134221
C        8.64831511       2.14626263       3.53260862      -0.00112133       0.00348405       0.00912157
C        7.41321762       4.26905288       3.68394253      -0.00166163      -0.00372580       0.00329645
C        6.16511799       6.40234979       3.92256609       0.00203808      -0.00321066       0.00708194
C        4.93086884       8.55710642       3.96636871      -0.00454675       0.00385331      -0.00231247
C        0.01062147       1.40560239       3.48522906       0.00384265      -0.00236547       0.00650366
C       -1.22927345       3.55638914       3.42157240       0.00492331      -0.01130638      -0.00848791
C       -2.44981217       5.69057820       3.71279628      -0.00273796       0.00688822       0.01160573
C       -3.69912643       7.81111674       3.80774147      -0.00648918      -0.00246326      -0.00133309
C       -4.93751296       9.93352753       3.74348108      -0.00058550       0.00204492       0.00279148
C        2.48279447       1.34962763       3.67709161      -0.00490610       0.00778066       0.01026253
S        1.41960925       3.59610239       2.58007327       0.00977035      -0.01733020      -0.00115519
C        0.04023621       5.67434963       3.78982643      -0.00274430      -0.00215809      -0.00309734
C       -1.22140512       7.81862775       3.77993004       0.00271537      -0.00201143       0.00441112
C       -2.45383035       9.93072972       3.72906927      -0.00119462       0.00417384       0.00264372
C        4.95229856       1.39812144       3.70073590      -0.00409419       0.00644108       0.00155380
B        3.68285121       3.50412628       4.07533620      -0.00165555      -0.00880196       0.00470475
C        1.25479168       7.91303480       3.82648251       0.00124966       0.00104424      -0.00508943
C        0.00772404       9.97619457       3.65769709       0.00100981       0.00234300       0.00720514
C        7.41153303       1.43512251       3.57614533      -0.00206990       0.00098656      -0.00185428
C        6.18758651       3.54201750       3.71288333      -0.00542992      -0.00206402       0.00070643
C        4.95483082       5.64904836       4.01085869       0.00601165      -0.00270600       0.00286702
C        3.67171003       7.93110472       4.12196324      -0.00226315      -0.00058144      -0.00560764
C        2.47961086      10.02944638       3.68467267       0.00395386      -0.00146413       0.00432387
C        9.89010790       1.44118147       3.51373267      -0.00632696      -0.00628955       0.00213432
C        8.64441319       3.56426192       3.58114096       0.00837746       0.00706555       0.00718589
C        7.40419769       5.68965449       3.78886427      -0.00724530      -0.00328342      -0.00169483
C        6.16120565       7.82179910       3.93357706      -0.01057103       0.00214794      -0.00209966
C        4.94001600       9.97728757       3.76239566       0.00294816       0.00497853      -0.00617579
Zr       1.73225898       4.37315135       5.24197579       0.01171079       0.00278725       0.00577635
O        1.79956252       4.73130188       7.05210307      -0.00072630      -0.00368445      -0.00692221
O        1.80076896       5.01032491       8.41032604       0.01090786       0.00347738      -0.01138974
H        2.51319725       4.44440357       8.77671981      -0.00339608       0.00313479      -0.00920283
