52
Lattice="12.336457 0.0 0.0 -6.168228499999997 10.683685154694365 0.0 0.0 0.0 15.0" Properties=species:S:1:pos:R:3:forces:R:3 energy=-456.74400857990184 free_energy=-456.74400857990184 stress="0.002390919069175263 1.6942547789246287e-05 -1.4786787236441688e-05 1.6942547789246287e-05 -0.0035109960027208107 5.403808507635785e-05 -1.4786787236441688e-05 5.403808507635785e-05 -1.94499801601559e-05" pbc="T T T"
C        0.00132336      -0.01820066       3.59997635       0.00466560       0.00723623      -0.00485376
C       -1.21659093       2.13926369       3.74917521      -0.00766261      -0.00213928       0.00124476
C       -2.44568608       4.26126323       3.73367099       0.00556972      -0.00870123      -0.00493618
C       -3.70053137       6.38556801       3.57366007      -0.00057936      -0.00981169       0.00918137
C       -4.93824199       8.51662182       3.51188583      -0.00015149       0.00093111      -0.00236650
C        2.46774843      -0.06048595       3.52498556       0.00285528       0.00033642      -0.00611651
C        1.25974254       2.07364420       3.74133325      -0.00643274       0.00378361      -0.00672728
C        0.07823908       4.29607405       3.91782911       0.00210441       0.00119697      -0.00057171
C       -1.23976482       6.40599219       3.64908672       0.00564889       0.00019721       0.00291392
C       -2.46264018       8.51690377       3.50692952      -0.00172342       0.00266111       0.00070378
C        4.93437095      -0.01774924       3.59705408      -0.00097578       0.00802169       0.00173888
C        3.67659674       2.07368335       3.74255983      -0.00271059       0.00902927      -0.00136390
N        1.10016001       6.49096171       4.11125649       0.01413867      -0.00769153       0.00951775
C       -0.00599373       8.54104549       3.65833738       0.00242078      -0.00870413       0.00454444
C        7.40216811      -0.00359347       3.70984329      -0.00748291       0.00479522       0.00051523
C        6.15278222       2.13922389       3.75313698       0.00799711      -0.00250422       0.00223677
C        4.85726175       4.29585621       3.92280212       0.00302881      -0.00487110       0.00737660
N        3.83367026       6.49013760       4.11802405      -0.00278355      -0.00526345       0.00785878
C        2.46763262       8.52512188       3.85362990       0.00152378       0.00823345       0.00431664
C        9.87058835      -0.00352804       3.71064342       0.00040794       0.00115874      -0.00038711
C        8.63628773       2.13505019       3.74320783       0.00277016       0.00940865       0.00501178
C        7.38213531       4.26092455       3.73858367      -0.01416901      -0.00329375      -0.00310483
C        6.17534586       6.40557808       3.66008560      -0.00708592       0.00148780      -0.00590883
C        4.94162247       8.54017375       3.66779026      -0.00271527      -0.00146901      -0.00796335
C        0.00985134       1.41048425       3.68846224      -0.00908089       0.00823275       0.00070492
C       -1.18169194       3.56852700       3.80399343       0.00409213      -0.00712679       0.00937259
C       -2.46382465       5.67903831       3.63978840       0.00685680      -0.00905363       0.00067297
C       -3.70044645       7.80476442       3.50535546      -0.00204660      -0.00063149       0.00945171
C       -4.94161888       9.93571855       3.52477719       0.00097302       0.00574016      -0.01027598
C        2.46815126       1.34555830       3.64440203      -0.00253171       0.00510110      -0.00220766
B        1.47379071       3.54571577       4.01078377      -0.00721200       0.00323101       0.00297848
C       -0.01637714       5.73058058       3.86832577       0.00802334       0.00235528       0.00269585
C       -1.23034621       7.81828831       3.58437207      -0.00248776      -0.00247777      -0.00736046
C       -2.45931945       9.93606903       3.52255887       0.00239512       0.00323618      -0.01538621
C        4.92643063       1.41067195       3.68973791       0.00413903       0.00726703      -0.00108144
B        3.46148376       3.54552306       4.01452971       0.01273915       0.01014910      -0.00501420
C        1.20267270       7.83370898       3.87088801       0.01022234      -0.00858981      -0.00196812
C        0.00141938       9.96550189       3.64126176      -0.00525005      -0.00284370      -0.00714950
C        7.39452777       1.42644950       3.73044645       0.00834647       0.00676099       0.00005638
C        6.11776336       3.56847300       3.81091017      -0.00686836      -0.00726722      -0.00415035
C        4.95108946       5.73029477       3.87603386      -0.00162030      -0.00277207       0.00865329
C        3.73203171       7.83278799       3.87628893      -0.00446358      -0.00249346       0.00243795
C        2.46820490       9.95692949       3.75103185      -0.00591433       0.01099028      -0.00456319
C        9.87804646       1.42676182       3.72789230      -0.00509638      -0.00463719       0.00765295
C        8.63657841       3.55758727       3.73874847      -0.00694376       0.00574341       0.00335483
C        7.39954698       5.67869288       3.64645474      -0.00732303      -0.00323694      -0.00424449
C        6.16614240       7.81772138       3.59382922      -0.00106858       0.00106252      -0.00299413
C        4.93436641       9.96479612       3.64550201       0.00870733      -0.00095707      -0.00265000
Zr       2.46258340       5.26831763       5.28414437      -0.00419437      -0.00624611       0.01280540
O        2.44950248       5.17628230       7.13995734       0.00399837       0.01055524      -0.01421454
O        2.36898988       5.26604262       8.52873521       0.00383296      -0.01764012      -0.00469173
H        3.30190258       5.23388303       8.82831154      -0.00088283      -0.00847977       0.01425396
