52
Lattice="12.336457 0.0 0.0 -6.168228499999997 10.683685154694365 0.0 0.0 0.0 15.0" Properties=species:S:1:pos:R:3:forces:R:3 energy=-458.6367087233303 free_energy=-458.6367087233303 stress="-0.006063974149498886 -0.0002419893797193004 -3.382900359949687e-05 -0.0002419893797193004 -0.005237424886941347 2.7344597491550022e-05 -3.382900359949687e-05 2.7344597491550022e-05 4.317527262284439e-05" pbc="T T T"
C       -0.00656780       0.00059317       3.67515276      -0.00199545       0.00264201      -0.00601429
C       -1.24687783       2.12746219       3.66161541       0.00219112       0.00337314      -0.00247234
C       -2.47989583       4.27106220       3.61655905       0.00308509      -0.00171816       0.00217244
C       -3.70729994       6.41263007       3.60653209      -0.00088592      -0.01315908      -0.00080718
C       -4.93512064       8.55405583       3.63968299       0.00166257      -0.00447832       0.00474957
C        2.46312866       0.00608458       3.69905796      -0.00231443       0.00223060       0.00324995
C        1.21641638       2.14050210       3.90497123       0.00120390       0.00444590      -0.00079651
C       -0.03581715       4.24168879       3.94097746      -0.00587170       0.00576504       0.00103045
C       -1.24919954       6.41174525       3.75052750      -0.00091271      -0.00015428       0.00028703
C       -2.47279647       8.55293904       3.63197169       0.00294378      -0.00556632       0.00415399
C        4.92982438       0.00734238       3.61598294      -0.00379560       0.00500099       0.00701213
C        3.70965157       2.13638045       3.83873061       0.00040135       0.00589731       0.00085518
B        1.22075041       6.45886134       4.12584419      -0.01050403       0.00002004       0.00087202
C       -0.01659664       8.56369281       3.69760931       0.00358122       0.00186075       0.01119911
C        7.39984086       0.00355768       3.57239364      -0.00172763       0.00193097       0.01123592
C        6.17077968       2.13454491       3.59176955      -0.00225929       0.00292454       0.00575121
C        4.95453704       4.25552009       3.85872841       0.00522180      -0.00180764      -0.00443486
C        3.73242741       6.42861097       4.07849923       0.00756351       0.00699963       0.00627258
C        2.47181807       8.56956238       3.78116760      -0.00061196       0.00456608      -0.00679426
C        9.86777065       0.00065068       3.60927210       0.00322574      -0.00347059      -0.00210817
C        8.63286752       2.13517026       3.53320486      -0.00219365       0.00526772       0.00057030
C        7.40205214       4.27548866       3.58197837      -0.00372748       0.00031756       0.00498434
C        6.17231157       6.42000051       3.70865060      -0.00392991      -0.00348256      -0.00617839
C        4.93486647       8.54433876       3.72454206      -0.00033888      -0.00483751       0.00768689
C       -0.01660052       1.41812493       3.73345729       0.00041089       0.00497640       0.00798991
C       -1.26318159       3.54341650       3.70973178       0.00125391       0.00188357       0.00275561
C       -2.48172750       5.69867850       3.64256575       0.00216602      -0.00637576       0.00262287
C       -3.70570112       7.83983574       3.61976465       0.00182300      -0.00986964      -0.00062327
C       -4.93800895       9.97449500       3.67050558      -0.00395005       0.00223548      -0.00404284
C        2.46252129       1.41957099       3.83104079       0.00290417       0.00594535       0.00053587
C        1.14955702       3.51592830       4.14119000      -0.01073036       0.00336528      -0.00144407
C       -0.04825323       5.67980201       3.95256076      -0.00375356       0.00456208      -0.00539069
C       -1.24209013       7.83917152       3.69385417       0.00521291      -0.00331889      -0.00835103
C       -2.47260440       9.97654481       3.64259410      -0.00289782      -0.00100730      -0.00662160
C        4.94162249       1.42400290       3.65881523      -0.00295801       0.00603164      -0.00368033
C        3.79007094       3.51194469       4.04443988       0.00892139       0.00259806      -0.00665936
C        1.22734820       7.89217395       3.83517269       0.00316384       0.00133449       0.00407622
C       -0.00783406       9.98178505       3.60337136      -0.00222631       0.00252004      -0.00291142
C        7.40306539       1.42242777       3.53555899      -0.00361599       0.00343454       0.00074814
C        6.18371928       3.55403263       3.63947650       0.00113041      -0.00121313       0.00677785
C        4.93488833       5.71454630       3.88938801      -0.00230807      -0.00210621      -0.00551442
C        3.69684862       7.82332534       3.86369603      -0.00357186       0.00522185      -0.00228638
C        2.46911865       9.98075955       3.63083344      -0.00000936       0.00159986      -0.01227286
C        9.86104794       1.41900389       3.57423576       0.00082441      -0.00112647       0.00155676
C        8.62981895       3.56146484       3.54846842      -0.00165620       0.00585715      -0.00316153
C        7.39662012       5.70277320       3.61905665      -0.00436234      -0.00416839      -0.00175962
C        6.16799893       7.83914467       3.68659587       0.00057132      -0.00591977       0.00327313
C        4.93037826       9.96548250       3.65644805       0.00349169      -0.00689843       0.00945736
Zr       2.54278714       4.89370029       5.22616826       0.00876864      -0.01405405       0.00175304
O        2.60800702       4.81323207       7.10898713      -0.00047532      -0.00282307      -0.00758465
O        2.52637993       4.75219355       8.50647063       0.00864878      -0.00974388      -0.01018335
H        3.44789190       4.89645990       8.80842935       0.00321245       0.00249139      -0.00153644
