52
Lattice="12.336457 0.0 0.0 -6.168228499999997 10.683685154694365 0.0 0.0 0.0 15.0" Properties=species:S:1:pos:R:3:forces:R:3 energy=-456.08618715681354 free_energy=-456.08618715681354 stress="-0.0062465849076963785 -0.002231857889410675 1.7376815250610836e-05 -0.002231857889410675 -0.005275983936953605 -3.6637551494535787e-06 1.7376815250610836e-05 -3.6637551494535787e-06 -3.0455160795281084e-05" pbc="T T T"
C        0.00003010      -0.00032903       3.66877117      -0.00426171      -0.01232883       0.00870649
C       -1.24726766       2.11627891       3.65987546       0.00729300       0.00192737      -0.00224544
C       -2.47151003       4.25970387       3.59009647      -0.01337571       0.00280291       0.01175563
C       -3.69670365       6.40679468       3.56796450      -0.00142077       0.00345859      -0.00268874
C       -4.92439844       8.54986184       3.61339273       0.00514108      -0.00014535      -0.00560588
C        2.45685617      -0.00294577       3.67930077      -0.00518870       0.00033005      -0.00999606
C        1.19993778       2.14823400       3.89500187       0.00996341      -0.00012890       0.00708541
C       -0.03215195       4.19795676       3.88924701      -0.00174898      -0.00072624       0.00286830
C       -1.24356731       6.39333045       3.68891987      -0.00103406       0.00315066       0.00118159
C       -2.46200730       8.54289985       3.59323657      -0.00043597      -0.00518001      -0.00219878
C        4.93675775      -0.00798322       3.62354378      -0.00436991      -0.01129260       0.00245179
C        3.69226983       2.07749654       3.84769154      -0.00024837      -0.00165279      -0.00812157
B        1.12665774       6.47670146       4.10043729      -0.00972212       0.00774227       0.00322118
C       -0.00647547       8.55130873       3.68460046       0.00354917       0.00710209      -0.00493238
C        7.40449246      -0.00611547       3.62752353       0.01576999       0.00054738      -0.00980359
C        6.16423766       2.13866232       3.67692036      -0.00481820       0.00563269      -0.00377585
C        4.98681954       4.32507379       3.92806222       0.00441524      -0.01209164      -0.01226983
N        3.79875035       6.45591480       4.14801078       0.00417589       0.01006184       0.00136616
C        2.49773403       8.54591405       3.81522912      -0.00051131       0.00125059      -0.00880689
C        9.87107826      -0.00926231       3.64829985      -0.00002916       0.00230494       0.00311037
C        8.63017669       2.12893634       3.58372534      -0.00368314      -0.00415855      -0.00289280
C        7.40858606       4.27448664       3.61405914       0.01166797       0.00623286       0.00051506
C        6.19008215       6.43780104       3.70582839      -0.00199829       0.00061399      -0.00380840
C        4.94909140       8.53951189       3.73771180      -0.00564453      -0.00014112       0.00050917
C       -0.01323318       1.42230921       3.72406121       0.00752739      -0.00285976       0.00001823
C       -1.25280788       3.52346882       3.67666284      -0.00774132       0.00472289      -0.00703017
C       -2.47260700       5.68636043       3.59060434      -0.00671027       0.00078560       0.00820467
C       -3.69441007       7.83251506       3.57937421       0.00068019       0.00477194      -0.00227455
C       -4.93519362       9.97055125       3.64779472      -0.00344573       0.00208283       0.00371435
C        2.43772415       1.41502699       3.81808795       0.00462415       0.00138776      -0.01112275
N        1.13560703       3.50661071       4.13189077       0.01143289       0.00556046       0.00868070
C       -0.04907833       5.63691834       3.88937290      -0.00206827      -0.00088204       0.00155356
C       -1.22788644       7.82260651       3.64990790       0.00144416       0.00021973       0.01174953
C       -2.46890446       9.96813764       3.62125620      -0.01097292      -0.01012457      -0.00088326
C        4.94261161       1.41002944       3.70229084      -0.00364121      -0.01081779       0.00407263
B        3.81049970       3.48229775       4.12422742       0.00393828      -0.00481894       0.00988867
C        1.24356363       7.88291695       3.83007002      -0.00220532       0.00616539      -0.00020255
C       -0.00127647       9.97011280       3.62014465       0.01204019       0.00470167       0.01315368
C        7.39797649       1.41891384       3.60910246      -0.00489260       0.00523029      -0.00637729
C        6.18028559       3.56764767       3.72402552       0.01107269       0.00820007      -0.00514163
C        4.96998190       5.76404738       3.92172871      -0.00314314      -0.00404650       0.00063216
C        3.73530249       7.81334687       3.90415728      -0.00697192       0.01142380       0.00505792
C        2.47885215       9.96451028       3.68111440       0.00809086      -0.00366092      -0.00468752
C        9.85997376       1.41136129       3.60662176       0.00183812      -0.00317985      -0.00224662
C        8.63251894       3.55446139       3.56976664      -0.00500632      -0.00758466       0.00213967
C        7.40796913       5.70115795       3.61131124       0.00737582       0.00390561      -0.00189590
C        6.18325394       7.84510583       3.67988022       0.00123061      -0.00042564      -0.01465428
C        4.93612383       9.96230485       3.67229546      -0.00423946      -0.00978612       0.00462017
Zr       2.46314599       4.98180448       5.18362181      -0.00236302      -0.00908275       0.00667331
O        2.45864940       4.98883276       7.04491620      -0.01120881       0.00087837       0.00236473
O        2.35265956       4.99728589       8.43299219      -0.00472739       0.00005447       0.01886952
H        3.28114823       4.99439431       8.74703465       0.00455749       0.00186648      -0.01050191
