52
Lattice="12.336457 0.0 0.0 -6.168228499999997 10.683685154694365 0.0 0.0 0.0 15.0" Properties=species:S:1:pos:R:3:forces:R:3 energy=-453.6804763111058 free_energy=-453.6804763111058 stress="-0.005746653179885587 0.00199206892590421 4.267281387400133e-05 0.00199206892590421 -0.0017870455401928827 2.8389321898483192e-05 4.267281387400133e-05 2.8389321898483192e-05 -1.4433959226672619e-05" pbc="T T T"
C        0.00555382       0.00866002       3.66409084       0.00662525       0.00578677      -0.01276517
C       -1.23380413       2.13653726       3.59508322       0.00044143       0.00486008      -0.00894379
C       -2.46472909       4.27555940       3.56976631       0.00337338      -0.00725556      -0.00898820
C       -3.69990136       6.41132688       3.60903029      -0.00311572      -0.00782858       0.01051386
C       -4.93464100       8.55334544       3.67307224       0.00066145       0.00102850      -0.00561767
C        2.47530450       0.02403589       3.71701835       0.00746045      -0.00563256       0.00206119
C        1.23466774       2.17272382       3.74936090       0.00222387       0.00484017      -0.00624214
C       -0.01069568       4.29149038       3.73120577       0.00904083       0.00682793      -0.00505020
C       -1.24990028       6.42795180       3.65308395      -0.00567344       0.00198655      -0.00225341
C       -2.47088058       8.55380008       3.65272595      -0.00348512       0.00226205       0.01223465
C        4.93512428      -0.00166702       3.70679204       0.00060056       0.00087774       0.00434123
C        3.74520761       2.11020007       3.90832811      -0.00293655      -0.00096218       0.00777234
O        1.12367997       6.45636049       4.09299603       0.00112892      -0.00292298       0.00155820
C       -0.01169877       8.53669859       3.73662950       0.00223771      -0.00361988       0.01328766
C        7.40463834      -0.01931229       3.67145141      -0.00225184       0.00078031       0.00451104
C        6.19202139       2.11270491       3.69662177       0.00472079       0.00260581       0.00248317
C        5.02405008       4.21994325       3.93612375      -0.00398322      -0.00209395       0.00629832
B        3.78859453       6.44097129       4.12348654      -0.01012239      -0.00887462       0.00877169
C        2.43821913       8.52712646       3.82487429       0.00535878      -0.00334197       0.00333373
C        9.86656427      -0.01104175       3.64864957      -0.00626426      -0.00307962      -0.00148902
C        8.64227846       2.12608716       3.58399452       0.00555927       0.00701642       0.00816490
C        7.42151508       4.26586229       3.63633979      -0.00334577      -0.00039013      -0.01545137
C        6.19029596       6.39802533       3.75935019      -0.00502497       0.00476142      -0.00451425
C        4.94185594       8.55225234       3.75756159      -0.00395929      -0.00210392       0.00035581
C        0.00320404       1.43037610       3.65034896      -0.00034804       0.01395704       0.00310781
C       -1.25127166       3.56039804       3.59148351       0.00623144       0.00054163       0.00475434
C       -2.47407817       5.69896655       3.59280529      -0.00219067      -0.00859057      -0.00772067
C       -3.70569074       7.83934363       3.63653073      -0.00467306       0.00348697       0.00995469
C       -4.92719001       9.98305430       3.68283791       0.00303784       0.00717544      -0.00519319
C        2.49615253       1.45960442       3.80400790       0.00099499      -0.00050436       0.01008801
C        1.17965233       3.55846397       3.82081313       0.00729223       0.00704266       0.00558663
C       -0.06396836       5.71570910       3.79823965      -0.00164918       0.00921880       0.00588361
C       -1.25098791       7.84615513       3.67558442      -0.00483409      -0.00015461      -0.00213239
C       -2.47079597       9.98688254       3.69601705       0.00216444      -0.00151468      -0.00109610
C        4.95100704       1.42332418       3.75770587       0.00148066       0.00167769      -0.00375334
O        3.85107523       3.49360724       4.21202800      -0.00261574       0.00507311      -0.00058086
C        1.19843988       7.85175932       3.88041440       0.00757151      -0.00346158      -0.00509994
C        0.00163549       9.96298481       3.69938135       0.00049324      -0.00145881      -0.00937057
C        7.40904939       1.40969966       3.63161684       0.00677140       0.00876260       0.00551682
C        6.20614482       3.52436354       3.72206659      -0.00144248      -0.00021325      -0.01173257
C        4.98925390       5.62939811       3.93717203      -0.00441001      -0.00276667      -0.00339869
C        3.70087931       7.85846042       3.87678560      -0.00444044      -0.00705609      -0.00158137
C        2.45817893       9.95513881       3.69928528      -0.00782776      -0.00290194      -0.00481584
C        9.86974290       1.41268645       3.59003507       0.00066302      -0.00924866       0.00376036
C        8.64296153       3.55364201       3.57463276      -0.00138972       0.00179228       0.00102542
C        7.41119760       5.68995929       3.65347306       0.00201912      -0.00022149      -0.00902295
C        6.16951489       7.82578500       3.73259366       0.00020555      -0.00127596      -0.00502753
C        4.94142396       9.97556791       3.67644840       0.00743664      -0.00621788      -0.00012044
Zr       2.35390233       4.90029756       5.04497590       0.00696517       0.00582934       0.01146495
O        2.26459401       4.86859767       6.91259376       0.00446740      -0.00458309      -0.01769631
O        2.18011646       4.85877801       8.30330871      -0.00830728      -0.00981915       0.00159202
H        3.11225115       4.89054508       8.60780604      -0.01293630      -0.00009657       0.01123550
