51
Lattice="12.336457 0.0 0.0 -6.168228499999997 10.683685154694365 0.0 0.0 0.0 15.0" Properties=species:S:1:pos:R:3:initial_magmoms:R:1:forces:R:3 energy=-683149.6307388663 free_energy=-683149.6307388663 stress="88.67387103166311 -249.42985048493568 -99.9168656471656 -249.42985048493568 416.6296292984246 17.839887636082985 -99.9168656471656 17.839887636082985 80.8095550920598" pbc="T T T"
C       -1.74781148      -1.76986313       1.76213711       0.00000000     338.10361786     614.03889562     243.72742020
C        1.35069233       1.66381714       3.91595229       0.00000000 -581421.40206873  875232.56365006  999037.81582515
C       -3.82631757       0.92107850       2.00619287       0.00000000     428.73695855     145.87851951     251.35412125
C       -1.94884402       7.93153828       5.31743797       0.00000000     -25.46780579     109.78657437       2.52694048
C       -9.64329819      11.40338770      -5.54106189       0.00000000      -4.44433772      -0.98732002      -2.95954192
C        4.53774576      -1.41679340       2.51992995       0.00000000    -436.82891919    1663.75032841    -520.53778865
C        0.98874304       2.36151890       4.38006494       0.00000000 2590858.35196137 3160665.43784922 -7612813.09166762
C        6.02506464       3.98433096       1.71661962       0.00000000    -181.37701902    -142.79113318     -19.37319325
C        0.87291679       6.74470190       2.71532456       0.00000000   -2302.84698380    2680.88229893   -4900.08412306
C       -0.53502718       7.06431279       6.47462068       0.00000000     169.22753838   -1311.81703298    -581.60161513
C        3.84158211       0.16618207       2.75092112       0.00000000   11304.99726088  -23584.42616989   12953.70251521
C        2.14746293       2.08491002       4.08162284       0.00000000  475555.42289482 -396458.93013669   -5672.46941247
B       -9.41471230      23.52639215       0.19588418       0.00000000    -447.10936390   -1209.20596075    -740.99824952
C        5.88080402       7.82975462       3.95491729       0.00000000      34.24954785     205.31048590     -23.82276488
C        7.37373441      -0.99998970       4.37746992       0.00000000     -54.50286545      14.53847524       0.01688824
C        6.35638457       0.06271306       7.22840827       0.00000000     -65.38794545      25.02775529     -46.10429571
C       -6.22383216      -0.40694207       5.00482548       0.00000000      77.22477160     -14.29621150      50.70367859
B        9.30216219      12.72589595      -0.61926248       0.00000000    -572.90020258     689.16222698    3600.56360855
C       -4.64830716      11.28128842       0.77394591       0.00000000     270.96183697    2079.28441718    -335.85436082
C       10.86738866      -0.98059649       6.07572315       0.00000000     574.80457117     978.72697302    -356.68928288
C        3.80042074       2.92087445       4.23060140       0.00000000    1649.30218934    7537.43605339    2250.40049837
C        5.94198586       1.43121855       6.14475754       0.00000000    -143.07106800      93.21180819       6.71781084
C       12.55020907      13.12409008      10.66510693       0.00000000       0.35324906       0.02880602       0.73279274
C        6.99970214      13.73563088       6.72562372       0.00000000   20349.34182753   -9331.94028980   60123.88323464
C       -0.04775326       1.20597726       3.34713973       0.00000000 -121588.42039021  141428.81440016 -125967.73330755
C       -0.34815332       1.82484067       3.22074042       0.00000000  131520.55663897 -303381.49299063   18524.93600744
C       -0.39300176       7.86941773       0.10588249       0.00000000      -4.57953275     -17.92348502      12.15221818
C       -2.61655544      10.01648658       2.73580836       0.00000000    2615.88474807   -4003.82622767    -989.07285016
C       -6.63116765      14.45507221      10.55217585       0.00000000      -1.79633606       1.67593264       3.68174276
C        1.72082985       0.82380423       3.06036806       0.00000000  -50715.15377165   43032.28442895   10731.04342130
B        0.95051919       2.43236306       4.37389305       0.00000000 -2255867.22530417 -3550392.44107300 6674233.60897260
C       11.49841174       7.14952342       3.17799218       0.00000000     412.82906285   -1698.83937599     451.68886037
C        3.63637213       6.24526337       1.73532494       0.00000000    -202.43404067    -467.17440865      18.59477852
C       -8.10109121       9.94703868       4.28780545       0.00000000    -812.44056141   -1076.91665068     515.79968405
C        2.55702583       1.68224153       4.19121870       0.00000000 -238254.39936494   68102.30597215   20527.12089197
C        6.57094992      -8.03417747       1.95665773       0.00000000    9604.17620164  -37578.29632195  -46222.79411706
C        8.68375355       5.91811637       2.15057979       0.00000000      15.51907468     -16.53564857       6.07519923
C       -0.42809075       7.25904235       1.19214449       0.00000000      -9.96499738      27.62328575     -35.62144738
C        3.65753072       0.61454486       2.33709214       0.00000000  -10199.63597912   19825.81504919  -21523.36450904
C       10.93094637       4.64821287       6.20802270       0.00000000   -1107.22016726    1588.25478711    1326.87319727
C        6.22892890      -1.62659835      -0.47293407       0.00000000       1.49222056       1.56052641      -0.61305866
C       -3.30540519       8.01186166       5.71306627       0.00000000      88.59027185    -170.62113141      45.77050354
C        1.32921853      10.88130608       8.58446631       0.00000000       4.51420658       1.17030716       3.68740764
C        9.16464286       2.86693570      11.16519173       0.00000000      -0.26561971      -0.38009005      -0.69018932
C        7.30371396       0.07204861       3.66689597       0.00000000    -145.15874933      63.97074319      -4.33599222
C        4.86078184       3.44613188       4.35704893       0.00000000    5611.38577596    1968.46136492     982.72297802
C        6.54395955       4.23708149       2.34283762       0.00000000      -7.66642839     -29.60746411     138.46032632
C        4.95586067       9.84418602       2.30310177       0.00000000   -2266.75485902   -5980.95930870   -1719.11530804
Zr       1.93780287       5.10339773       4.60268652       0.00000000 -430539.26661926  127570.37874521 -157320.46068374
O        2.99388790       6.30344730       8.96547542       1.00000000      -4.30856160      23.86577593      17.58366162
O        1.52234016       5.15019009       4.45496830       1.00000000  445896.00343601 -119501.83800487  173735.44257395
