53
Lattice="12.336457 0.0 0.0 -6.168228499999997 10.683685154694365 0.0 0.0 0.0 15.0" Properties=species:S:1:pos:R:3:forces:R:3 energy=-462.05437208931426 free_energy=-462.05437208931426 stress="-0.004567865569808712 0.002538307818863711 2.6740030997795813e-05 0.002538307818863711 -0.006835761794950399 -4.9926862288658346e-05 2.6740030997795813e-05 -4.9926862288658346e-05 3.332655374438669e-05" pbc="T T T"
C       -0.04285781      -0.10092557       3.70998368       0.02402010       0.00636803       0.01475332
C       -1.26085204       2.04661502       3.65991045       0.00220325       0.01103093       0.01108718
C       -2.49635215       4.18539062       3.69009616       0.00754407      -0.00105398      -0.00442254
C       -3.74597380       6.31569417       3.75760402       0.00625819      -0.00358778      -0.00809112
C       -4.99065277       8.44276595       3.77553346      -0.01233939      -0.01327304       0.01949057
C        2.42317419      -0.10430558       3.63302436       0.01005491      -0.00738956       0.01227521
C        1.20381119       2.02646254       3.78509138      -0.00226154      -0.01021097      -0.00119693
C       -0.05207745       4.16759666       3.92564149       0.01871524       0.00359757       0.01371127
C       -1.28504786       6.33195547       3.86604053      -0.01321665       0.00225875      -0.00509002
C       -2.51641038       8.45286899       3.68131814       0.00323666       0.00653284      -0.02383851
C        4.89484082      -0.09701934       3.45330021       0.00140133       0.00674419       0.02170825
C        3.68190508       2.01250488       3.56400665      -0.00668789      -0.00678008      -0.01885889
B        2.54553345       4.17259913       4.11830697      -0.00287542      -0.01344624      -0.00626471
B        1.25583806       6.41186257       4.10710877       0.00512483       0.00565413       0.00386839
C       -0.05527716       8.48210786       3.60666655       0.01231844       0.00176523      -0.00436172
C        7.36901919      -0.07576580       3.41527802      -0.02055105       0.00846554      -0.01907285
C        6.15126921       2.03573812       3.39392367      -0.00560286      -0.01557883       0.02475567
C        4.95693316       4.13928855       3.68993650       0.00741915      -0.00178065      -0.01505744
P        3.27099314       6.08447158       4.47262060      -0.01714895      -0.02035059      -0.00690541
C        2.42660634       8.52228437       3.70211884      -0.00133522       0.00029691       0.00038035
C        9.84663187      -0.07427227       3.57835255      -0.00908134      -0.01421260       0.00379039
C        8.61769086       2.05258335       3.46792182       0.00182257       0.01283533      -0.00817756
C        7.39106330       4.18103307       3.57895213      -0.01955696       0.00644826       0.01520967
C        6.11457231       6.29740201       3.87351200       0.01139244       0.01247916       0.01096081
C        4.87477702       8.44625906       3.87599778      -0.00747860       0.01098756      -0.02053157
C       -0.03157876       1.32605063       3.71591541       0.00485535       0.00821291      -0.00557294
C       -1.27480128       3.46488447       3.72475182       0.01449618       0.00942513       0.00284410
C       -2.50502057       5.61102519       3.77801143      -0.00012722      -0.00699530      -0.01410357
C       -3.75150297       7.73943704       3.75606932      -0.00299270      -0.00458316      -0.03175275
C       -4.98130367       9.86672051       3.71253687       0.01502223      -0.01149178       0.01755596
C        2.43272557       1.31598474       3.66120141      -0.00374885      -0.00799771       0.00624444
C        1.18723897       3.45147476       3.99103192       0.01604241      -0.00483468       0.00592289
C       -0.05516067       5.60038611       4.06185233      -0.01244984      -0.00165402      -0.02596822
C       -1.28241401       7.74885634       3.72726079       0.00411008       0.00812473      -0.00983315
C       -2.51114174       9.87243252       3.57615864       0.00951652       0.00653886      -0.00718725
C        4.91182426       1.31677452       3.42388356      -0.00443517      -0.00411048       0.02108926
C        3.74709865       3.41259476       3.69294210       0.02020315      -0.01652348      -0.00307389
C        1.19144149       7.83974101       3.71507628       0.00678177      -0.00470321      -0.00399776
C       -0.04133796       9.89405825       3.45435070      -0.00580574       0.00493305      -0.00793046
C        7.38223086       1.33863310       3.38413844      -0.00423187       0.01024261       0.01281410
C        6.17706855       3.45239693       3.50522105      -0.00546645      -0.01540381      -0.01669798
C        4.92482808       5.52593625       3.97432064       0.01806329       0.00098670      -0.01117881
C        3.61242687       7.80110336       3.98122230      -0.00390674      -0.00371733       0.00224068
C        2.44062368       9.92268794       3.51786322      -0.02554780      -0.00180710       0.00892162
C        9.84804089       1.34419985       3.54536659       0.00096427      -0.00495386       0.00085390
C        8.61999635       3.47298858       3.55289084      -0.00994428       0.01345305       0.01707300
C        7.36358319       5.59901077       3.73150622       0.00288475       0.00681189       0.02076956
C        6.11371484       7.72939948       3.87177210      -0.01298027       0.00498362       0.01932484
C        4.89252416       9.87657634       3.72155330       0.01672778       0.00702730      -0.00968653
Zr       1.48724936       5.10472464       6.00978165      -0.01460840       0.01660561      -0.00409052
O        2.43843930       6.03395809       7.29514322      -0.02311781      -0.00266684       0.01130238
O        3.09469355       6.66246795       8.33895231      -0.02605759      -0.07887187       0.05187620
H        3.14233844       5.98472131       9.05150447       0.03237765       0.08516905      -0.05788090
