53
Lattice="12.336457 0.0 0.0 -6.168228499999997 10.683685154694365 0.0 0.0 0.0 15.0" Properties=species:S:1:pos:R:3:forces:R:3 energy=-459.9614546203916 free_energy=-459.9614546203916 stress="-0.0033052781235083906 -0.0010413266261122434 -3.489292673864449e-05 -0.0010413266261122434 -0.003466044153278977 -1.5239490972368041e-05 -3.489292673864449e-05 -1.5239490972368041e-05 2.0099120923573806e-05" pbc="T T T"
C       -0.15231480       0.10957707       4.00312257      -0.00113253       0.00385718      -0.00349206
C       -1.40028555       2.23527258       3.92357126      -0.00251488       0.00067043      -0.00089170
C       -2.63870853       4.38506023       3.80825243       0.00053249       0.00567474      -0.00960359
C       -3.84633385       6.52443840       3.81941635       0.00110747      -0.00341065      -0.00254386
C       -5.08030163       8.65795486       3.97709495       0.00466500      -0.00831470       0.00715530
C        2.31861663       0.09977977       3.77122666      -0.00789778       0.00500322      -0.00642364
C        1.07195711       2.23348587       3.73967331       0.00204456       0.00460469       0.01068064
C       -0.22528750       4.35279027       3.59351797      -0.00301981      -0.00218401      -0.00463430
C       -1.38972201       6.51387500       3.55014337       0.00100349       0.00029562       0.01283396
C       -2.60632750       8.65349947       3.71377061       0.00637637       0.00728487       0.00093469
C        4.78777258       0.11471380       3.67182242       0.00367316      -0.00113351       0.00475959
C        3.54026618       2.26216431       3.55224937       0.00019400      -0.01148937       0.00218739
B        2.22435077       4.51141100       3.13067417      -0.00156846       0.00359343       0.01375356
P        1.38229596       6.34321627       2.87171181       0.00408480      -0.00749105      -0.00770109
C       -0.12368615       8.65125092       3.60592693      -0.00487376       0.01173361      -0.00371026
C        7.24712631       0.12045393       3.82450193       0.00506711      -0.00042078      -0.00036498
C        6.01847144       2.24699265       3.66248406      -0.00192659       0.00275989       0.00390239
C        4.82705661       4.39536289       3.62403861      -0.00100803       0.00273956      -0.00228083
P        3.35213451       6.29523698       4.79179127       0.00516421      -0.00948667       0.00221636
C        2.31679901       8.69180614       4.00652239      -0.00772406      -0.00805480       0.00053654
C        9.71504671       0.12153927       4.05672387      -0.00528023      -0.01098024       0.00680249
C        8.47533850       2.24858052       3.87773510       0.00002921       0.00023020      -0.00280983
C        7.25609295       4.38994389       3.77957310       0.00484302       0.00135089      -0.00049342
C        6.03459565       6.52549942       4.01210048      -0.00140933      -0.00078891       0.00073049
C        4.78266234       8.66268623       4.23596692      -0.00510593      -0.00398731      -0.00040112
C       -0.16903139       1.52188317       3.89899365       0.00111821       0.00527627      -0.00500466
C       -1.42449320       3.65357551       3.80713556      -0.00521320       0.00175683      -0.01636983
C       -2.62365455       5.80791115       3.72459246      -0.00022984       0.00241273       0.00195131
C       -3.84470471       7.94967502       3.83594835       0.00864422      -0.00274613      -0.00303038
C       -5.07858381      10.08255424       3.93195008      -0.00318560      -0.00295282       0.00410488
C        2.31020619       1.53242733       3.67423010      -0.00064576       0.00251056       0.00080867
C        1.03230167       3.65215869       3.57660948      -0.00780732      -0.00658565       0.00001826
C       -0.21338226       5.74307077       3.37311339       0.00713973       0.00686536       0.01509849
C       -1.37280601       7.94308047       3.58638041      -0.00005644       0.00092658       0.00218847
C       -2.61496502      10.07988430       3.71509300      -0.00195926       0.01038668       0.00537753
C        4.79004080       1.53901842       3.62274055       0.00126424      -0.00783803      -0.00286774
C        3.54870727       3.72205755       3.37620273      -0.00310116       0.00002366      -0.00884211
C        1.14207679       7.98673019       3.59872834      -0.01212367       0.01538164      -0.00474780
C       -0.14537744      10.08372444       3.70387904       0.00506010       0.00662485       0.00490670
C        7.24741315       1.53841656       3.79323373      -0.00323408       0.00223755       0.00348226
C        6.03938779       3.66883898       3.64358248       0.00161472       0.00465149       0.00689135
C        4.83670868       5.75673158       4.01823208       0.00202530       0.00525000       0.00309225
C        3.52390848       8.01001063       4.35105521      -0.00432456      -0.01174957      -0.00875649
C        2.31050394      10.10989408       3.98593774      -0.00311942      -0.01176355       0.00549416
C        9.70644123       1.53674884       3.97507497      -0.00130098      -0.00798960      -0.00180798
C        8.47515655       3.67290985       3.83470937       0.00696677       0.00212291      -0.00847112
C        7.26099364       5.81368116       3.86861439      -0.00033339      -0.00226839      -0.00508775
C        6.02564947       7.94867625       4.12134150      -0.00107010      -0.00548715       0.00475491
C        4.78383736      10.08935793       4.12061884      -0.00199667      -0.00140557      -0.00079328
Zr       2.73040776       3.80257668       5.42047684      -0.00308567       0.00003295      -0.00778455
O        4.18035000       3.29128996       6.43013170       0.01233975      -0.00448706       0.00212213
O        5.27221653       2.89642722       7.20014037      -0.00858031      -0.02641564      -0.01456960
H        5.03109995       2.00500582       7.54551514       0.01987089       0.04317277       0.00669916
