52
Lattice="12.336457 0.0 0.0 -6.168228499999997 10.683685154694365 0.0 0.0 0.0 15.0" Properties=species:S:1:pos:R:3:forces:R:3 energy=-447.0236057117823 free_energy=-447.0236057117823 stress="0.0032607271010661122 -0.0010183946683641968 -1.1778068791454793e-05 -0.0010183946683641968 -0.007477137099667945 -1.4629070030690062e-05 -1.1778068791454793e-05 -1.4629070030690062e-05 3.858240873138066e-05" pbc="T T T"
C        0.13463677      -0.02147780       3.89356256      -0.00063455       0.00293904       0.00101829
C       -1.07433737       2.15352277       3.62147930      -0.00144564       0.00856940       0.00441886
C       -2.29591403       4.28390771       3.62944445       0.00173521       0.00388142       0.00185615
C       -3.54105836       6.39768647       3.86819332      -0.00502516      -0.00292924      -0.00265706
C       -4.80069933       8.51526954       4.01674245       0.00223488      -0.01000271       0.00697984
C        2.60629954      -0.08170382       3.76586849      -0.00281005       0.00317896       0.00982515
C        1.39179224       2.04903116       3.59372504      -0.00240433      -0.01546479      -0.00956365
C        0.22270670       4.27937246       3.45987376       0.00017997      -0.01155029       0.01371890
C       -1.05046013       6.40368079       3.84108159       0.00326900       0.00267726       0.00631880
C       -2.31150970       8.51849034       3.86734158       0.00392636       0.00128525      -0.00366011
C        5.06536019       0.00389581       3.62982589       0.00739339      -0.00800432       0.00189724
C        3.77525963       2.02973268       3.29471220       0.01469920       0.00446304       0.00806116
B        1.51126850       6.47147988       4.15376369       0.00133820       0.00717429      -0.00372914
C        0.14201480       8.58795209       3.87029706      -0.00485934       0.00476627      -0.00345440
C        7.52793104       0.06033240       3.71685029       0.00272380      -0.00388567      -0.00784228
C        6.28130045       2.16691099       3.43944517      -0.00138827       0.00264634      -0.00268180
C        5.08429447       4.35105151       3.47098241       0.00396239       0.00789470      -0.00584555
P        3.49597598       6.22727294       4.58007679       0.01244781      -0.00897432      -0.00476588
C        2.59865991       8.67201690       4.10230288      -0.00766924      -0.00235589      -0.00275341
C       10.01535297       0.05421086       3.86815545       0.00006757       0.00458575       0.00784432
C        8.77565217       2.16924211       3.59437964      -0.00237397      -0.00538723       0.00039632
C        7.53987053       4.29033388       3.62690660       0.00253877       0.00061806       0.00728383
C        6.30666879       6.40224336       4.02009669      -0.00667351      -0.00037346      -0.00641935
C        5.06325711       8.56655271       4.18655978      -0.00187777       0.00287271       0.00288465
C        0.13886423       1.40122837       3.71283585      -0.00301529      -0.00063168      -0.01097631
C       -1.05781243       3.56673901       3.52490192      -0.00209725       0.00183374      -0.01096478
C       -2.28928640       5.69874991       3.77213245      -0.00021161       0.00286158       0.01068640
C       -3.55182423       7.81238039       3.93702203       0.00574848      -0.00541258       0.00959181
C       -4.80398582       9.92890503       3.92343925      -0.00405169      -0.00580485      -0.01182120
C        2.59865651       1.31925343       3.54911598       0.00504619       0.00130772      -0.00620691
B        1.47180960       3.43340546       3.04334491      -0.00980142      -0.00743602      -0.00035629
C        0.21621653       5.68121428       3.84082736      -0.00198180      -0.00447285      -0.00101064
C       -1.07075795       7.82450727       3.87143704       0.00284740       0.00474257       0.00130243
C       -2.31577608       9.93559719       3.76092169       0.00172861       0.00157298       0.00618231
C        5.04899659       1.43124998       3.42839677       0.00884028      -0.00698947       0.00025933
S        3.42374581       3.70982213       2.86878112      -0.01131717      -0.00073036      -0.00364286
C        1.38869623       7.95033611       4.01702610      -0.01025514       0.00406116       0.00134991
C        0.13264109      10.01000057       3.73459703       0.00519271      -0.00220522       0.00468284
C        7.52070284       1.47220052       3.56707970      -0.00600223      -0.00304575      -0.00063325
C        6.28361044       3.59013499       3.46253479      -0.00008815       0.00789837      -0.00157634
C        5.07393613       5.65192754       3.96058199      -0.00155191       0.00298746       0.00075407
C        3.80097410       7.95075993       4.34132113      -0.00328994      -0.00144321      -0.00350405
C        2.60170405      10.06711406       3.89731332      -0.00026535       0.00014171       0.00865366
C       10.01372784       1.46071117       3.68868149       0.00267485       0.00299483      -0.00493198
C        8.78728811       3.58641243       3.59666184       0.00245898      -0.00347827       0.00169414
C        7.54557362       5.69806483       3.84204153      -0.00772010       0.00173680      -0.01445314
C        6.29749626       7.82067671       4.12155209      -0.00194308      -0.00634516       0.01114025
C        5.06825046       9.99058981       3.99877509      -0.00073515       0.00706291       0.01293128
Zr       1.72586782       4.35790852       5.20858623       0.00284218       0.01836424      -0.00017450
O        0.54510298       4.48822590       6.63218864       0.00740280       0.01057924      -0.00274727
O       -0.38426154       4.61709642       7.65754259       0.01056916      -0.01527201      -0.00059982
H        0.14764474       4.56530318       8.48266925      -0.01037911       0.00649756      -0.01475998
