52
Lattice="12.336457 0.0 0.0 -6.168228499999997 10.683685154694365 0.0 0.0 0.0 15.0" Properties=species:S:1:pos:R:3:forces:R:3 energy=-459.02929107974023 free_energy=-459.02929107974023 stress="-0.005152194572091871 -0.0006110949580085377 3.1996893493680966e-06 -0.0006110949580085377 -0.00048794604136297165 -2.5705338371961688e-05 3.1996893493680966e-06 -2.5705338371961688e-05 -1.5030677040109416e-05" pbc="T T T"
C        0.00408988      -0.00197056       3.69185965       0.00117012       0.00867008      -0.00506950
C       -1.24324832       2.11622461       3.63312963      -0.00483101       0.00227626      -0.00113201
C       -2.47780485       4.26375591       3.56731313       0.00869060       0.00221952      -0.00011897
C       -3.70076996       6.41232643       3.57452482       0.00202435      -0.00374830       0.01160335
C       -4.92596826       8.55662664       3.65131327      -0.00119497      -0.00051821      -0.00348914
C        2.47044407       0.03556548       3.73549466       0.00412490      -0.00137983      -0.00213690
C        1.20401231       2.15795675       3.88821587      -0.00067523      -0.00236178       0.00005254
C       -0.05607145       4.20931376       3.89755938       0.00246617       0.00130733       0.00623432
C       -1.25271981       6.40163749       3.75948293      -0.00209650       0.00121004       0.00729978
C       -2.46671594       8.55606321       3.67394355      -0.00180001      -0.00125538       0.00635535
C        4.93223206       0.00955170       3.67947705       0.00139759       0.00129970       0.00063160
C        3.73099221       2.16403168       3.83112366      -0.00168628       0.00827119      -0.00180907
B        1.12712705       6.46486847       4.23944911       0.00168436      -0.00210548       0.00003645
C       -0.01136060       8.55709782       3.79826557      -0.00285503      -0.00696348       0.01078284
C        7.40971348      -0.01501959       3.65257216      -0.00580101      -0.00376789      -0.00221994
C        6.17660980       2.12904025       3.59759392       0.00163600      -0.00348408      -0.00588905
C        4.97681287       4.25316571       3.79245098      -0.00482281       0.00540869       0.00462549
N        3.78457544       6.41514196       4.05845599      -0.00202577      -0.01154352       0.00215595
C        2.49316925       8.52942003       3.86551368       0.00508751      -0.00395456       0.00315347
C        9.87451456      -0.02022148       3.65142917      -0.00067783       0.00090561      -0.00402115
C        8.63768715       2.12236442       3.53363284       0.00348724       0.00114374       0.01098018
C        7.40887879       4.27235674       3.53312843      -0.00076333      -0.00281839      -0.00834096
C        6.17841054       6.41520056       3.65972761       0.00003007       0.00147447      -0.00754755
C        4.94649191       8.52587386       3.74372501       0.00055758       0.00124756      -0.00497226
C       -0.00590788       1.42323642       3.71806288      -0.00436170       0.00521281      -0.00097010
C       -1.26208645       3.52699351       3.65235727       0.00301281       0.00085591       0.00831203
C       -2.47782826       5.69323780       3.60898364       0.00425345       0.00067346       0.00244440
C       -3.69640467       7.84074484       3.62336620      -0.00038805      -0.00528570       0.01247087
C       -4.92552625       9.98657753       3.69809960       0.00159731       0.00008885      -0.00867653
C        2.46968600       1.47081311       3.83831134       0.00266340      -0.00141062       0.00036826
N        1.10730109       3.51189692       4.11452230      -0.00106809      -0.00311405      -0.00272201
C       -0.06055373       5.64380004       3.96110897      -0.00171684       0.00259745       0.00942537
C       -1.23726719       7.83299767       3.74919301      -0.00264762      -0.00089779      -0.00684138
C       -2.46973525       9.98830184       3.69674980       0.00435149      -0.00014381      -0.00567864
C        4.94272657       1.43397352       3.67965757      -0.00149458       0.00426697      -0.01207406
N        3.82089357       3.52756178       3.97634209      -0.01538013       0.01147619       0.00270953
C        1.23320819       7.87882029       3.95196142       0.00348053      -0.00337953      -0.00236271
C       -0.00296545       9.97595870       3.69492968      -0.00518828      -0.00803885      -0.00560485
C        7.40635075       1.40917211       3.57116482       0.00315912      -0.00394235      -0.00063168
C        6.18633056       3.55120507       3.59677630      -0.00703260      -0.00088442      -0.01110217
C        4.95868189       5.71001227       3.83013319       0.00274939      -0.00009402      -0.00267948
C        3.73127283       7.79092359       3.89448779       0.00469391      -0.01181810       0.00073762
C        2.48199396       9.95057038       3.70808626      -0.00157495      -0.00141515      -0.00688713
C        9.86690847       1.40381605       3.58036322      -0.00144110       0.00208664       0.00363548
C        8.63427066       3.55042213       3.51115902       0.00751917       0.00268976       0.00439493
C        7.40460096       5.69738444       3.56562964      -0.00184580      -0.00207607      -0.00504438
C        6.18003055       7.83537096       3.67868811      -0.00186719       0.00224138      -0.00298048
C        4.93815766       9.95283052       3.68881860       0.00068479       0.00713044      -0.00068723
Zr       2.52273879       4.89935508       5.07726200       0.00881780       0.00134409       0.01233150
O        2.50582409       4.93358083       6.92863885      -0.00453401      -0.00351894      -0.00010376
O        2.42434209       4.90295235       8.32508445       0.00387299       0.00927104      -0.01393223
H        3.35933637       4.91021360       8.62178576      -0.00344186       0.00455114       0.01498403
