51
Lattice="12.336457 0.0 0.0 -6.168228499999997 10.683685154694365 0.0 0.0 0.0 15.0" Properties=species:S:1:pos:R:3:initial_magmoms:R:1:forces:R:3 energy=-450.3100937785615 free_energy=-450.3100937785615 stress="0.004626094755806295 0.0010250330615157984 -2.0878965120388565e-05 0.0010250330615157984 -0.011978903361387135 4.649562409052088e-06 -2.0878965120388565e-05 4.649562409052088e-06 6.116641695440639e-05" pbc="T T T"
C       -0.00137270      -0.03032590       3.61945381       0.00000000      -0.00019277      -0.00183309      -0.00100036
C       -1.21521333       2.13207980       3.81477736       0.00000000       0.00025941      -0.00142340      -0.00110373
C       -2.46863240       4.26338338       3.83599186       0.00000000      -0.00000390       0.00216460      -0.00059348
C       -3.72705092       6.37513369       3.74744359       0.00000000      -0.00032484       0.00032268      -0.00049039
C       -4.95766033       8.48508548       3.59619666       0.00000000       0.00033915      -0.00125723      -0.00018633
C        2.46080476      -0.10320888       3.57990422       0.00000000      -0.00084225      -0.00146140       0.00434389
C        1.28058379       1.95876239       4.05665951       0.00000000       0.00062111       0.00163944      -0.00047764
C        0.01570530       4.27657878       4.07497369       0.00000000       0.00256165      -0.00125101       0.00109531
C       -1.22375085       6.39818560       3.82017769       0.00000000       0.00072521       0.00144925      -0.00168172
C       -2.46607040       8.49390634       3.59671579       0.00000000       0.00033893      -0.00063098      -0.00190514
C        4.92356841      -0.02389985       3.49159137       0.00000000       0.00025440      -0.00070115      -0.00339915
C        3.67658141       2.05792495       3.71593165       0.00000000      -0.00065749      -0.00157158       0.00079367
P        1.60430943       6.39510671       4.33037459       0.00000000      -0.01317983       0.01156125      -0.00049206
C       -0.00224254       8.56738400       3.60087552       0.00000000      -0.00046178      -0.00037153      -0.00236502
C        7.38597355       0.05026828       3.42083780       0.00000000       0.00054422      -0.00198957      -0.00294536
C        6.13637443       2.13964619       3.59894128       0.00000000       0.00186173      -0.00045831      -0.00128052
C        4.81594497       4.21484151       3.87831380       0.00000000       0.00223304      -0.00266682      -0.00003222
B        3.52093917       6.47547806       3.77642564       0.00000000      -0.00004975       0.00800771       0.00208521
C        2.47087087       8.66623862       3.41346296       0.00000000      -0.00108411       0.00056534      -0.00448617
C        9.88262592       0.05368898       3.44736765       0.00000000      -0.00022815       0.00001353      -0.00044749
C        8.62995780       2.15846185       3.62926367       0.00000000       0.00098271       0.00127837      -0.00222255
C        7.34889705       4.25710315       3.77715051       0.00000000       0.00100232      -0.00013815       0.00004210
C        6.10385509       6.38135451       3.78606135       0.00000000       0.00151458      -0.00051518       0.00166754
C        4.92620043       8.55845936       3.46984298       0.00000000       0.00065281       0.00058013      -0.00135424
C        0.01475108       1.38343309       3.83939046       0.00000000       0.00028081      -0.00304962       0.00260020
C       -1.20922307       3.55202343       3.92240849       0.00000000      -0.00015993      -0.00039829      -0.00026671
C       -2.47295762       5.68110586       3.80596265       0.00000000       0.00053586       0.00338903       0.00078141
C       -3.71448034       7.78548961       3.64639523       0.00000000       0.00035420      -0.00186233      -0.00341215
C       -4.95278473       9.90177794       3.58209383       0.00000000      -0.00043900      -0.00222312       0.00259190
C        2.46779905       1.28980555       3.75820071       0.00000000      -0.00096997      -0.00156115       0.00166575
P        1.64162274       3.59159948       4.56241210       0.00000000      -0.00383736      -0.00534390       0.00890563
C        0.00380841       5.66982110       3.99153556       0.00000000       0.00114542       0.00163586       0.00052626
C       -1.22461355       7.81206677       3.67922495       0.00000000       0.00042589      -0.00009547       0.00004001
C       -2.46468531       9.90669604       3.52488937       0.00000000      -0.00020122       0.00010533       0.00059142
C        4.91980830       1.39636127       3.55579738       0.00000000       0.00056349       0.00058257       0.00001975
C        3.57291414       3.44645099       3.92024284       0.00000000      -0.00449133      -0.00695099       0.00697588
C        1.26719643       7.97035042       3.68283099       0.00000000       0.00004952       0.00226145      -0.00343057
C       -0.00774535       9.98781987       3.46755389       0.00000000       0.00005076      -0.00082566      -0.00253748
C        7.38767555       1.45779463       3.52823416       0.00000000       0.00152323      -0.00162225      -0.00292358
C        6.10070234       3.54533655       3.74564724       0.00000000      -0.00066604      -0.00022534      -0.00182958
C        4.82789765       5.66304545       3.92053784       0.00000000       0.00343789       0.00738502       0.00396409
C        3.67530923       7.92930841       3.44032918       0.00000000      -0.00018195       0.00134007      -0.00352354
C        2.46686401      10.06616061       3.35334378       0.00000000       0.00096736       0.00018615      -0.00054912
C        9.88389663       1.45807282       3.61767369       0.00000000       0.00036090       0.00053183      -0.00238641
C        8.61436285       3.56689839       3.75589255       0.00000000       0.00113143       0.00159710      -0.00195428
C        7.34810076       5.67777504       3.78956398       0.00000000       0.00070650      -0.00025204      -0.00000048
C        6.13316181       7.79248202       3.61868679       0.00000000      -0.00015601       0.00078254      -0.00054753
C        4.93532675       9.98890650       3.47818262       0.00000000      -0.00116282       0.00104750      -0.00270700
Zr       3.41104609       5.27906642       5.90829037       0.00000000      -0.11650933       0.00540654       0.33946899
O        3.81632736       6.23380476       7.35641549       1.00000000       0.01340958       0.00518455      -0.07898825
O        1.84351963       3.76431457       6.12665293       1.00000000       0.10696574      -0.01833832      -0.24663875
