52
Lattice="12.336457 0.0 0.0 -6.168228499999997 10.683685154694365 0.0 0.0 0.0 15.0" Properties=species:S:1:pos:R:3:forces:R:3 energy=-459.0379958961522 free_energy=-459.0379958961522 stress="-0.00473981227138794 0.0005344107014543923 -3.1764280738447086e-05 0.0005344107014543923 0.002159051949185436 -8.42107567712212e-06 -3.1764280738447086e-05 -8.42107567712212e-06 -1.5220118355701877e-06" pbc="T T T"
C       -0.00873652      -0.01483454       3.72448680      -0.00080459       0.00789275      -0.00804541
C       -1.25356621       2.10889197       3.66652803       0.00212571       0.00377539       0.00617306
C       -2.48445109       4.25837547       3.58283846      -0.00220831       0.00216032       0.01629027
C       -3.71234259       6.40002513       3.59963541      -0.00069250      -0.00764144       0.00112047
C       -4.93993596       8.54403534       3.68498733       0.00348299       0.00325953      -0.00088703
C        2.45439783       0.02558211       3.73221106       0.00209494       0.00353399      -0.00264453
C        1.19574730       2.10883173       3.83041656       0.00488077      -0.00763637       0.00326606
C       -0.08424286       4.26348198       3.78882535      -0.00463836      -0.00170337      -0.01740151
C       -1.26449326       6.40382008       3.61650822      -0.00629086      -0.00092891       0.00066296
C       -2.48503555       8.54804647       3.63589643       0.00329961       0.00083165      -0.00999153
C        4.92230999      -0.00721876       3.69348495      -0.00586854      -0.00825356       0.00777614
C        3.72484628       2.15564304       3.86832534      -0.00367679       0.00392346      -0.00151804
N        1.12399220       6.40771411       3.96450886      -0.00146202       0.01667150       0.00442842
C       -0.02389402       8.51844690       3.69759284      -0.00201488      -0.00449290       0.00494958
C        7.39441979      -0.04111646       3.69611637       0.00206028      -0.01122204      -0.00499018
C        6.17275802       2.10916353       3.70007694      -0.00629203       0.00332125      -0.00251694
C        4.96950195       4.21790220       3.89794840      -0.00355828       0.00205988      -0.01172688
C        3.76226251       6.38941326       4.05752996       0.00479502       0.00116503       0.00510382
C        2.44267186       8.48611916       3.83403000       0.00572185      -0.00449524       0.00506912
C        9.85426974      -0.04282698       3.71451064      -0.00410952       0.00490389      -0.00982975
C        8.62814485       2.10529690       3.63246925       0.00498901       0.00631835      -0.00147024
C        7.40258365       4.25081894       3.64428308       0.00698049      -0.00593544      -0.01140062
C        6.18589681       6.39446766       3.75202257      -0.00054936      -0.00282594      -0.01158302
C        4.93106993       8.51893018       3.78567446      -0.00923522       0.00261877       0.00151437
C       -0.01316161       1.41814731       3.73107231       0.00151762       0.00616789      -0.00161103
C       -1.25633482       3.53573424       3.64221066      -0.01057153       0.00023577       0.01456895
C       -2.48217503       5.68151355       3.57522974      -0.00301146      -0.00475998       0.00844304
C       -3.71354281       7.82937127       3.63101238       0.00443958       0.00046918      -0.00235578
C       -4.93922874       9.97829667       3.71293964       0.00017830       0.01044680       0.00702058
C        2.44903051       1.47317156       3.82096239       0.00727782      -0.00077941       0.00165424
O        1.12584289       3.52655088       3.91640810      -0.00265086      -0.01376331      -0.00753949
C       -0.04850602       5.68806244       3.77038816       0.00136016       0.00708813      -0.00202472
C       -1.25637457       7.82468937       3.63494933      -0.00280705      -0.00533250       0.00889505
C       -2.48622584       9.98052516       3.68651845      -0.00467746      -0.00204364      -0.00273711
C        4.93098670       1.42052979       3.74009213      -0.00664635      -0.00658631       0.00178172
N        3.79974050       3.51856400       4.06048003      -0.00161264       0.00422522      -0.00255508
C        1.19048560       7.77538243       3.82597028       0.00328840       0.01375902       0.00882555
C       -0.01157725       9.94407471       3.68924151      -0.00279238      -0.01111227      -0.00350773
C        7.39925625       1.38782068       3.66408148       0.00102438       0.00212204      -0.00277603
C        6.18466144       3.52332435       3.71809612       0.00031719       0.00553492      -0.00049976
C        4.95196802       5.67031206       3.91780093      -0.00077706      -0.00083593      -0.00088500
C        3.69550937       7.77940764       3.89504037      -0.00312788      -0.00428985      -0.00187519
C        2.45160321       9.91510510       3.73941929       0.00328894      -0.00971705       0.00652252
C        9.86327012       1.38970715       3.65867859       0.00265648       0.00311928      -0.00245767
C        8.62872623       3.53555419       3.59952931       0.00625178       0.00122510       0.00114059
C        7.40053371       5.68046533       3.65274465       0.00400138      -0.00960688      -0.00033520
C        6.16886804       7.81991383       3.73826972      -0.00327373       0.00003809      -0.00381193
C        4.92472571       9.94035227       3.73577390      -0.00379942       0.00409668       0.00956338
Zr       2.43078873       4.96617890       4.95620122       0.00970466       0.00430352       0.00741655
O        2.62295925       5.23773075       6.78654301       0.00005974      -0.00785090      -0.00730058
O        2.68285258       5.47895840       8.16925464       0.00931167       0.00487063      -0.00737188
H        3.52173118       5.05846705       8.45852177       0.00204031       0.00167518       0.01146346
