51
Lattice="12.336457 0.0 0.0 -6.168228499999997 10.683685154694365 0.0 0.0 0.0 15.0" Properties=species:S:1:pos:R:3:initial_magmoms:R:1:forces:R:3 energy=-1229100.8437452866 free_energy=-1229100.8437452866 stress="282.646815894672 51.370836880882784 -508.9238717719314 51.370836880882784 -415.57325726146144 -97.30423439958669 -508.9238717719314 -97.30423439958669 728.149885004707" pbc="T T T"
C        1.71394257      -1.16755587       7.27542965       0.00000000      92.16983569    -411.67546123     -55.88587517
C       -3.47785143       8.53905925       7.27687545       0.00000000    -137.07086453     122.84174594      15.63863094
C       -7.93430111       3.56719463       1.88020957       0.00000000      84.58844455     -39.49262259     701.02887096
C       -4.14679356       6.38646600       7.05216704       0.00000000  -12046.11091804    4247.63959098   -1279.95805672
C       -6.24030940      10.33801272       5.42965719       0.00000000    -428.05259715   -7016.77853593   -1398.03494012
C        6.65906711      -1.47006794      -6.28575761       0.00000000   -3473.56577799   17000.60043607    9359.63859319
C        2.74067500       4.07360768       4.49406000       0.00000000    6056.13528293    2904.08424655   -3286.94744328
C        0.91645549       5.69687428       4.02289135       0.00000000    7763.73099003    4783.56965617  -21376.41607727
C       -2.40724132       3.25152112       5.58219491       0.00000000  -18141.14716256   -7674.02272518  -11665.47254881
C       -4.15681166      10.46295032      -4.14585566       0.00000000       8.49492275     -21.35049676      21.64921606
C        7.30586956       5.59955347       4.21272512       0.00000000     -14.08713483      31.06198832     -13.70923707
C        2.51787715       6.47159903       3.50801104       0.00000000    2981.92296285    1586.13615768   -6919.72070891
C        2.66450882       9.13774473       5.01692606       0.00000000    1832.05347479    4152.74007824   -2726.92349130
C       -0.45608050       5.55945755       5.15032595       0.00000000   40282.98769905  -11790.44488009   28370.49336529
C       15.55706962      -0.38298064       8.57492310       0.00000000    2251.16262476   -4895.35584552     887.75373651
C        6.47276042      -1.15031260      -5.72483714       0.00000000      -6.13992084   14519.67872886    -379.40182644
C        2.47175716      -3.30557617       3.46037669       0.00000000    -104.42471051      73.76894494     -22.68333002
N        7.85360309      10.26527040      -1.18887991       0.00000000      -1.91311837      -0.76081558      -0.35548758
C        3.84025345       6.37029679      -4.24388510       0.00000000   12181.88326674    7764.76546023   13541.69033745
C       11.33339162      -2.14782585       1.90549595       0.00000000     -14.08638355     -12.12970745       5.40317539
C        6.56012855       0.85769738       3.07905308       0.00000000     -78.94450616      51.33542229     203.40567704
C        5.97983763       2.72396554      12.11082481       0.00000000      52.35118745    -151.52333263    -322.12518937
C        6.86299499       8.25744322      -1.22506965       0.00000000       6.80553472       5.98106645       4.56358863
C       14.71837637      14.34439664      16.86576103       0.00000000       6.31591750      31.82087793     -77.17138240
C       -2.76118803       8.60086801       1.28717134       0.00000000      -6.73223221       8.87492728      -8.61772466
C        1.56762482       5.24046722       4.83872066       0.00000000  -30194.02996125  -85849.93620723  325134.55581783
C        0.22046415      -0.04922565       6.10150500       0.00000000   -2947.24158544  -14511.11580428   -6706.10990113
C       -1.51460531       8.98884645       6.58210221       0.00000000   -6922.42258685   12767.18891882   -3100.10773496
C       -6.86604726       8.98558574       5.50200670       0.00000000     392.23249148     391.20415248     314.70587241
C       -0.30055019       2.31234589       4.16816209       0.00000000   -4161.85787095  -10904.59567821  -18707.39406017
C        2.60806595      -1.37947877       4.48553889       0.00000000     -27.08287530      -3.99993134     -14.93090056
C        5.88945588       2.99117676      -2.30252861       0.00000000     -49.06249283     143.94565942     325.22410427
C       -4.31324161       5.04104106      -0.63333184       0.00000000       2.62447205       0.08402893       4.36394492
C       -5.81399515       8.81230881       6.28612037       0.00000000    -128.64590994     339.44809737    -133.70783288
C        3.68692865       3.83388943       3.95087774       0.00000000    1906.70986403     913.03772669   -6381.69889528
S        3.44313559       3.65818488       5.96609413       0.00000000 -174718.63694586   83202.42931955   76371.37288037
C       -1.33170569       5.93674832       3.80193252       0.00000000   -8023.55174014    5881.84017012  -17788.84792325
C        0.72106796      12.73309002       3.21664602       0.00000000    -110.76226553    -100.93831852     -42.64553809
C        5.52073450       0.10055415       3.38986596       0.00000000      56.49939698     137.01622719     142.15707941
C        3.90658056      -1.56860540       8.17020173       0.00000000   -4438.71502945    6322.14985736     870.28694657
C        3.32585953       7.40212278      -3.03074003       0.00000000    1247.28843327     803.86203387    1426.11696766
C        1.52789506       1.80533192      -1.37628951       0.00000000      -3.91093410       4.19662342      -6.87903303
C        0.46679055      12.99736680       4.79645315       0.00000000   30615.14251007   27436.45359645  -16630.49547273
C        4.91835722      -1.42582441       3.53114843       0.00000000     -24.83194605      77.80623223      -0.91909274
C        6.30426109       2.02223552       4.98550799       0.00000000  -30499.92803931  -27712.92770356   16661.90339142
C        5.69889794       2.23236115       6.21112229       0.00000000    3992.30354885   -1885.94245009   -1700.99790265
C       12.11680603      15.98445036      10.40099369       0.00000000     716.88753928      89.71587408     395.14778089
C        6.50636177      14.07685866      -1.76190443       0.00000000     -64.47094418    -159.70912881     685.85405353
Zr       0.85702084       4.61627639       7.66862292       0.00000000 5583357.92594749 2314897.06908466 -7682614.90874134
O        1.22354107       3.07892865       8.30063627       1.00000000  134207.97309260 -341494.60480867   81581.48185395
O        0.92271588       4.62753751       7.56403939       1.00000000 -5533328.76298602 -1996055.04247689 7246338.63046323
