51
Lattice="12.336457 0.0 0.0 -6.168228499999997 10.683685154694365 0.0 0.0 0.0 15.0" Properties=species:S:1:pos:R:3:initial_magmoms:R:1:forces:R:3 energy=-566075.0745176167 free_energy=-566075.0745176167 stress="24.377642275298534 363.2512953788017 -78.47533560196278 363.2512953788017 403.60457780661045 -223.32269013811492 -78.47533560196278 -223.32269013811492 -274.517037761135" pbc="T T T"
C        2.56752599       2.71649059       6.09413902       0.00000000    3095.96511157   -7380.44738148   -1998.52356957
C       -5.15358944      -2.56251925       3.70343983       0.00000000    -638.79033934     943.22992659  -28061.73294620
C       -1.93474542       1.50685614       1.22096085       0.00000000       5.34510714       0.90013351      -1.70444434
C       -6.33211159       6.21859330       2.66152788       0.00000000     -49.23762415      39.64363565      74.49683303
C       -6.41223585       3.42882205       3.22550095       0.00000000       5.77483219     -26.27519405      -0.70299022
C       -3.38964312      -8.39243593       5.82915727       0.00000000     973.85550779   -2028.35847763    -714.88803195
C        5.41234837       2.26627942     -10.13002816       0.00000000     -79.37970114     165.09040664    -109.72752408
C        0.77763400       5.03132712       3.09767072       0.00000000    1193.63403523  -11032.47359434  -19126.38717083
C       -2.97501460       3.63905012       6.18846336       0.00000000    -843.07421610    -541.09138799     444.50395184
C       -2.80838611      11.22525723       8.65847111       0.00000000  -12632.77951779   13281.55276569    4742.16872069
C        5.28646053       1.10947459       4.03023416       0.00000000    -242.37341084    1027.99873868   -1973.33899998
C        5.65492285       3.18425014       1.21162565       0.00000000      -1.28218065      12.87664655     -15.93905410
C        0.87136706       9.17046802       4.57869012       0.00000000   -9726.39829758  -48135.46398570   88430.96309591
C       -4.43045448      -0.09368992      -0.03526631       0.00000000       5.17082056       9.22744136     -24.70075316
C        4.41841744       2.61430196       5.54930201       0.00000000     124.21226890    -247.34777755     -92.12920842
C        7.45781800       1.45473433       2.80155597       0.00000000    -459.98667822      97.39541253    -424.56624385
C        1.07162452       9.84170388       7.50587468       0.00000000 -144221.86708604 -371738.95031360  -13612.62442065
O       11.48809671      -2.48815555      19.27027641       0.00000000   -1461.77388336    -435.14773922     885.97104442
C        3.22795782       8.64352327       2.81410496       0.00000000    6107.15724486    2419.92931087  -10442.39732677
C        7.86240617       1.38483138       3.26899120       0.00000000     332.88202785    -142.66721593     618.74765856
C       10.68682294       5.19111010       6.58192545       0.00000000   52222.70434088   66409.03621764   56315.75895826
C       11.55316870       2.95276896       6.64250694       0.00000000   -8416.04983905  -15548.76212874    -810.81583941
C        3.04043489       8.37054997       1.90415271       0.00000000      27.32339853     -14.53946163     -49.41290170
C        5.99540299      10.51610296       0.04782882       0.00000000       0.75642112       1.23800124      -0.07625178
C       -2.33852952       2.10422362       4.67520378       0.00000000      64.77336516      -0.34129098      53.32625073
C       -6.77049282       2.43884410       9.20054311       0.00000000     -43.76824616      33.56005890      12.71755038
C      -11.54943734       5.53475001       1.40552301       0.00000000      -2.53710171     -32.46238726      -5.57282360
C       -6.05474164       6.62603471       7.94651238       0.00000000     213.79429044     -62.07018858     -72.29392383
C       -2.04713643      13.43020770      -0.00085340       0.00000000       1.40380660       4.54853271      -8.36236313
C       -1.31656411       1.30695609      11.13216934       0.00000000      20.03249668      11.55305615      20.49377900
S       10.91287698      -1.53078718     -11.20550275       0.00000000     899.07773673   -1547.74860575     287.87824316
C        3.75064864       5.45779926       2.14527143       0.00000000      28.42884750     -10.76378279     -10.84600553
C        5.24671999       6.18141762      -0.82514986       0.00000000       0.44304547      -0.63593240      -0.91895583
C       -5.03667803       7.53711190       1.00874749       0.00000000      -3.99869194      -0.72990318       6.11716466
C        9.83349677       2.57652223       1.80610545       0.00000000      -5.02195530      -4.54216991     -11.30443494
S       -1.04964063       4.68315241       0.15016606       0.00000000     -10.13935833       6.93720465     -24.99323043
C       -0.63288952      17.72189725       8.98014430       0.00000000   19621.27705032   -1948.22875207    6174.44728137
C       -0.58129779      11.02933935       4.46656351       0.00000000   -7215.64378675   21208.81935481  -16743.81173921
C        6.76458685       4.47263300       6.53425748       0.00000000     -79.60557360       5.44103116       4.89007170
C       14.78447900      -8.36051088      -8.27165306       0.00000000      98.47205636     218.73097408     -17.42750293
C        1.53176341       9.22407395       8.38750585       0.00000000  294661.09965489  573403.15898949  476670.91691515
C       11.16751273       5.41394046       7.26178245       0.00000000  308792.61931646  499575.46449368  140572.35736762
C        4.36971167       7.05426953       1.84161749       0.00000000      72.85146113     -16.74526098      14.62527836
C       11.78935778       1.65609742       2.30766852       0.00000000      -8.06650015     -13.09888716     -11.84332383
C        9.48495894       9.94562390      -1.82118841       0.00000000       0.09656054      -0.43387813       1.06267721
C        7.71155581      11.96924090       6.68552521       0.00000000      40.48786139    -165.31471302       5.07632839
C        4.03523827       7.30631287       5.29156292       0.00000000   38459.92620423   -6568.76050574  -25985.70273279
C        4.20273132      13.08324913       3.96513765       0.00000000      41.55024008     -35.09401735     -42.69996359
Zr       0.47297355       7.51404280       7.45289417       0.00000000  100330.40217426 -170715.51557815 2611195.77517361
O        1.44883372       4.40109511      10.61356299       1.00000000   13499.37042688  -26438.58639930   27996.90362146
O        0.45674895       7.50277367       7.46075765       1.00000000 -654799.11372353 -514043.73542196 -3294133.75328884
