51
Lattice="12.336457 0.0 0.0 -6.168228499999997 10.683685154694365 0.0 0.0 0.0 15.0" Properties=species:S:1:pos:R:3:initial_magmoms:R:1:forces:R:3 energy=-1899468.9128944846 free_energy=-1899468.9128944846 stress="330.0630749389843 -728.7202873890845 -127.73162972059689 -728.7202873890845 1053.8106375953469 -247.10704293353473 -127.73162972059689 -247.10704293353473 1119.5187445553602" pbc="T T T"
C       -3.46736832       2.65100089       3.66195218       0.00000000     109.38819679     164.67399902     248.29887560
C        3.71850372       2.96368834       5.58136173       0.00000000  -73038.54290200  531793.27315095  108862.48935629
C       -0.93480518       3.14855711       6.85532429       0.00000000  -17985.53544504  -11279.33947958    5817.38032610
C       -1.91267649       3.75007660       1.69429792       0.00000000    -159.98030378     183.24726514     203.63794062
C       -2.80101119       8.22646023       2.03795368       0.00000000      -7.94100861       7.03295440      -8.55608617
C        2.66086313      -0.89104370       4.15883856       0.00000000    -115.82468111    -155.90900510      -9.72784595
C       -0.26445267       3.34246016       1.42419091       0.00000000   -5538.82818546   -3221.21039272   -6239.08735953
C        0.32142562       5.00622384       3.35633986       0.00000000   80539.49835017   14983.78691142   66642.06621999
C        3.85630398       4.10766945      -2.93822145       0.00000000      -2.70688562      -4.49091668     -10.36984836
C        0.71537650       2.93436732       0.16124870       0.00000000    -105.86254887    -349.68599722   -2525.82402758
C        5.05188768       1.19461666       2.56757508       0.00000000    3399.36336568   -6981.58533977   -3954.75058622
C        7.61618504       6.20147629       8.77622844       0.00000000     709.92090758     112.85889845     500.89476233
S       -2.46462811      -3.34983551      -2.94544374       0.00000000      -0.25072236      -0.43035168       0.77606926
C        0.28086023       9.68896167       1.72102727       0.00000000      17.49854102     -19.81648494     -12.18742140
C        2.06632751       0.60646558      -1.18640113       0.00000000       0.88888379      -1.22607596      -0.16605472
C        1.01991017      -8.24132988       8.68437581       0.00000000      34.25099189     -12.61645587       8.96554924
C        4.20377268       5.53526778       3.22289109       0.00000000 -479353.46621887   13981.22701677  669220.48386682
C        4.12121940       4.66894555      -1.93801900       0.00000000       3.82574118       3.27485644       4.36032774
C       -4.45284485       9.12794446       7.96085453       0.00000000      -6.90818267     -15.11845951      -1.11779384
C       10.17626898       0.65492067       4.05173793       0.00000000    -147.60346036     -59.26301231     -70.96529179
C        8.43425252       3.43363757       4.85662959       0.00000000     676.90918565    -174.96396243    -137.15118415
C       11.06732748       1.47500267       3.43017468       0.00000000      67.19709838     274.79499564      76.01234387
C        4.51952510      11.65722180       4.68022961       0.00000000     261.35569572     450.47078263     286.61211941
C        1.71190851       8.03603004      -0.55127679       0.00000000      -3.18299919       8.81068230     -12.25635665
C        0.88092667       2.87060951       4.83789351       0.00000000   -2009.21796400    4597.33603324   -6908.15708156
C        2.19582276       4.45995354       3.52588576       0.00000000   37967.37330033  -41889.54512564   69591.69023254
C       -0.87630274       3.16410612       8.41882288       0.00000000  -11824.36268667   -7209.52310320    8155.76180646
C       -7.15319330      12.12993665       4.72426572       0.00000000   -4463.70917098   -3716.72128168    -884.92647673
C       -7.43783940       9.49160742      -0.22239475       0.00000000       2.72823163       4.83154602      -4.69969674
C        2.46949639       3.15249172       4.52300218       0.00000000   43445.85005624  613457.62092407  158433.09343864
S        0.73187961       3.01874336       0.80568762       0.00000000   -4547.80486315   -5317.84218008   -8427.30346288
C       -1.65398061       4.07307491       4.32663195       0.00000000  -23300.20144998   -9725.83264274   -2594.32115549
C        1.25113057      13.39558139       7.50780162       0.00000000     -30.58739338     -63.08348404     121.00014453
C       -4.16341277       4.07579283       8.03289469       0.00000000      21.63956611     -12.34156333       5.97526479
C        8.29181687       6.76174709       5.16216648       0.00000000    9018.65542848    2220.98790536    -360.58160338
O        4.73632945       0.92481752       4.23811838       0.00000000   14548.71120671  -37740.23260089  -12845.03708767
C        4.96305290       4.55654098      -0.79230362       0.00000000       4.54063915       0.57929936     -11.80297642
C        1.43106385      13.47891835       4.23147895       0.00000000    5958.08639088   -3363.73973373   -1068.64854524
C        4.02333894       0.67111822       4.64066985       0.00000000    3926.61026707  -12557.86563053     -10.23498898
C        7.94169428      -0.70116077       9.75051818       0.00000000       3.38398369      -5.96802925      -7.73387784
C       -5.14229046       8.50777794       0.52578172       0.00000000       5.03196151       6.92887991      -6.31924687
C        3.76248094      10.91470350       7.38833613       0.00000000      18.34612302     103.65876632      37.94251296
C        3.42314945      10.71907228       3.14350895       0.00000000      66.95194544     720.87636717    -302.74587502
C        9.98233088       3.46452721       4.89333630       0.00000000   -3438.44668616    -736.70096986   -1691.29039423
C       10.96837963       3.03433203       6.18241816       0.00000000  -15179.75447036   -8889.02405137    4086.17785230
C        9.09618578       7.63246921       7.93429934       0.00000000      -8.59755669       3.46169863       3.34566088
C        7.22633984       5.80268825       1.51427724       0.00000000     639.01489034      72.53454465    -618.14786479
C        3.50451275      14.69179473       4.48556152       0.00000000    1723.52527561     847.23699037    -957.23293971
Zr       2.88558837       5.45764200       5.37188347       0.00000000 6819351.15623387 -11895710.78797556 6651624.69265270
O        3.51301337       7.00848117       5.46768863       1.00000000  528158.86231162  695406.89458934  269499.32326701
O        2.95812965       5.37561852       5.44461470       1.00000000 -6909411.24898425 10169808.46524808 -7963749.63746015
