52
Lattice="12.336457 0.0 0.0 -6.168228499999997 10.683685154694365 0.0 0.0 0.0 15.0" Properties=species:S:1:pos:R:3:forces:R:3 energy=-459.0879691391512 free_energy=-459.0879691391512 stress="-0.004808293055232029 0.0005942730345247363 -2.1082463775340267e-05 0.0005942730345247363 0.0018425292973038908 -6.036037209542726e-05 -2.1082463775340267e-05 -6.036037209542726e-05 -5.15992837598848e-07" pbc="T T T"
C       -0.00107972       0.00017071       3.69047121       0.00292948       0.00060541       0.01394356
C       -1.24453455       2.12109387       3.67901183      -0.00075905      -0.00131073      -0.00284999
C       -2.47281747       4.26277965       3.60973604       0.00275423      -0.00433093      -0.00332157
C       -3.70061313       6.40662928       3.58300578      -0.00207761       0.00633798       0.01258911
C       -4.93080414       8.55423555       3.64074254       0.00114381       0.00520961      -0.00736790
C        2.46616926       0.03283590       3.71309362      -0.00965353       0.00035746      -0.00685572
C        1.20045414       2.16986606       3.83232260      -0.00263155      -0.00651909       0.00843626
C       -0.03748465       4.24907894       3.85760054      -0.00122157       0.00091479       0.00330028
C       -1.25384576       6.41039380       3.70726102       0.00337764      -0.00664458      -0.00700943
C       -2.47576582       8.55139729       3.66469320       0.00317113       0.00791699      -0.00924873
C        4.93084640      -0.00930153       3.70692002      -0.00692824       0.00009026       0.00643340
C        3.72953199       2.10800943       3.81160237       0.00756556      -0.00868911       0.00151784
N        1.11941129       6.41809845       4.09419145       0.00358755      -0.00207644      -0.01198868
C       -0.01548853       8.52147923       3.78302406      -0.00588333       0.00143298      -0.00047736
C        7.40193379      -0.03511396       3.73102812       0.00057445       0.00142101      -0.01975355
C        6.18169798       2.11130364       3.66293820      -0.00489776      -0.00178436       0.00071520
C        5.00900364       4.24825733       3.78537557       0.00467137       0.00596871       0.00873492
C        3.76950816       6.39906881       3.99208695      -0.01444637      -0.00131687      -0.00477911
C        2.45069071       8.49447126       3.87631462      -0.00031987      -0.00918312      -0.00430592
C        9.86077984      -0.03283838       3.71681109       0.00712234       0.00165452      -0.00063810
C        8.63475962       2.11321917       3.63192349      -0.00626580      -0.00259883      -0.00168633
C        7.41415359       4.26134593       3.58560084       0.00200383      -0.00882076       0.00824011
C        6.19387169       6.40301214       3.64631774      -0.00186504      -0.00037364      -0.00242248
C        4.93965270       8.53199041       3.73729725       0.00835005       0.00236175       0.00083863
C       -0.00639990       1.42977527       3.71824431      -0.00163084      -0.00533196       0.00108732
C       -1.25175486       3.54149027       3.68165636       0.00187403      -0.00112920       0.00171885
C       -2.47493706       5.68921543       3.61360175      -0.00197141      -0.00160186       0.00049866
C       -3.70436175       7.83572235       3.61888838       0.00358355       0.00997689      -0.00395639
C       -4.93026144       9.98589138       3.67968616      -0.00387879      -0.00184886       0.00044114
C        2.47320638       1.47954131       3.79444801       0.00210476      -0.00585035       0.00427299
N        1.12945822       3.53453062       4.00921534      -0.01121398      -0.00624372       0.00190192
C       -0.04048246       5.70550064       3.88465047       0.00374272      -0.00120274       0.00593586
C       -1.24770696       7.83120046       3.71453494      -0.00001105      -0.00319002      -0.00676885
C       -2.47674458       9.98649285       3.69383299      -0.00833828       0.00639822       0.00645900
C        4.93815131       1.42119961       3.71199271       0.00430729      -0.00724982       0.00966891
O        3.80483109       3.51954595       3.93679525       0.00755342      -0.00792457      -0.00905432
C        1.19802449       7.78481903       3.92241085      -0.00653055      -0.00300438       0.00234477
C       -0.00266021       9.94667369       3.73682830      -0.00511306       0.00469055       0.00384653
C        7.40027804       1.39668653       3.66428760      -0.00679263       0.00082099      -0.00122286
C        6.18924273       3.53191051       3.64134802      -0.00183485      -0.00199461      -0.00482140
C        4.95777511       5.67073620       3.79631388      -0.00545818       0.00767588      -0.00067100
C        3.70649659       7.78752956       3.87048102       0.00484525      -0.00333223      -0.00652539
C        2.45931033       9.92331069       3.77186608       0.00555547      -0.00451220      -0.00555007
C        9.86339466       1.39570337       3.66532937      -0.00333987       0.00426208      -0.00760675
C        8.63594075       3.54325627       3.58690328       0.00331538      -0.00664532       0.00874623
C        7.40685954       5.68685733       3.58351406      -0.00262083      -0.00511343       0.00564524
C        6.17641175       7.82861507       3.66317461       0.00448620       0.00257785       0.00330222
C        4.93236871       9.95267195       3.70884548       0.00792906       0.00527942       0.00570924
Zr       2.52701173       4.95353146       4.96312731       0.00596923       0.01783939      -0.00063057
O        2.57133090       5.15084480       6.81157015       0.01413084       0.01007852       0.00351729
O        2.45103423       5.24930866       8.20991953       0.00488243       0.01070470      -0.00181125
H        3.35215747       5.05429104       8.54861062      -0.00584703       0.00524777       0.00147826
