51
Lattice="12.336457 0.0 0.0 -6.168228499999997 10.683685154694365 0.0 0.0 0.0 15.0" Properties=species:S:1:pos:R:3:initial_magmoms:R:1:forces:R:3 energy=-2175867.4255748508 free_energy=-2175867.4255748508 stress="1313.5775970644524 670.5149491180738 492.8674289211828 670.5149491180738 419.6255349526852 308.61691763762406 492.8674289211828 308.61691763762406 368.3893687836517" pbc="T T T"
C       -2.32510592      15.31527961       6.72339874       0.00000000    1358.81740911     630.82096708    1387.99469333
C        5.13631217     -13.72547311       3.90044969       0.00000000      -1.50877215       5.28608027     -13.69662260
C       -0.02475283       7.68706162      -0.93272676       0.00000000      -3.13510585       2.40374036      -4.98941049
C       -1.87971748       5.99834097      -1.97140069       0.00000000       1.90796845       3.61033861      -0.76610795
C       -1.19218404       8.08900592      -2.72713383       0.00000000       2.69478597      -2.27864117       5.48436530
C        1.07438991      -2.01504229       4.87318801       0.00000000    2087.82747198   -5084.08003827   -6128.53827891
C       -9.78489586       2.12062994      -1.55087620       0.00000000   16854.55187484    4202.11744494   25473.55973027
C        0.97789275       1.68263567       2.29774799       0.00000000       8.60115120     -50.30582036     -92.89821377
C        4.53338417       5.75382987       4.80956431       0.00000000     -76.03133827    -101.85920028     130.46395666
C       -5.50981026      12.06046236      -0.11821938       0.00000000      27.94921563       7.88588005      10.22774765
C        1.83901507       9.58964252       4.85207735       0.00000000     -22.21314126      10.33152446     -15.19799186
C        5.30162398      -1.64260800       5.41579505       0.00000000      22.52021016       2.75303049      -7.66406225
N       -2.19087276       2.05321487       0.92619946       0.00000000      -0.47305572       4.19103103      -2.06634472
C       -2.13605876       3.51973369       3.86065075       0.00000000    -144.91210486     183.28280899     548.45776285
C       12.95296984       4.24089711       4.13081184       0.00000000      45.93118027     662.28470239   -1277.94153639
C        7.51224552       5.49534417       6.50991854       0.00000000      99.38200460     -30.31080670     -53.04395193
C        6.81024471       3.05161077      11.69440021       0.00000000     -16.47460115       6.16580374     -15.39123179
C       -1.85016612       3.23804713       5.17828967       0.00000000   -8769.30796357    8141.26456475  -13500.44568481
C        3.17429053       7.57483003       2.75734780       0.00000000       2.45128846       3.01512795      -0.98697682
C        6.46341662      -1.23390189       2.27052726       0.00000000      -1.77001927      -2.28719890      -2.68365014
C       12.94879975       4.60328175       2.46827861       0.00000000       1.10983852      -4.98531080       9.92729263
C        5.40214407       3.54270236      10.46510869       0.00000000     -70.46368942     -29.66153138       3.71713816
C       10.80397662       3.32960807       2.10550011       0.00000000     -33.64846451      -8.45918936     121.42000999
C        6.50741318       9.58314581      -0.39526444       0.00000000       0.83438060       1.78134521       0.50465895
C       -3.85281945       9.16490209       1.50075625       0.00000000       2.24253468       0.75713448       1.96012439
C      -10.07943624       7.70646407      -3.25776444       0.00000000      -0.72241073      -3.80726960      -1.38985736
C       -6.30301051      20.59369126      -1.79260371       0.00000000       3.51646129      -1.35180316       3.28588947
C       -1.95504484       8.47356054       2.89662115       0.00000000      -0.51209568       1.45173937      -0.12505742
C       -0.02333861       8.63535136       9.58441066       0.00000000       2.95824758       9.45261693      -2.78468581
C        0.80357153      -0.02524250       7.97252583       0.00000000  -21579.34845054   70446.56140378  191183.58372932
N       -5.76102885      11.41147768       3.38940429       0.00000000     775.25262057    -711.15947466   -5265.77717467
C        0.96179882       2.39952035       3.72938654       0.00000000     433.70642565     941.22678949   -4188.69624604
C        5.94083831       0.63008287       3.78329652       0.00000000    -247.05814556     401.62505502    -722.57062003
C       -0.06206618      11.03260658       4.29892625       0.00000000     256.65935840    -411.66041619     715.43587862
C        5.36488884       6.65636309       5.10460955       0.00000000       6.62759942     -14.35536869      12.74096947
O        6.55989407      -0.78297978       9.27429480       0.00000000   -1147.33277340    -490.44490956      58.96500910
C        3.51264241       4.35701985       7.02686418       0.00000000   11097.00377302    9050.62780189   -8742.77448569
C       -2.30180106       4.17486613       5.52931502       0.00000000   -2121.86982334   -1612.74726690   -4405.04068949
C       13.00045355       2.90271794       3.28763717       0.00000000      18.06440761     -26.18323486     154.40516304
C        5.15400320       2.57039171       3.93606877       0.00000000      -0.27890418       5.09243569     -18.87134720
C        2.62161449       8.95212254       5.67610102       0.00000000   -3501.84240013   -3377.11570500   -3746.97732445
C        3.47131731      -0.46470237       2.98264039       0.00000000      -7.19365683      -0.20605748      -1.40122872
C        6.22076436      17.17026338       2.50750010       0.00000000       1.75760158      -3.73613850      -1.54134569
C       13.45666184       2.74760330       2.48597588       0.00000000      64.57595363      97.44896086    -272.63602659
C        6.08719863       0.98585649       2.66979805       0.00000000       6.99120289     -12.40519295      19.90526740
C        4.43837183      -0.56991524       2.27920778       0.00000000       3.96427823      -6.10618322      -8.39716852
C       12.72196019       9.40875155       7.07555851       0.00000000      -0.98873542      -1.76716815      -7.12289420
C        0.72652942      10.75309653      -0.88839764       0.00000000      -2.70141910      -3.74199624      -3.55950269
Zr      -0.34715238       1.44821146       9.07612195       0.00000000 -712021.72485831  941349.93735807 -9106583.83979295
O        1.35690537       2.37818270       9.70737493       1.00000000 -1548923.44017883 -856233.52524572 -571267.40187672
O       -0.37737820       1.47051609       9.02918695       1.00000000 2265507.05286375 -167946.83451782 9506515.17800206
