51
Lattice="12.336457 0.0 0.0 -6.168228499999997 10.683685154694365 0.0 0.0 0.0 15.0" Properties=species:S:1:pos:R:3:initial_magmoms:R:1:forces:R:3 energy=-1713382.2829775766 free_energy=-1713382.2829775766 stress="500.27096149972493 259.59072404650476 989.750037704294 259.59072404650476 -2902.648103386357 -1152.428831353625 989.750037704294 -1152.428831353625 1829.9716133186841" pbc="T T T"
C       -0.59757057      -0.02844705       2.80461301       0.00000000    7333.68819951    8083.58334771   -1339.85279661
C        1.46204849       1.31253072       6.10240002       0.00000000    -311.40932524   -2314.49189495     518.96203168
C       -1.92279641       3.79150226       3.08533186       0.00000000  -17407.35046483  -12648.36784543   -6245.85034664
C       -4.78499119       6.22552137       3.37232745       0.00000000    7080.90997637    -598.18143749   -1470.62288519
C       -3.50267010       5.69436742       1.42514381       0.00000000     215.73754272     -75.48962225     178.44184046
C        4.33528902      -0.68735442       0.39580587       0.00000000       6.63896499      58.24070074    -118.63149138
C        6.84436549       3.64042344       1.83414778       0.00000000     362.38234236    -291.98936989    -525.26174247
C        5.28329670       3.05980109       3.99302076       0.00000000   15283.47508902  -17172.90886797   -2531.35996646
C       -1.14894258       3.27484410       8.53773785       0.00000000      13.08681183       0.75244880      -5.58835760
C        0.03526125       3.99022595       0.66211059       0.00000000   -9420.24261442  -12760.75438823  -17293.89079071
C        5.70113073       1.70381614       6.52945047       0.00000000     158.39176170    -185.74436383    -657.00822375
C        4.21939178       4.86077846       3.94141425       0.00000000  -64862.14290831   61989.00524861  -16326.30149347
C       -4.38039587      13.18713560       6.77874238       0.00000000   -1370.88354872  -19994.89596146   10673.80416110
C       -7.76398337      11.55314990      18.15372107       0.00000000    4591.99258239    8473.99192018   -2184.67903980
C        7.98828357       0.56507126       2.24745674       0.00000000   -1871.67973791   17414.81981245   -8055.58698758
C        6.94468224       1.91000468       3.55078113       0.00000000    -606.04670400    -799.91993420     493.67010816
C       -0.37668904       0.52367090       1.98467237       0.00000000      10.79382866       9.29414123      85.18074230
O        2.04198138       7.44154470       2.53610141       0.00000000  317070.76770671 -476549.05725964 1845333.55700488
C        1.42766981       8.42903358       3.96705603       0.00000000 -333724.97955567 1888257.94838525 -180800.59247725
C        7.05336369      -0.46819691       4.54623857       0.00000000   -5790.04246958   25897.56061350    1338.51541053
C        9.36378846       7.19814487       6.49818797       0.00000000   -9059.00184371     784.26236364    3402.98723630
C        4.77420949       4.80367504       3.59763820       0.00000000  -14886.15663184  -14617.56859824   11383.31907488
C        5.30527342       7.05662286       3.40175469       0.00000000   31366.53237444    3494.72837158   -3663.43027649
C        7.25510100       8.27581930       4.76029611       0.00000000    3675.68369948    1352.54890583    1340.75246697
C       -0.79837376      -0.28335933       3.60539636       0.00000000   11305.82237924   12257.61472894   -3577.46506229
C        2.83387134       7.38745871       7.85616810       0.00000000    8009.26336604      64.37926017  -24868.14626015
C       -3.83069041       4.26704590      -4.29872705       0.00000000       0.02026461      -0.05164491      -0.01764664
C       -4.58056132       7.26376488       4.40383705       0.00000000    3243.68248061     370.39019191     182.68329796
C       -2.71331477      12.38550059       4.03412251       0.00000000    4325.38653883  -16048.83636427   -2826.21652040
C        1.37711851       0.21549105       3.81802865       0.00000000     -12.64372519     -17.72435659      71.02074230
N        3.38102576       3.43526471       2.99723400       0.00000000   -5236.56677285   -1336.46635852   -1215.69386294
C        0.14674448       7.00394428       2.74228172       0.00000000  243044.22944142  -10837.78229172  221167.91212621
C       -1.95925884       4.71690109       2.78225768       0.00000000  -26690.20816562  -13931.43625991  -10928.83783800
C       -3.26626491       7.61386470      12.51831890       0.00000000      -0.04419824      -0.09536679       0.10693332
C        4.66495665       2.55259874       3.26673642       0.00000000   10972.18815359  -12137.42647278   -4033.90285686
N       10.15039575       1.41805045      10.68689710       0.00000000       0.51052043       2.14263771       1.32642160
C        5.33026763       9.22222322      -5.45532891       0.00000000      19.92123173      10.77608193       4.52222844
C       -0.29352710       8.79349421       2.34564936       0.00000000  -14678.16887664   24336.97903046  -15731.79603599
C        5.41303372      -2.04556574       7.47036481       0.00000000  -16159.31717110   10993.29650053   16439.19796867
C        6.43806968       1.63836622       2.24116301       0.00000000      42.35590967     -36.51038120     288.18143374
C        2.30818354       3.43410974      -0.39755269       0.00000000     -32.01814324      33.16637929      41.41678767
C        0.51713346       4.70042204      -0.42049573       0.00000000   -1325.74157648   -1639.66253908   -4063.42746322
C        0.18547599      11.27241908       4.78956003       0.00000000  -10879.91670887   22148.99037758    2728.55769264
C        9.87581944      -0.97417498       5.30052808       0.00000000    3237.81134407  -10970.01786634    7084.23896832
C        7.59098119       7.05315419       2.57972544       0.00000000    1592.14476326      12.45456333    -628.85753192
C        8.53552169       7.84457167       4.48909366       0.00000000     559.88018021     -98.94613716     -28.17615134
C        4.50789681      11.49123917      -1.01432280       0.00000000      -0.73043832      -0.80628065     -11.27819183
C        7.79456616       4.94524963       0.91026316       0.00000000      11.22272075     -22.28700816      34.76843303
Zr       2.13015735       6.79742155       4.50209891       0.00000000 12190005.82740280 -10115292.63221534 11561206.96839339
O        2.15052052       7.78503857       5.35609944       1.00000000  -89499.16374214 2099253.98929560 1674509.62260722
O        2.23135802       6.82260137       4.58979122       1.00000000 -12239715.89225451 6555079.13578002 -15049377.24181476
