52
Lattice="12.336457 0.0 0.0 -6.168228499999997 10.683685154694365 0.0 0.0 0.0 15.0" Properties=species:S:1:pos:R:3:forces:R:3 energy=-448.503620190638 free_energy=-448.503620190638 stress="-0.0010046943216234921 0.000755374621765489 -1.1702027652495058e-06 0.000755374621765489 -0.0018368851172475334 -8.590353071232522e-07 -1.1702027652495058e-06 -8.590353071232522e-07 -4.05921109538114e-06" pbc="T T T"
C        0.12163152      -0.02836873       3.87514759       0.00288609      -0.00454267      -0.00251499
C       -1.11614215       2.10465194       3.64975457       0.00002076       0.00037420      -0.00230629
C       -2.36844610       4.24566981       3.71790843      -0.00812807       0.00060935       0.00104978
C       -3.59790871       6.38099404       3.88925697       0.00759885      -0.00047206      -0.00278419
C       -4.81627731       8.51517980       3.97373681      -0.00026022       0.00015038      -0.00526339
C        2.59183664      -0.03018539       3.93711049       0.00627451       0.00456117       0.00601389
C        1.37165832       2.06615705       3.52591928      -0.00402292      -0.00009506       0.00079368
C       -0.00733594       4.25187668       3.10099123      -0.00191494       0.00027032      -0.00019185
C       -1.16707418       6.40500537       3.48817625      -0.00126648       0.00121508      -0.00042368
C       -2.34611507       8.51514816       3.83558270      -0.00676456      -0.00705422       0.00269192
C        5.05285774      -0.03160737       3.94623864       0.00119745      -0.00386425      -0.00827706
C        3.84616834       2.07542223       4.01367069      -0.00233633       0.00359973      -0.00155050
S        1.42143270       6.44855703       2.42913380      -0.00185647      -0.00482171       0.00303431
C        0.11179806       8.52926147       3.64005922      -0.00008803      -0.00191031       0.00682928
C        7.52221895      -0.02735453       3.91473529       0.00212637       0.00298882      -0.00144491
C        6.29638549       2.10282582       4.04707736      -0.00084524       0.00330264       0.00015891
C        5.08501299       4.23086437       4.14057865      -0.00073233      -0.00333066      -0.00108571
C        3.80120255       6.38540901       4.05334410      -0.00156130       0.00103194      -0.00638162
C        2.58783263       8.52869631       3.77520498       0.00195297       0.00042625      -0.00191116
C        9.99336463      -0.02389978       3.89986489      -0.00120867      -0.00020812       0.00528636
C        8.75781390       2.11229204       3.91268790       0.00127560      -0.00325758      -0.00647836
C        7.51495044       4.24568016       4.00481517       0.00340182       0.00575755      -0.00043908
C        6.27912967       6.37527918       4.05286734       0.00303859      -0.00146942       0.00377622
C        5.05296131       8.51449023       3.97348036       0.00156394       0.00420392       0.00143531
C        0.12412147       1.39481818       3.68119488      -0.00037543      -0.00473321       0.00180312
C       -1.16101703       3.51383290       3.50040053      -0.00656853       0.00347843       0.00246093
C       -2.37472232       5.67430655       3.71170050       0.00354309      -0.00054406       0.00407791
C       -3.58647913       7.80368189       3.90932641      -0.00421029      -0.00461908      -0.00314586
C       -4.81303630       9.94275870       3.93579285       0.00736080       0.00151046      -0.00134520
C        2.60653407       1.41240465       3.86543130      -0.00049992       0.00567597      -0.00419788
S        1.41949876       3.44920890       2.40100373       0.00303788       0.00122033      -0.00346012
C       -0.01115231       5.66721660       3.10613814      -0.00656217      -0.00129256      -0.00415583
C       -1.12394764       7.81502420       3.63160817      -0.00401157       0.00070305       0.00029788
C       -2.34633045       9.94459127       3.92538955       0.00060438      -0.00649699       0.00505580
C        5.06165036       1.39742033       4.02984706      -0.00274196       0.00011169      -0.00261228
O        3.88536329       3.47343467       4.18054252      -0.00638576      -0.00025867       0.00702505
C        1.36625342       7.88489724       3.44993386       0.00055534      -0.00076234       0.00075306
C        0.11957225       9.94277827       3.85978223       0.00380162      -0.00013129      -0.00387663
C        7.52037156       1.40039451       3.97911532       0.00026923       0.00243074      -0.00084488
C        6.28888084       3.51965522       4.08313484       0.00370859       0.00446378      -0.00063519
C        5.01857453       5.65123218       4.10694406      -0.00017980      -0.00431849       0.00784191
C        3.81118875       7.78404945       3.92464779       0.00355106       0.00226078      -0.00266520
C        2.58828604       9.95380715       3.88831621      -0.00041981      -0.00005074       0.00130973
C        9.99580344       1.40060885       3.83556012       0.00341098      -0.00153190       0.00343226
C        8.74640848       3.53543038       3.89726848      -0.00446747      -0.00310722       0.00142442
C        7.50227958       5.66610143       3.99739597       0.00842648       0.00521190      -0.00703675
C        6.28262541       7.79848652       4.01157957      -0.00008589       0.00069429       0.00350056
C        5.05411828       9.93957690       3.91967995      -0.00087554       0.00216814       0.00196493
Zr       2.18442131       4.92023837       4.41734184       0.00259113       0.00323426      -0.00357487
O        1.17231117       5.37346946       5.88508982      -0.00426532       0.00010007       0.00492878
O        0.28161759       5.79424369       6.88463900       0.00461396      -0.00381455       0.01093277
H        0.36518966       5.11564286       7.59267456      -0.00417647       0.00093191      -0.00927528
