51
Lattice="12.336457 0.0 0.0 -6.168228499999997 10.683685154694365 0.0 0.0 0.0 15.0" Properties=species:S:1:pos:R:3:initial_magmoms:R:1:forces:R:3 energy=-2649479.5046381294 free_energy=-2649479.5046381294 stress="1383.131982796841 -51.058193927672896 -627.7332417071669 -51.058193927672896 711.1578014659524 -66.02475677852654 -627.7332417071669 -66.02475677852654 2884.6403135703317" pbc="T T T"
C       -1.97399998      -0.57514419       6.83943368       0.00000000   -1776.79000116   -3380.65091155   -1400.64789136
C       -6.64603895       1.99529179      -3.94235253       0.00000000       0.07878456       0.71734997       0.31045285
C       -0.47436441      10.13168555       3.66405177       0.00000000     -16.65918463      -1.93475394       9.03327024
C       -5.49346057       5.40104163       3.10694776       0.00000000       3.74447542      -3.20159710      -1.74524088
C        3.92933488      10.61322301       3.27496796       0.00000000     -11.37741543       1.44087936     -11.73060338
C        3.08402964       4.53815828       3.89258711       0.00000000    3382.06750973    -380.74511135   -7780.69436084
C        1.64923912       3.80801728       5.70022755       0.00000000  -63428.72346628   19832.46433616  174937.88967650
C       -0.02209755       3.08958140       6.86281140       0.00000000   73848.90241258  198481.17731856  373989.96021152
C       -6.17680357       3.70623825       4.62633107       0.00000000      45.06746612     -13.51619062     -17.24943186
C       -8.95128737      14.29813286      -1.04069213       0.00000000      45.28769688      -1.85210274      -4.10741925
C       11.01855107      -2.81600632       5.57036327       0.00000000     -33.81800992      13.70819224      51.39303080
C        2.11266127       2.60352143       5.15786269       0.00000000   13357.49971863  -19478.55369927  -32305.53212633
N        1.04811423      -1.58464853      -4.91016736       0.00000000    1375.77922420    2928.88318711    -487.13371505
C        3.69020542       6.97591061       4.19360595       0.00000000      26.92426632      78.76038154      22.26578842
C       11.55158295       3.52499060      -1.13407265       0.00000000    -138.61983201   -1240.22782873   -1998.79791554
C        3.76625170       8.27110740       5.23974131       0.00000000     -26.33012876       6.02666603      26.37190462
C        1.88787095       5.64763436       5.83862978       0.00000000  -16059.15399181  -17864.20999519   41136.18483573
C       -1.28559826       5.38164851       7.93464396       0.00000000  802449.74766506 -472124.00347248  235389.24452282
C       13.44132679       9.44160909       6.65488478       0.00000000     339.55580054    3056.23294342   -1219.86470385
C        9.11089409       2.57184331       2.96554727       0.00000000     -18.30214784      -5.27290521     -16.76735483
C        9.44829266       1.62853145       2.09639288       0.00000000      -2.14198140      -7.32574042       3.79419159
C        1.73707357      10.43380767       4.66220299       0.00000000     -76.39636566      -4.08668584     115.32911614
C        7.00746602       8.58558591      10.17400204       0.00000000   -1351.28112224   -3328.59134575     435.70457269
C        7.80354898      -0.76894660       8.87239448       0.00000000     107.90905703     517.33938448       3.73988786
C        0.69892532      -1.82690368      -3.44947371       0.00000000     -15.04188089      18.11999358     124.08842720
C       -3.77739632      -6.56118213       0.43796433       0.00000000       6.75902730      -0.32900586     -18.47822237
C       -1.52730690       5.25295266       2.86890491       0.00000000     -66.37836969      41.34342439     -88.91821455
C       -3.04100994       9.36401896       0.96641593       0.00000000      -2.40836274       1.54665811       0.23382590
C       -7.11210498      10.20881893       5.66527846       0.00000000    -387.06180327   -1250.05190971    -837.44852531
C        0.30260110       4.41211528       3.20947272       0.00000000    -409.16478701     409.45048358   -8455.90484718
O        8.32936388      -4.20235721       3.58409380       0.00000000    -633.67499388     484.43616304    -109.50414946
C       11.16020682       8.61786577       4.49972062       0.00000000     -19.36211083      51.55408771     -37.38074662
C      -12.09194227       9.37047750      -3.28485453       0.00000000     -26.84165835      60.82275902    -112.13086291
C        0.39336084       9.11430339      12.42713895       0.00000000      25.75115033     -44.11568974     122.79733630
C        5.24097057      -0.06435906       7.25819963       0.00000000      -7.24385209       0.44793816      -1.23600409
N        0.96252836       3.51413993       6.24594143       0.00000000 -301153.93964005   46485.84182957 1176891.75170626
C       -1.98912966      12.75112513      -0.44803467       0.00000000       2.18265264       6.05260157       1.28089293
C       -6.40346392       6.00858337       0.22098899       0.00000000      -1.32658959      -2.56870463       0.22409728
C       11.00589886      -2.15909642       4.96650005       0.00000000      86.06141591     212.89098339      10.69616982
C        2.41240525       4.72578551       6.30620984       0.00000000 -209249.14180057  -59302.98520744  265533.50719818
C        2.52964697       9.49908573       8.48721918       0.00000000    1469.94421869    3832.49647663    -255.98253399
C       16.22605900       9.89018735      -5.39901876       0.00000000    -991.96688435   -1711.60029878     288.08015687
C        4.39991059      18.17085883       2.19007760       0.00000000       9.89424321     -11.23849028      29.03979153
C        8.36943400      -0.31091277       4.02224369       0.00000000      90.04309081      -9.37337677    -104.99925274
C        4.98727594       3.82751602      -0.23951093       0.00000000      -2.86861183      -2.67948873       0.43761548
C        4.51416384      -1.32718405       8.71341734       0.00000000   -3262.40158138    7840.11790805    -223.94750408
C       11.08863230       6.87671040       4.16542152       0.00000000   -1945.67383374    2888.26671333   -4912.00422884
C        7.18627658      10.66215604       0.76943112       0.00000000       7.18340853       2.33796376      13.04638481
Zr       0.54274700       4.18891976       8.78220470       0.00000000 -11170373.87340327 -3909117.03036752 10155102.34836336
O       -0.35710799       3.02236344       8.27723146       1.00000000  377244.46603010  460668.28883830 -358231.54764701
O        0.51153149       4.14999426       8.85619656       1.00000000 10497563.11449611 3741365.37941860 -12005604.99992543
