51
Lattice="12.336457 0.0 0.0 -6.168228499999997 10.683685154694365 0.0 0.0 0.0 15.0" Properties=species:S:1:pos:R:3:initial_magmoms:R:1:forces:R:3 energy=-2152356.279551582 free_energy=-2152356.279551582 stress="-650.8327809321011 -1009.4069832473665 13.80568217851836 -1009.4069832473665 -2531.635702895567 -879.6357711919791 13.80568217851836 -879.6357711919791 -1303.5303604685967" pbc="T T T"
C        2.93055897       6.71054973       4.43559512       0.00000000      77.49728250      22.39733793      13.44848796
C       -0.76152071      -3.28402324       0.47380104       0.00000000       3.64577337      -3.48673146       1.91938145
C       -1.56060078       1.74279348       1.46629653       0.00000000    -341.91291145      30.23209558    1092.82521510
C       -7.66937542       4.31175144       5.14779045       0.00000000    -527.44207234     674.34579203    -283.75868819
C       -5.43440971       5.99496175       1.70520740       0.00000000     -13.90142324      13.59309055      -6.27712302
C        1.42796055       0.30494559       7.22435359       0.00000000    8050.35624965   -2113.13011717    2948.73084141
C       -3.04042710       4.00790512       2.58137183       0.00000000     349.70098452    -562.27780267     265.22786174
C        1.92159383       5.39257704       5.27383277       0.00000000     -11.64563116     108.94500877      79.08317107
C        7.65307687       2.24532365      -1.19494590       0.00000000    -331.87144343    -990.03576952   -1473.07009002
C      -11.80407804       1.39671198      -2.83454173       0.00000000       1.11984134       3.28627592      -2.18698838
C        2.17011615      -4.31629143      -1.88488722       0.00000000    -294.57411410      -1.88585401      67.44278468
C       10.10581573       1.83735937       3.56778800       0.00000000    1834.49622212   -8215.46461230    1548.10379675
C        0.73219427       7.82313726       4.23744792       0.00000000   -3132.31644151    6829.58161233   18863.26879915
C        0.52235449      10.59440589       3.68715137       0.00000000    -685.83566244   -2315.02995449   13596.00810033
C        7.48017686       3.34489869       8.30469545       0.00000000   -8153.11204128  -36663.91279838   10333.90096950
C        8.36763391      -1.16459599       3.67841922       0.00000000    -956.86314395     214.94246766    3792.09929801
C       -3.19726802       5.85476841       3.92983866       0.00000000       2.74996680       4.63525957      11.33200317
C        2.42937564      10.09179243       7.59757382       0.00000000  686112.15323220  256661.62298737 -516855.61458240
C        0.48728091      11.45814674       8.14555063       0.00000000  220550.32329827 -291095.88698294  -15755.19749784
C        8.86839173      -0.15206105       3.67911781       0.00000000     852.41362079     989.90678307    1801.01070437
C        9.76555769       2.24346982       3.58373386       0.00000000   -2919.50633301   10487.78783529     397.51114008
C        9.39653456       1.96515206       4.28956291       0.00000000    1990.07313343   -3496.85846804   -3362.11507703
C        8.80273386      -1.66218092      -0.42798638       0.00000000     -25.98580154      17.30428963    -125.73340675
C        3.57395379       9.21195651       3.46316719       0.00000000    1176.47451077      59.64317723    1341.74883659
C       -0.01763083      -3.50287246       5.61118113       0.00000000     -26.37047179      20.36933472      13.37952648
C       -2.63519688       5.34361245      -1.42121572       0.00000000    -316.05255782    -391.53510410     224.66030384
C        1.80430604       6.76002380       2.98867411       0.00000000       6.15560485     -68.96148968     -53.32876043
C        0.67548877       5.46326436       5.14508413       0.00000000    -189.06653715    2191.57230545    2119.24109703
C       -0.63011408      13.81204116       6.09319201       0.00000000    8124.75816644  -22680.21218112   31256.48421626
C        1.87249740       1.34720477       0.67547995       0.00000000       9.96836227      -1.34146881      -6.22360745
C        1.93193490       5.84260741       9.78953889       0.00000000  -18158.41735012   44198.33402055    1902.92059781
C        8.63921165      -0.18618271       2.96388401       0.00000000    -504.31612394     608.48455611   -1232.38547449
C       -4.91794985      11.23646086       6.27559175       0.00000000     -22.27120465      -4.96600034      -0.25326172
C       -0.15531926       9.43331446      -0.51575672       0.00000000    3328.56691391    1297.05574175  -31350.13696253
C        3.75350235      -4.68140980      -0.67694530       0.00000000    -285.41474580     -85.62651941     704.83191122
C        0.92974079       7.94826794       9.00459859       0.00000000  259439.53780513 -1375754.72491133   54927.28994228
C        1.32724533      10.79658223       7.80433817       0.00000000  387980.25478503  541931.34125521 -514231.90302661
C        2.04535798      11.95573754       4.59500565       0.00000000   -7709.22365712   -6607.14809565   12144.91429242
C        9.47671233      -0.65170404       4.40639278       0.00000000   -3171.30931839    -176.90765022    2991.97988289
C        4.15646416       4.55265113       2.34226900       0.00000000       1.38422607      -0.96453193       2.83457852
C       -1.26173905       6.49046587      -2.74425899       0.00000000   18466.83781218   37378.36765017  -35650.61115453
C       -2.71218281       7.64371066       5.06077711       0.00000000   11905.86405018    7633.20043282   15468.58534942
C        2.33525641       8.95113697       0.63083905       0.00000000       6.95319149     -29.73221095     -20.57041872
C       12.07035075       2.38470002       5.98076222       0.00000000    -144.22045573      -7.95381813     -72.09059598
C        9.99194038       2.60006028       4.23499827       0.00000000     949.09291718    1295.96362995    -998.09434124
C        6.94439288       0.70653656       0.05686546       0.00000000     -14.09143353      -9.51236949    -128.39904675
C       11.58900799      13.87331662       5.55465450       0.00000000   -2134.84983665   -2935.82426579  -12888.33348944
C        3.83906763       9.57409715       3.89541133       0.00000000    -347.74550550    -237.00365521   -1074.29532725
Zr       0.31890718       9.66341007       9.20553393       0.00000000 4388875.03126686 -7309946.36342101 -5819570.88960258
O        0.76110225      11.08627805      10.46535418       1.00000000  841146.04776132 2227350.46536210 1810557.22019482
O        0.45955392       9.64327556       9.08781282       1.00000000 -6790823.14076101 5924373.36848240 4966673.46523899
