52
Lattice="12.336457 0.0 0.0 -6.168228499999997 10.683685154694365 0.0 0.0 0.0 15.0" Properties=species:S:1:pos:R:3:forces:R:3 energy=-461.719315171087 free_energy=-461.719315171087 stress="-0.005703257213770016 -0.0003704528347189661 2.828736578348704e-05 -0.0003704528347189661 0.002236447550996732 -2.7874082010924393e-05 2.828736578348704e-05 -2.7874082010924393e-05 -2.0201958750705476e-05" pbc="T T T"
C        0.00719225       0.00307115       3.69592661       0.00010264       0.00543932       0.01922504
C       -1.24313300       2.11751839       3.66461315       0.00040217      -0.00250078      -0.00474259
C       -2.47643538       4.26169554       3.57819614       0.00361691      -0.00220490      -0.01020396
C       -3.69802107       6.41257546       3.55673633       0.00100936       0.00859214       0.01278709
C       -4.92323876       8.56168819       3.63685312      -0.00148332       0.00070464      -0.00594416
C        2.47341956       0.04306816       3.73934380      -0.00585625       0.00388668      -0.01311049
C        1.20886155       2.16664551       3.87253277      -0.00500557      -0.00067452       0.00254592
C       -0.04756863       4.22994668       3.85207786      -0.00040515      -0.00000702       0.00204168
C       -1.26183308       6.40959049       3.69166163       0.00500838      -0.00482864      -0.00831194
C       -2.47001914       8.56120218       3.65595880       0.00150881       0.00791679      -0.00839826
C        4.93834805       0.00342692       3.70578975       0.00430016      -0.00371466       0.00587839
C        3.73590069       2.17263040       3.86787146       0.01075861      -0.01217335      -0.00200646
C        1.14322859       6.40468952       4.07654266       0.00569021       0.00112540      -0.00207204
C       -0.00418790       8.53304687       3.76633370      -0.00961460       0.00374110      -0.00087212
C        7.41288850      -0.03350541       3.70069016      -0.00163732       0.00461536      -0.00823022
C        6.18320666       2.12086430       3.64957800      -0.00548588      -0.00395792      -0.00454489
C        4.98426370       4.25088927       3.82052936       0.00175341       0.01294200       0.00873986
N        3.82216944       6.41731888       4.05628429      -0.00677702      -0.00463569      -0.01281490
C        2.48779943       8.49380022       3.87117098      -0.00394548      -0.00398447      -0.00542743
C        9.87130381      -0.03318229       3.69734804       0.00631869      -0.00242725      -0.00657001
C        8.63889806       2.11375476       3.59199572       0.00207072      -0.01019551      -0.00000488
C        7.41388761       4.26569763       3.55088648      -0.00138892      -0.00536163       0.00591580
C        6.19233434       6.41486154       3.64421173      -0.00131303       0.00004158      -0.00338299
C        4.95329811       8.52742614       3.73735431       0.00761231       0.00143840       0.00407783
C       -0.00309152       1.42960438       3.72904235      -0.00116212      -0.00214388       0.00135293
C       -1.25750320       3.53458418       3.66133991       0.00303380      -0.00070520      -0.00017931
C       -2.47441742       5.69273829       3.58762695       0.00161491       0.00283114      -0.00153854
C       -3.69565780       7.84299810       3.60620437       0.00400667       0.00382430      -0.00660460
C       -4.92228644       9.99342051       3.69101217      -0.00265826      -0.00624654       0.00213756
C        2.47323322       1.47982327       3.84573346      -0.00353043      -0.00226509       0.00300563
N        1.11931492       3.53301512       4.04713059      -0.01041072      -0.00573534       0.00417322
C       -0.03142666       5.68545315       3.87320886       0.00463923      -0.00135545       0.01280022
C       -1.24258224       7.83512918       3.69642994      -0.00197932       0.00158312      -0.00600622
C       -2.46782349       9.99160347       3.70082931       0.00128865       0.00810607       0.00306895
C        4.94698975       1.43114816       3.72429274       0.00485326      -0.00939500       0.00614648
N        3.82508772       3.53886973       4.03307027       0.00516288      -0.00712433      -0.01408272
C        1.22831296       7.78837674       3.90586306      -0.01107893       0.00434861       0.00871115
C        0.00448638       9.95354273       3.71612728      -0.00099961       0.00291535       0.01200099
C        7.41046821       1.39522472       3.63053434      -0.00379680      -0.00277841       0.00401894
C        6.19264455       3.54376832       3.63167490      -0.00636994      -0.00012050       0.00126844
C        4.98315246       5.70805587       3.83040767      -0.00173544       0.00709002      -0.00401659
C        3.74349292       7.78669284       3.89091561       0.00487615      -0.00804646      -0.00867918
C        2.47807850       9.92106817       3.74975665       0.00143678      -0.00014919      -0.00390412
C        9.86738266       1.39586279       3.63707307       0.00443561       0.00084573      -0.01048847
C        8.63796560       3.54402110       3.54505193       0.00465517      -0.00748187       0.00976501
C        7.41411625       5.69316595       3.55715344      -0.00534784       0.00022305       0.00091875
C        6.18616600       7.83762232       3.66058246       0.00075601       0.00061552       0.00763120
C        4.94082360       9.95325836       3.70273036       0.00238901       0.00861580       0.00676342
Zr       2.45616544       4.97162446       5.00714566       0.00924256       0.00499532      -0.00973133
O        2.36416107       5.05608157       6.85579200       0.00896103       0.00701410       0.01336226
O        2.24614194       5.07204395       8.25500103      -0.00902524       0.00345084      -0.00063759
H        3.17221151       5.02928335       8.57914904      -0.01049691       0.00331125       0.00416928
