52
Lattice="12.336457 0.0 0.0 -6.168228499999997 10.683685154694365 0.0 0.0 0.0 15.0" Properties=species:S:1:pos:R:3:forces:R:3 energy=-456.549517743832 free_energy=-456.549517743832 stress="-0.00540890259017264 -0.00024656488190033244 2.895918159948834e-05 -0.00024656488190033244 -0.0034723942147775054 2.039584625600687e-05 2.895918159948834e-05 2.039584625600687e-05 -1.2466637715276862e-05" pbc="T T T"
C        0.04869747      -0.04069365       3.68056830       0.00612970       0.00378110       0.00359451
C       -1.18712131       2.08312313       3.65833231       0.00228018       0.00497373       0.00477315
C       -2.41769681       4.21963050       3.50769362      -0.00054181      -0.00075978       0.01105708
C       -3.65832816       6.36403587       3.46037811      -0.00130767      -0.00279404       0.00418417
C       -4.88382833       8.50834133       3.55335782       0.00244620       0.00656555      -0.00448849
C        2.51105905      -0.04987812       3.68989866       0.00136881       0.00253911      -0.00238661
C        1.27173375       2.10752805       3.99514540       0.00119533      -0.00108475       0.00243983
C        0.03465796       4.21059010       3.82587322      -0.00683336       0.00407936       0.00675040
C       -1.20886093       6.36926115       3.45775066       0.00231912       0.00160770      -0.00014744
C       -2.42699587       8.50770143       3.44981309      -0.00325013      -0.00332255       0.00339259
C        4.98759745      -0.05889674       3.61975566      -0.00083574      -0.00222278       0.00380555
C        3.76744291       1.96424080       4.17289424       0.00386692      -0.00692566      -0.00224665
C        1.20149914       6.40284385       3.75008939       0.00838822      -0.00532676      -0.00435656
C        0.03968856       8.50090063       3.48201922       0.00233359       0.00701820      -0.00203778
C        7.45544274      -0.05731219       3.58036484       0.00474373      -0.00089430       0.00230494
C        6.23252801       2.07594693       3.79606186       0.00006243       0.00887115       0.00118670
C        5.11480470       4.26565917       4.20915887      -0.00576290      -0.00369006      -0.00238593
C        3.82384425       6.40612488       4.27667696      -0.01079793       0.00053051       0.01139694
C        2.52494335       8.49374456       3.72617922      -0.00666733      -0.00489849       0.00385661
C        9.91956141      -0.05402755       3.63485509      -0.00133391      -0.00247048      -0.00761298
C        8.68774175       2.08214888       3.57333000      -0.00570142      -0.00233802       0.00479970
C        7.46715912       4.22626168       3.62823674       0.00775141      -0.00279412       0.00496632
C        6.24072312       6.38180729       3.73834992       0.00419370      -0.00402203       0.00256827
C        4.99400134       8.49959859       3.73883932       0.00054058       0.00028154       0.00757221
C        0.04670077       1.38222423       3.76723358       0.00339110       0.00529803       0.00543073
C       -1.19663988       3.50129277       3.62673514       0.00010935       0.00331025      -0.00790296
C       -2.42899795       5.64890046       3.44892633      -0.00074933      -0.00075753       0.00153022
C       -3.65721108       7.79266370       3.46420556      -0.00539924       0.00165814       0.00131129
C       -4.88778136       9.92686960       3.62646484       0.00193928       0.01051903      -0.01116135
C        2.50626147       1.34521395       3.96604997       0.00507823       0.00313754      -0.01138057
C        1.19540351       3.50673250       4.20352233      -0.00744373       0.00049855      -0.01105104
C        0.02156296       5.66315790       3.66647472       0.00224264       0.00161165      -0.00062639
C       -1.19273338       7.79127738       3.43029300       0.00188366       0.00093168      -0.00901931
C       -2.42246865       9.92584179       3.56839606      -0.00396920      -0.00407377       0.00938496
C        5.00689555       1.34274212       3.85850729       0.00399447      -0.00050365      -0.00948650
P        3.78068350       3.47771018       4.99335319       0.00204773      -0.00936385       0.00450471
C        1.27813002       7.78577105       3.62128485      -0.00433309      -0.00264504       0.00245127
C        0.05012532       9.91670926       3.53421715       0.00478267       0.00813526       0.00006440
C        7.45360685       1.36788522       3.62544509      -0.00614338       0.00241435       0.00594440
C        6.25935527       3.50655838       3.86063764       0.00397916       0.00773047       0.00216897
C        5.02808649       5.69823804       4.07972170      -0.00489706      -0.00018663       0.00228126
C        3.76045913       7.76755417       3.91979293      -0.00740813       0.00040383      -0.00748667
C        2.52107483       9.91249247       3.62319449      -0.00042198      -0.00586730      -0.00117363
C        9.91660833       1.36740036       3.59838419      -0.00013683      -0.00271686      -0.01180118
C        8.68813968       3.51021886       3.53784375       0.00139470      -0.00549224       0.00306296
C        7.45401103       5.65450840       3.58855225       0.00858723      -0.00589067       0.00104045
C        6.22505023       7.79623706       3.66211572       0.00595181      -0.00100020      -0.00402686
C        4.98601066       9.91886448       3.66868853       0.00677162      -0.00023277      -0.00316725
Zr       2.09894809       5.31112883       5.37377798      -0.00715221       0.00220398      -0.00870940
O        1.64781714       5.78241053       7.12948682      -0.00064955       0.00030033      -0.01001459
O        1.24496508       6.23525914       8.39211122      -0.01583714      -0.00307219       0.00846920
H        1.92136860       5.87980749       9.00694760       0.00779950      -0.00305454       0.00637636
