52
Lattice="12.336457 0.0 0.0 -6.168228499999997 10.683685154694365 0.0 0.0 0.0 15.0" Properties=species:S:1:pos:R:3:forces:R:3 energy=-453.6569169968491 free_energy=-453.6569169968491 stress="-0.003995463473703038 -0.0006110473852700686 -4.712740519576296e-05 -0.0006110473852700686 0.0008889427155103892 -1.1574401835206143e-05 -4.712740519576296e-05 -1.1574401835206143e-05 2.557803653057168e-07" pbc="T T T"
C        0.00342326      -0.00893961       3.66477809       0.00112306       0.00453662      -0.00808998
C       -1.24494632       2.11746892       3.69717553       0.00266232       0.00289265       0.00294143
C       -2.47054431       4.26269464       3.72259693       0.00183745       0.00014392       0.00059108
C       -3.69378510       6.40335493       3.70826273       0.00046840       0.00237079      -0.00417484
C       -4.92849268       8.54475034       3.67827251      -0.01066260      -0.00558871       0.01099236
C        2.47072369       0.02171647       3.65331447       0.00093409      -0.00329932       0.00841318
C        1.20194886       2.10785798       3.73360870      -0.00035922      -0.00433513       0.00480475
C       -0.05451000       4.24928688       3.87069199       0.00547177      -0.00343644       0.01221701
C       -1.24850018       6.40130575       3.74224969      -0.00334437      -0.00112149      -0.00066762
C       -2.46821249       8.54814822       3.67135598       0.00262454       0.00937692       0.00270113
C        4.93451734      -0.00004436       3.65478562       0.00638245       0.00043618       0.00132239
C        3.72773129       2.12667077       3.67594759      -0.00108004      -0.00051533      -0.00282131
C        1.19054383       6.41917981       3.92232349      -0.01192553       0.00683457       0.00873066
C       -0.00367406       8.53765918       3.70935989       0.00190102      -0.00592779       0.00080147
C        7.41013326      -0.02296153       3.67586959      -0.00792413       0.00580645       0.00732050
C        6.18106828       2.12827163       3.69237617      -0.00363967       0.00305712       0.00804551
C        4.99031999       4.27446267       3.89276449       0.00322442       0.00379318      -0.00334500
O        3.77274546       6.42837488       3.83698924      -0.00056126      -0.00453010       0.00262999
C        2.48774018       8.50472958       3.74307628       0.00219073      -0.00584621      -0.00089986
C        9.87038985      -0.02853918       3.67746686      -0.00503703      -0.00623509       0.00106746
C        8.63738327       2.12117451       3.68561061       0.00725941       0.00665642      -0.00029063
C        7.40756897       4.26732725       3.73981380      -0.00245861       0.00247648       0.00453143
C        6.19729577       6.40916060       3.78793101      -0.00347425      -0.00566929      -0.01421137
C        4.94802232       8.52508420       3.70925952      -0.00451057      -0.00266781      -0.00285200
C       -0.00356499       1.42200938       3.68141848      -0.00077395       0.00288070       0.00193649
C       -1.24819843       3.53510429       3.74569204       0.00306927       0.00200389      -0.00363642
C       -2.46146789       5.68632914       3.72117055      -0.00091343      -0.00216859      -0.00392696
C       -3.69370380       7.83106908       3.68344925      -0.00054064       0.00511345      -0.00536428
C       -4.92336731       9.98302299       3.65971268      -0.00202814      -0.00376210       0.00593637
C        2.46797399       1.48082294       3.67682890      -0.00110431      -0.00595036      -0.00597511
O        1.14759233       3.50612215       3.92101651      -0.00077242      -0.00731720      -0.00742215
C        0.00109424       5.66994260       3.86177810      -0.00077355       0.00185696      -0.00858749
C       -1.23860695       7.82565000       3.70346529      -0.00020966       0.00017488      -0.00263634
C       -2.47021605       9.98320633       3.65443898       0.00677525       0.00745563      -0.00388250
C        4.93674796       1.43363106       3.65947532      -0.00137865      -0.00120462       0.00133574
O        3.76579484       3.53949916       3.73247410       0.00478466       0.00315594      -0.00551391
C        1.22656827       7.80234748       3.78362863       0.00236685       0.00111691      -0.00207470
C        0.00048073       9.96013759       3.67531641      -0.00037123      -0.00694423      -0.01296247
C        7.40167092       1.40826879       3.67707935       0.00119803       0.01045083      -0.00579605
C        6.18986118       3.54586478       3.76754596      -0.00131455       0.00243548      -0.00048093
C        4.99988199       5.68204809       3.91275828      -0.00073875       0.00055924       0.00780792
C        3.72546208       7.83924860       3.76430446      -0.00083152      -0.00708989      -0.00298496
C        2.47638058       9.94026549       3.69186553      -0.01037688      -0.00448512      -0.00471636
C        9.87215172       1.40642688       3.67721629       0.00487729      -0.00113819       0.00500373
C        8.63887894       3.54867243       3.70571409       0.00073202       0.00615223       0.00360990
C        7.41361887       5.68584533       3.74452343      -0.00126426       0.00002371       0.00318332
C        6.18888155       7.82972312       3.72011459      -0.01084238      -0.00893315       0.00211561
C        4.93678471       9.95327771       3.67832439      -0.00023262       0.00030836      -0.00132153
Zr       2.48984414       4.95908944       4.80882148       0.00919438       0.00263817       0.00606391
O        2.26231634       5.05694000       6.66275498       0.00333336      -0.00415945       0.00742805
O        1.92596608       5.08959926       8.03512777       0.01403867       0.00558895      -0.00718499
H        2.78462447       4.99421725       8.50050997       0.00299476       0.00202896       0.00028835
