51
Lattice="12.336457 0.0 0.0 -6.168228499999997 10.683685154694365 0.0 0.0 0.0 15.0" Properties=species:S:1:pos:R:3:initial_magmoms:R:1:forces:R:3 energy=-1298302.8930775423 free_energy=-1298302.8930775423 stress="928.6776309519412 -278.51104060812685 -1030.3327342955888 -278.51104060812685 669.7610833145105 69.15778712946386 -1030.3327342955888 69.15778712946386 1538.6318620804375" pbc="T T T"
C       -6.82802265       3.76942312      11.29338894       0.00000000    6092.64778919   -1920.33471211    2007.54836490
C        0.23014122       5.52519020      -1.09376484       0.00000000     142.66383593     383.89594516   25203.80696496
C        2.57760428       6.60166767       1.57318971       0.00000000      10.48125766     -28.00379025       8.83711444
C        3.08741598       4.90025700      -0.39158153       0.00000000     483.07507001     -76.91989555    1171.10856482
C       -9.18587593       0.22508131      10.03203183       0.00000000    1032.87885405   -1993.08154208     281.99687721
C        0.62984366       1.10636081       6.39816810       0.00000000     990.30187749   -5863.13160321   -4652.46160778
C        0.25698693      -1.39210453       8.61872421       0.00000000      -6.26968708      -9.41883832       9.41545470
C        2.56283074       5.34640248       5.79944209       0.00000000   14422.84287868   -1086.48750536  -23351.98129692
C        1.91578979       0.34969155      -4.75739729       0.00000000    3266.44824309  -10582.11986896    1236.19558387
C       -0.43348476       8.33070558       2.41550609       0.00000000      -3.24462680      29.94454689      23.18843784
C       11.01796127       5.33286323       4.16914628       0.00000000   -1696.98010497      21.80161679   -4798.65404522
C        1.07026805       3.33454201       7.75024773       0.00000000   50548.31499127  298934.96117845  186592.25473634
S       -4.93886124       9.25986766      -7.74959076       0.00000000     -17.68758122     -33.27851387       2.64130781
C        0.60531178       7.30240897       2.54869776       0.00000000      16.76439729      18.49454082      15.06085643
C        3.33499056       4.06197379       6.07159900       0.00000000    9984.18280889   -4758.81154037   -8973.50232355
C        9.72525250      -2.34493918       2.92195392       0.00000000      -3.04866771      -8.00174862       6.37685073
C        2.50594060       3.84065655       7.67607192       0.00000000 -191130.83254431  185579.07307218  182708.60669618
C        1.30614443       0.61240469       4.31897946       0.00000000       8.98122542     -47.38386413      -9.42477203
C        6.21634592       9.13354178       0.72419232       0.00000000       2.20736122       2.40440168      -2.26811134
C       10.64771456      -0.77271770       6.22362530       0.00000000     -22.60379987      45.28130144     -24.92064860
C        8.74469290       1.68754002       3.88495053       0.00000000     -12.52376120      -6.49026087      -9.68308414
C       11.64902978       6.14399818       3.84651653       0.00000000    -256.00341618     210.95073109   -1081.98065213
C        2.20455650       5.07017562       7.37528500       0.00000000 -375886.88361871  -11044.78098475  595410.61845774
C        8.15717822       5.04362500       6.42028318       0.00000000   -3151.99433607    -171.31963103   -1956.44349503
C        3.82491487      -1.08414788       0.59139418       0.00000000       4.61482394       2.21284352       5.70360119
C       -0.79976172       3.57850813       6.35695252       0.00000000   -6805.31375756  -10462.34474400  -18272.06236466
C       -0.52603282       7.64012699       1.60924796       0.00000000      -3.20513745      -4.56600224     -26.93395835
C       -1.17133347      10.05833661       1.77978635       0.00000000      -2.73068676      -6.82937230      -2.31049691
C       -4.79510127       5.20479218       2.86541682       0.00000000      -1.97942836      -0.75202537       0.72274246
C        2.52200408       1.90433842       4.37719540       0.00000000      34.52910315     687.71867155     -30.45329958
O       -1.30474948      -2.05913110       7.47488226       0.00000000    4030.26479090    3280.58180970   -1781.19864222
C        1.26032446       2.91637858       0.94870567       0.00000000      -3.00486139      18.95277882     -23.44076237
C        3.42081597       6.88126144      -0.66959150       0.00000000      58.25470852      34.45209396     149.40088533
C       -2.38556162      12.43495284       3.98527022       0.00000000      51.74489186     -43.90729839     -91.27042682
C        7.94798135      -4.75216511       2.59979848       0.00000000      30.95881532      18.25243619      20.28748931
S        6.98231806      15.01957462       2.80486393       0.00000000     262.89296484    -391.05369573    -135.56163545
C      -10.92529409      21.22342760      -0.65051710       0.00000000      -3.12012662       0.94352741       0.08647841
C       -0.11024333      16.59059451      -2.37194705       0.00000000      -4.87605224      -5.53845047      -8.69620794
C        6.09363713      -4.98453407       1.05186387       0.00000000      81.45492434     -66.26425063    -307.46241300
C       11.14647874       5.34130721       3.21136866       0.00000000     -31.52258491     -23.81025986      21.96020876
C        1.26893894       3.91044870       6.17564317       0.00000000    6338.84225388   -7388.37848012  -16151.21271927
C        4.07119903       5.04274716       7.97435838       0.00000000   23597.46475368   -2583.75630098   -9756.59937110
C        2.26335814       7.46448914       0.95931710       0.00000000     -14.66642871       8.62004248     -24.80913289
C        8.44658297      -5.84184954       0.50652899       0.00000000    -150.31187543      52.84096366    -103.98592570
C        4.67803888       9.13307784       6.44937701       0.00000000      12.44538835     -54.99561494      19.69816317
C        2.31843466       3.79641677       5.14175891       0.00000000    3574.17518425   -3925.22527165   -4320.32351962
C        6.39346361      15.78095452       2.87930637       0.00000000    -311.33081075     409.36782133      28.79498722
C        7.75417745      10.91497585       3.51951751       0.00000000      23.57378452     -29.44790499     -63.71734359
Zr       0.53415269       5.32769283       9.47859022       0.00000000 10837930.53469923 -2944215.75830085 -4871274.72395946
O        0.27009634       4.25484623      11.09924335       1.00000000  118067.09898603  476843.89128192 -721094.51696071
O        0.63534944       5.28574779       9.39195873       1.00000000 -10501580.50676871 2040247.55066697 4693406.28835254
