51
Lattice="12.336457 0.0 0.0 -6.168228499999997 10.683685154694365 0.0 0.0 0.0 15.0" Properties=species:S:1:pos:R:3:initial_magmoms:R:1:forces:R:3 energy=-2666995.4757048027 free_energy=-2666995.4757048027 stress="1409.2236760712149 223.51472466071434 437.3021116320366 223.51472466071434 -246.2980843628495 956.1767215767237 437.3021116320366 956.1767215767237 2073.0548475118294" pbc="T T T"
C        0.48608628       1.18711139       4.96950813       0.00000000   -1708.77718697   10184.14439192    4022.27201203
C        0.27211860      -2.91825740      -4.43790518       0.00000000  -40234.63133378 -228915.11680804 -653831.36872794
C       -2.12990658       7.13261274       1.92379130       0.00000000       7.34751177       1.33775232     -14.10926935
C       -4.08814185       1.55567186       4.87260670       0.00000000       4.00174107      -1.83417850      -4.28125250
C       -6.22920670      17.46400168      -4.33524207       0.00000000      -9.76335384       3.71604430       7.88651921
C       -0.26364962       2.29890917       3.04896302       0.00000000      17.38662720     -55.81799967     100.66356770
C        5.65767914       3.90486771      -1.63823378       0.00000000      -0.37415120       6.13346132     -37.42295829
C        3.94312874       5.32962434       7.54779992       0.00000000  850607.15154313  545757.72036445    9150.20789367
C        0.06377259       2.62181915       1.48670306       0.00000000     -18.73945765     -17.52451654     -66.40691284
C       -3.26517068      12.24979649       8.09581817       0.00000000     -93.27876497    -165.16872213      -1.33263815
C       12.11970331      -1.52647737       1.98797458       0.00000000       4.78927696      20.86479468     -51.40149543
C       -3.57438067       3.12486457      -1.56564495       0.00000000      24.61581836       2.49029349     -19.31795067
C        3.14305730       1.85764503       5.69599908       0.00000000      -2.38129165       8.20829130     -40.92330464
C        2.22910644       5.83090800       3.80578880       0.00000000    -418.80860513     -77.16179550    -414.31685976
C        5.87264816       4.49635046       1.75171477       0.00000000   -2094.90460266   -1370.47800101   -1611.28622731
C        6.92133629       1.95635571       5.05029280       0.00000000     391.39150858   -2791.70408025   -1647.04881041
C        3.47897853       4.53201442       2.89822431       0.00000000     -11.36971802     -34.78204197     -62.28036829
O        4.75813203      10.62790769       2.77497294       0.00000000      -6.21626425     100.12144834     -14.58189862
C        2.41311813      12.45382500       1.25972382       0.00000000       0.12137050       0.96628581       0.51356250
C       12.91192940       0.72033141       4.73272866       0.00000000    2494.17658149   -4068.19832346   -8252.87399383
C        9.11988705       2.94120970       3.75820571       0.00000000      -2.22414174     -14.48536944      -7.88916930
C        1.69574431      -0.47416266       7.04889536       0.00000000    9808.32747223   30668.39187954  -16254.62239727
C        5.94095495       1.62056376       7.06598720       0.00000000   -1890.97337509  -12396.29009906   -2615.55276104
C        2.52808617      11.39890009       7.16081799       0.00000000    -301.92270411     412.89357928    -145.41622353
C       -1.93247663      -0.49220001       2.08325145       0.00000000     -51.07983421      -4.30931941     -58.20788821
C       -0.18430100       1.90226249      -0.89854855       0.00000000       1.76559624       1.92584755       8.17822953
C        2.65062731       8.35599734       4.97488018       0.00000000  -19834.19851570    4340.63175310  -16454.99239628
C       -7.63946490       7.67333863       0.70238376       0.00000000      -1.31518820      -0.65531624      -1.78028652
C       -2.75042096      10.55376487       9.94189157       0.00000000   15065.50091963   16326.65624894    8681.20517265
C       -0.98323257       0.38556892       9.81429208       0.00000000   -8888.92579692   33559.12901499   14034.56549266
O       -3.45800122       1.18512209       5.77512539       0.00000000     -17.17703085      59.31571554     -15.61977936
C        0.31541334       2.75417118       2.33720682       0.00000000      41.70138260      26.64878319      53.86268951
C        0.11835862      15.42846197       2.07418831       0.00000000    2085.13994011    1331.41194754    1604.76942231
C       -3.51999191      10.99386704       1.03824109       0.00000000       0.35557512      -0.31188996      -1.04746851
C        3.31595848      -2.81359034      -2.27777344       0.00000000      33.23404121       1.38990872      27.55066423
O       -4.33948379       3.05812228      -0.94939520       0.00000000     -25.01483674      -1.84284021      20.33922290
C        4.33807139       5.98936660      14.50284292       0.00000000     -11.25940824      -6.44485366      18.06036803
C        1.36647420       5.30373128       4.34329614       0.00000000     -46.80876791     -20.23287778     -36.73543220
C        5.43948788       1.98444570       3.62590701       0.00000000       5.14560619      -7.18656355      -6.76061412
C        4.77249833       4.67580909       0.84136060       0.00000000      -3.34415922      32.10704896      -3.44272395
C        4.09237438       7.09489511       6.09557450       0.00000000  266367.94827305 -167405.29145012  274403.42994687
C        6.22549793       8.54378973       6.37192712       0.00000000  126101.25818395 -651128.16202844  830090.51195688
C       -1.88602399      11.05869339       6.74004608       0.00000000      10.21407766     -38.81286634      35.49273727
C        6.85615373      -2.69346223       2.38713022       0.00000000     -19.36398691      -1.83566516     -24.53836503
C        8.88963540       5.22408336       0.68909266       0.00000000      -1.94306694       0.45903121       2.61999591
C       11.56200681      -0.28908764       2.12110872       0.00000000      50.70190121      -3.98564190     -65.93391342
C        7.48556194       6.56157870       6.15000010       0.00000000 -372811.44985941  262082.48158680  774213.57953383
C        2.08917242      11.68098425       7.66229198       0.00000000    -108.63434281      89.71651393      99.24531106
Zr       6.16299454       6.86329834       7.95957305       0.00000000 -1375274.34496434  163562.52931502 -23687666.65674948
O        6.05928443       5.78598006       8.82182076       1.00000000 -486494.77419277 -2235903.52660465 1568682.43314605
O        6.11259797       6.82318528       7.92855805       1.00000000 1037261.72395396 2235849.76855073 20904170.76139142
