52
Lattice="12.336457 0.0 0.0 -6.168228499999997 10.683685154694365 0.0 0.0 0.0 15.0" Properties=species:S:1:pos:R:3:forces:R:3 energy=-450.68231758391084 free_energy=-450.68231758391084 stress="-0.006458226420469387 0.00021208454030590418 4.917616336429607e-06 0.00021208454030590418 -0.002025997337365764 3.817125143048647e-06 4.917616336429607e-06 3.817125143048647e-06 -7.874918068230751e-06" pbc="T T T"
C       -0.01184738      -0.09549130       3.91021760       0.00639243      -0.00295515      -0.00827024
C       -1.26145258       2.01513998       4.01306780      -0.00603110      -0.00399618       0.00184642
C       -2.49751158       4.16835664       4.04859020      -0.00191228       0.00244577       0.01270634
C       -3.71819772       6.31571906       3.99527941       0.00218095       0.00738049       0.01198676
C       -4.95435111       8.45135696       3.87642191      -0.00178407      -0.00344726      -0.00315918
C        2.45286193      -0.07005910       3.92836715      -0.00141163       0.00397949      -0.00744839
C        1.19692830       2.06684267       3.97232350      -0.00118909       0.00286903       0.00517507
C       -0.07817021       4.11797619       3.85679705       0.00539409      -0.00771508       0.00111137
C       -1.27133245       6.31228042       3.80557140       0.00638624       0.00236177       0.00565290
C       -2.47778742       8.45065795       3.85456558       0.00013115      -0.00073799       0.00537169
C        4.91907814      -0.09962328       3.87606663      -0.00216214      -0.00962012       0.01454751
C        3.71248352       2.05562058       3.94069425       0.00953381      -0.00513072       0.00855622
S        1.08219800       6.20982756       2.49058378      -0.00664973      -0.00461350       0.00588833
C       -0.02119277       8.44832114       3.57927264       0.00434485      -0.00222524      -0.00385814
C        7.39161302      -0.11348957       3.83042239      -0.00929169       0.00326150      -0.00830728
C        6.16974090       2.01112365       3.98906610      -0.00090837       0.00384966      -0.00051107
C        4.98674556       4.11108845       3.83302065      -0.00120324       0.01056167       0.00703522
S        3.85764306       6.22741708       2.45039430      -0.00737247       0.00064408      -0.01019590
C        2.45656599       8.47516193       3.34897543      -0.00360949       0.00122785      -0.00158704
C        9.85364296      -0.11125633       3.84429328       0.00046594      -0.00260097      -0.01132367
C        8.62172201       2.02145330       4.03805002      -0.00155205      -0.00932644      -0.00168234
C        7.40089593       4.16756613       4.05255389       0.00646433      -0.00156873      -0.01062747
C        6.17015277       6.31337081       3.83385720       0.00410823       0.00210108       0.00545045
C        4.92760550       8.45022943       3.60227887      -0.00120588       0.00658365      -0.01293627
C       -0.02317590       1.32770309       3.97237964      -0.00155273      -0.00391585       0.00063892
C       -1.29193689       3.42749026       4.00289399       0.00093526       0.00012057       0.00824070
C       -2.49092046       5.59733843       3.99154175       0.00161877       0.00833526       0.00287837
C       -3.71648708       7.73861818       3.92121783       0.00105374      -0.00083820      -0.00160811
C       -4.94596896       9.88547898       3.90493925       0.00658745      -0.00797557      -0.00970897
C        2.45341559       1.36828203       3.95549022      -0.00256400       0.00370808       0.00193425
N        1.11278231       3.43798257       3.93891442       0.00499715       0.00155800       0.00883144
C       -0.08813201       5.53687657       3.63894928       0.00598090      -0.00295921       0.00843521
C       -1.25195189       7.73092293       3.72053855       0.00481158       0.00274215       0.00609782
C       -2.48518096       9.88426857       3.88226744      -0.00358000       0.00018012      -0.00390489
C        4.93250254       1.32186788       3.93782246       0.00533041      -0.00633614       0.00920619
N        3.79763598       3.42347571       3.89153289       0.00355976      -0.00229013       0.00519516
C        1.20018509       7.81252739       3.23623137       0.00188367       0.00126417      -0.00502471
C       -0.01474613       9.86825475       3.77333023      -0.00504028      -0.00394900      -0.00830414
C        7.39616675       1.30321520       3.98053288      -0.00429756      -0.00053886      -0.00700600
C        6.19858880       3.42366172       3.98785731       0.00055391       0.00568097       0.00465265
C        4.98065050       5.53860985       3.65451828       0.00139818       0.00894103      -0.00840859
C        3.71367318       7.81451249       3.23500027      -0.00128703       0.00706928      -0.01800804
C        2.45527941       9.87469820       3.69828857      -0.00510949       0.00325717      -0.00208403
C        9.84867537       1.30541933       3.99278617      -0.00272295      -0.00370254      -0.00048758
C        8.62021821       3.44888331       4.08284802       0.00317291      -0.00828038      -0.00376839
C        7.38945672       5.59788487       4.00482507       0.00205156       0.00151042       0.00911626
C        6.15524034       7.73056277       3.75103287      -0.00505807       0.00336143      -0.00065800
C        4.92295505       9.87030572       3.79873986       0.00149208       0.00518683       0.00425445
Zr       2.50321726       5.10518740       4.35115059      -0.00628147      -0.00261342      -0.00184939
O        2.60704276       6.22309092       5.81060784       0.00106198      -0.00467096       0.00277280
O        2.77003523       7.23780559       6.77223644      -0.00021196      -0.00315565      -0.00700449
H        2.33931338       6.87861719       7.58126943      -0.00790259       0.00498174       0.00014985
