52
Lattice="12.336457 0.0 0.0 -6.168228499999997 10.683685154694365 0.0 0.0 0.0 15.0" Properties=species:S:1:pos:R:3:forces:R:3 energy=-451.1694986590262 free_energy=-451.1694986590262 stress="-0.0014694155285777267 0.0020330403458264736 -1.1622902482321303e-05 0.0020330403458264736 0.0017827608201805855 -6.960112695626058e-07 -1.1622902482321303e-05 -6.960112695626058e-07 -2.4120541266012278e-06" pbc="T T T"
C        0.07307032       0.01085956       3.69006082       0.00320230      -0.00248682      -0.00606843
C       -1.15091187       2.15837410       3.53062153      -0.00820652      -0.00686310      -0.00595461
C       -2.39029459       4.29037171       3.69344529      -0.00195351      -0.00351426       0.00171950
C       -3.64047635       6.42580925       3.83266173      -0.00547384       0.00069170      -0.00561316
C       -4.86820260       8.56158325       3.83172807       0.00658675      -0.00198513       0.00227748
C        2.54313451       0.02446676       3.78734187      -0.00280064      -0.00068093       0.01313563
C        1.33258559       2.11967594       3.38001541      -0.00005282      -0.00012327       0.00828176
C        0.03490401       4.36430115       3.35416671      -0.00436061      -0.00204538       0.00493318
C       -1.20120548       6.45443218       3.75123586      -0.00090604       0.00222538      -0.01483338
C       -2.40179075       8.56945588       3.82832784       0.00151414       0.00912004       0.00451274
C        5.00807459       0.01820729       3.82806564       0.00236307      -0.00102497      -0.00196153
C        3.80481847       2.12929759       3.87227924       0.00209063      -0.00382329       0.00084554
O        1.23509661       6.46719385       3.55085954       0.00801761      -0.00227906      -0.00945790
C        0.06508612       8.55991769       3.77505196      -0.00007932      -0.00691110       0.00697589
C        7.48727048      -0.00588763       3.78431345      -0.00028701      -0.00204185       0.00907880
C        6.26051606       2.14331971       3.86532369       0.00674030       0.00354874      -0.00279847
C        5.06090815       4.28655979       4.04701375      -0.00831088      -0.00080719      -0.00448174
N        3.82440228       6.42280613       4.12650546      -0.00050341      -0.00259242      -0.00413144
C        2.53259542       8.50124357       3.82248652       0.00153913       0.00591119      -0.00652453
C        9.94376323      -0.00460537       3.72710826       0.00101792       0.00102200      -0.00519409
C        8.72151680       2.14598692       3.73859789      -0.00001950      -0.00492597      -0.00176052
C        7.47968989       4.28593777       3.85738750       0.00248277      -0.00088459       0.00111693
C        6.24254295       6.42268391       3.92220407      -0.00527598       0.00719987      -0.00038879
C        5.00139389       8.53448027       3.85345006      -0.00482840       0.00173783      -0.00738075
C        0.08756687       1.44104683       3.51797064      -0.00205995       0.00083913      -0.00047996
C       -1.16893083       3.58074855       3.51856463      -0.00462441      -0.00737054       0.00317973
C       -2.41332879       5.71436226       3.76528344      -0.00471424      -0.00110700      -0.00112017
C       -3.63804056       7.85143301       3.83951505       0.00626157       0.00290733      -0.00081745
C       -4.86130946       9.99114475       3.76864707       0.00105697      -0.00328131       0.01714056
C        2.56322987       1.46746725       3.71464081       0.00424852      -0.00371356      -0.00581135
S        1.41142118       3.64372977       2.45565349       0.00138895       0.01052295       0.00073702
C       -0.00563504       5.75264979       3.59758853       0.00561754       0.00225092      -0.00450854
C       -1.18154466       7.86797113       3.79530519      -0.00318964       0.00157287      -0.00012172
C       -2.39747798      10.00078604       3.82985662      -0.00173135       0.00629264       0.00079042
C        5.01752896       1.44995788       3.86133019       0.00813236       0.00092875      -0.00045452
O        3.85094538       3.53026504       4.09724970      -0.01605684       0.00007849      -0.00625369
C        1.28205791       7.87524413       3.75199236       0.00342703      -0.00009762       0.00288519
C        0.07738719       9.98692345       3.80224461       0.00090653      -0.00698898       0.00497501
C        7.48303828       1.43230621       3.79756233       0.00295149      -0.00137626       0.00201315
C        6.25029808       3.56599958       3.91948340      -0.00134236       0.00361194       0.00126423
C        5.00669857       5.71072120       4.04449396      -0.00010250      -0.00190482      -0.00223258
C        3.78796246       7.78235893       3.93699279      -0.00450366      -0.00116204       0.00017688
C        2.54568033       9.94949499       3.77620469       0.00178469       0.00563177       0.00650432
C        9.95647402       1.43336391       3.66177349      -0.00459112      -0.00598713       0.00413574
C        8.71258847       3.57199097       3.76369223       0.00244492      -0.00600472       0.00148711
C        7.46301307       5.70649907       3.87162499      -0.00602844       0.00168943       0.00499079
C        6.23706114       7.83872708       3.87080904      -0.00058904       0.00705752       0.00264131
C        5.00430111       9.96659066       3.75302608       0.00181715       0.00048592      -0.00786597
Zr       2.20043854       4.87842537       4.64569070       0.00765532       0.00573797       0.00154484
O        1.45960853       4.58118743       6.30072907       0.00803451       0.00400547      -0.00621480
O        0.79120227       4.36217926       7.51661134       0.00407166      -0.00919399      -0.00515358
H        1.34469798       4.82074383       8.18562076      -0.00276179       0.00610744       0.01023993
