51
Lattice="12.336457 0.0 0.0 -6.168228499999997 10.683685154694365 0.0 0.0 0.0 15.0" Properties=species:S:1:pos:R:3:initial_magmoms:R:1:forces:R:3 energy=-1329272.982573076 free_energy=-1329272.982573076 stress="401.20855717155973 968.9015064783065 2436.1786908925974 968.9015064783065 539.260602672548 -1333.9640142880744 2436.1786908925974 -1333.9640142880744 809.4194694342459" pbc="T T T"
C       -3.15436929       4.22004060       4.44967342       0.00000000     -64.37545269    -111.29808591      31.90374707
C       -3.77323537       1.28814862       0.65868818       0.00000000   -7602.83155574   -8441.30882046   -7985.41520834
C       -4.03452303       2.51552408       1.61857907       0.00000000   -9710.56661172    8305.37351811    -119.93282636
C       -1.52001284       5.62893047       3.26495630       0.00000000      11.28034722     165.80273041      55.52061023
C       -6.39825326       8.22730706       5.27110812       0.00000000       6.12720636      -3.56018783       0.90555702
C        3.58848399      -2.05243721      -3.30682590       0.00000000      -7.88887040      -0.44131414     -16.71287730
C        1.29291791      -6.84544220       0.25530306       0.00000000     526.93451255      32.61137679   -1493.61963397
C       -0.10491845       4.02071883       9.18771525       0.00000000  403472.68087821  106140.46186380  384489.43381327
C       -0.36800622       5.50892139       8.64576307       0.00000000  -24962.73701077   -7337.37004818  -15879.73105483
C       -6.57486186      14.02380077       8.40510223       0.00000000  -39902.74597731  -19660.44082049  -32862.52277054
C        4.11633819      -0.20810850       5.12636500       0.00000000     -27.49573240      22.33944385      35.62520105
C        9.51344587       2.55607746     -12.95498097       0.00000000    1865.29644072   -7491.97738887    2962.41849254
S        0.61938996       3.87708131       8.56427476       0.00000000  257673.97782194   19945.35736960  581392.19915580
C        0.42488482       5.62086831      12.60499131       0.00000000  131701.85470700 -140035.45402457 -136808.09206221
C        7.91297756       1.16101354       0.92326483       0.00000000    5624.34721147     594.36916684  -11591.23271594
C        7.88375073      -0.01423106       2.05616262       0.00000000    -210.39463142   -2781.56680686    2585.33379344
C        9.12049870      10.16555403      -7.49750858       0.00000000     450.23675396   -2230.71245449   -1805.19844892
S       -0.15449359       2.23096898       6.47701667       0.00000000   -4502.33139585    3821.78746400    1837.13910228
C       -2.78559905      11.43017740      14.80445726       0.00000000    7999.89424794  -21478.81054914   25171.49013559
C       12.88024877      -4.35169878      -1.87992832       0.00000000    7153.18725659    3794.25644832    3080.70513474
C        8.32708331       1.03188354       1.89820303       0.00000000    4644.87028826   -8437.78362138   -8044.27765019
C        7.59874095       2.78220203       1.58910247       0.00000000    6435.11496192   -6791.96646420    3242.47486982
C       10.11195157       3.66189275       1.88403072       0.00000000    -981.13389749   -3721.38693076     -81.71598994
C        4.07142972      15.55617688      -0.51052064       0.00000000   -9992.86294443    2363.64019206    7733.81702247
C       -2.36521373       1.25119965       0.31513339       0.00000000   -1429.05407597     471.40006549    1525.31829663
C       -1.99667612       8.33168227      -2.04440098       0.00000000      21.28040873     -41.96875005     -13.79938200
C       -1.30150634       4.67786707       3.46674217       0.00000000     181.13569735     228.88002389     291.35700615
C        4.13145890       9.83961503       4.37406788       0.00000000     133.48665960      40.40093690      75.50212961
C       -1.54086668      10.00309003       4.44916663       0.00000000     -10.31242202     -34.03786345     -14.34257233
C        2.24576029      -1.89586931      -6.44669854       0.00000000      20.74511647     -12.42728922      -9.96243707
N       -1.63978792       3.40721920       1.91969030       0.00000000   -1134.51418420     -64.20703983    -615.59770319
C        0.13647701       4.66965485       9.29646435       0.00000000  459295.89080082 -280533.28388912  636019.20387199
C        0.77586860       3.76996838       6.57747213       0.00000000  -12366.57727429   -3082.92557058  -30522.04299359
C       -7.09509429      17.09118901       4.00113329       0.00000000      24.74682710     -13.52384247      83.68904732
C        7.23941027       0.97048900       0.20250194       0.00000000   13802.64394728    6613.98710089   21541.80675518
N        5.52156266       5.63300869       9.77027053       0.00000000   12321.27071165    7149.10113783   -5649.10404015
C        3.07415612       7.25048637      11.78831174       0.00000000    -125.76759978    9332.33977814    3189.62627342
C       -0.67656099      11.77281496       2.76665292       0.00000000    1561.40300058      10.24779667    -448.31578258
C        7.79885814       0.16157820       3.01090470       0.00000000   -1017.34107557    2878.74500225    -960.37684495
C        7.35113038       1.62150561       2.01820952       0.00000000    3331.13561759    -352.75381133   -3871.39303023
C        2.40105357      20.73742233       0.07608502       0.00000000      97.36238028      80.90775233      19.27845519
C        2.98710396       6.27106264      11.11343828       0.00000000 -264561.10810476 -990377.91571526   68274.49299943
C        0.10262390       5.66258217       9.87159168       0.00000000  269832.93185270 -335021.25425134  198924.62312202
C        8.88000765       0.66952899       1.85315646       0.00000000    6405.12763789    -101.42126532   -3183.26048278
C        8.10741848       1.67566801       1.93997607       0.00000000  -19979.04724766   17820.23848196    7907.18977439
C        6.82805729       4.40634283       3.97967973       0.00000000     -11.50501642      78.05936604     267.84653859
C        5.62134357       9.65453724       2.34811826       0.00000000      54.33249042     -19.74955435       4.50307581
C        4.29488967      12.40591836       3.18672801       0.00000000   -2248.43965827    1094.50174362   -2049.43195129
Zr       2.07814459       3.88690616      11.09783856       0.00000000 1380358.51717551 -12856362.88099508 -14962089.94999811
O        1.47312310       4.57532788      11.85906149       1.00000000 -3457824.10637285 3120586.56229732 2622369.75962120
O        2.04665754       3.89344278      11.08152137       1.00000000  883665.32415389 11382971.05629759 10653002.86485455
