51
Lattice="12.336457 0.0 0.0 -6.168228499999997 10.683685154694365 0.0 0.0 0.0 15.0" Properties=species:S:1:pos:R:3:initial_magmoms:R:1:forces:R:3 energy=-448.06490919513936 free_energy=-448.06490919513936 stress="-0.0028187139619022593 0.005816067615021843 -1.5549104096122533e-06 0.005816067615021843 -0.0006899355920455714 -5.104216165272175e-06 -1.5549104096122533e-06 -5.104216165272175e-06 4.495107257037199e-06" pbc="T T T"
C       -0.03306662       0.05228739       3.64291022       0.00000000       0.01373792      -0.00101100       0.00186667
C       -1.22711916       2.19156298       3.95991154       0.00000000       0.00402034      -0.00262883      -0.00534316
C       -2.51182375       4.32242189       4.10478613       0.00000000       0.00404694       0.00044673       0.00586937
C       -3.77255140       6.45107896       3.86302249       0.00000000      -0.00631847      -0.00231037      -0.00276433
C       -5.00720517       8.57318878       3.62205036       0.00000000       0.00258761      -0.00692556       0.00645882
C        2.43421885       0.03526696       3.61250907       0.00000000      -0.00941712      -0.00205942       0.00303278
C        1.22388004       2.14160881       3.26796077       0.00000000      -0.00666132       0.00252534       0.00318590
C       -0.15069387       4.41461587       4.50185165       0.00000000      -0.00881424       0.00397084      -0.00590844
C       -1.36063419       6.50947427       4.22144650       0.00000000       0.00584915       0.00125824       0.00415629
C       -2.54334434       8.59610806       3.87587073       0.00000000      -0.00059777       0.00071114       0.01013267
C        4.90589430       0.01821295       3.78715425       0.00000000      -0.00017094       0.00129990      -0.00950160
C        3.75149352       2.10986006       3.44255667       0.00000000      -0.00668218      -0.00022161       0.01301811
N        1.07487137       6.50768740       4.26031790       0.00000000       0.00500519      -0.00164830       0.00207238
C       -0.06580930       8.58274076       4.03498338       0.00000000       0.00447427       0.00088860       0.00190353
C        7.38344656       0.01395398       3.93343050       0.00000000      -0.00215176       0.00299547       0.00320430
C        6.18892008       2.13003174       3.70088400       0.00000000       0.00669175      -0.00511186      -0.00864110
C        5.03248290       4.22230717       3.29358616       0.00000000       0.00548650       0.00418002      -0.00287940
S        3.49451631       6.34022054       2.67131637       0.00000000      -0.00319363      -0.00157503      -0.00194560
C        2.40875165       8.55324106       3.83303570       0.00000000      -0.01484741       0.00086814       0.00560418
C        9.85025312       0.02576731       3.85586721       0.00000000       0.00238559      -0.00124444       0.00326245
C        8.63721711       2.16267671       3.93815777       0.00000000       0.00099315       0.00556569       0.00688640
C        7.40118325       4.29250439       3.73139846       0.00000000      -0.01071598       0.00068648       0.01575054
C        6.13130594       6.40944299       3.44237248       0.00000000       0.00729441       0.00464799      -0.00357176
C        4.86886371       8.56398774       3.53539968       0.00000000      -0.00035624      -0.00307955       0.00371600
C       -0.01402522       1.48367873       3.66561982       0.00000000       0.00060854      -0.00055930      -0.01080945
C       -1.26380558       3.62558545       4.22493588       0.00000000       0.00544837      -0.00292290      -0.00887086
C       -2.55172753       5.75278613       4.09248639       0.00000000       0.00157246       0.00300807      -0.00747213
C       -3.77524186       7.87388569       3.78443809       0.00000000      -0.00029021      -0.00548444       0.00393404
C       -4.98028010      10.01238820       3.60281130       0.00000000       0.00220417      -0.01159769      -0.00113736
C        2.48524879       1.45445836       3.48127497       0.00000000      -0.01142503      -0.00334251      -0.00247884
O        1.26027409       3.26945425       2.59864170       0.00000000       0.00721696      -0.00446426      -0.00487490
C       -0.13014174       5.82290391       4.37260571       0.00000000       0.00343791      -0.00027832       0.00442786
C       -1.32296456       7.90205955       4.06326169       0.00000000       0.00598289       0.00262284       0.00414799
C       -2.51073846      10.01116445       3.75410614       0.00000000      -0.00466386       0.00130007      -0.01235574
C        4.94550337       1.43047962       3.63441539       0.00000000       0.00076684       0.00091226      -0.00864796
O        3.83561992       3.50074999       3.22845706       0.00000000       0.00299943      -0.00128020      -0.00669692
C        1.14774353       7.85194856       4.04062255       0.00000000      -0.00483888      -0.00631278      -0.00087422
C       -0.03160075       9.99703321       3.92647163       0.00000000       0.00129981       0.00224801      -0.00345821
C        7.40204030       1.43907646       3.87292439       0.00000000       0.00400550       0.00023706      -0.00165993
C        6.20602665       3.54123255       3.56883792       0.00000000       0.00202100      -0.00477005      -0.00523267
C        4.98995034       5.61578716       3.17659556       0.00000000       0.00557387       0.00812451       0.00368625
C        3.60697676       7.89736648       3.45182314       0.00000000      -0.01132071      -0.00105542       0.01600999
C        2.44165150       9.98506222       3.91311824       0.00000000      -0.00631279       0.00266450       0.00415417
C        9.87781329       1.46176117       3.94716681       0.00000000       0.00133164       0.00285613      -0.01135878
C        8.62430426       3.59059831       3.93135662       0.00000000      -0.00277261       0.00601827       0.00880654
C        7.36107812       5.71444230       3.68222678       0.00000000      -0.00599240      -0.00123961      -0.00309133
C        6.10032901       7.84519367       3.49883767       0.00000000       0.00649496       0.00148203       0.00222852
C        4.89682235      10.00099518       3.70098963       0.00000000       0.00938782       0.00178701      -0.00352557
Zr       1.99215230       4.54660596       4.15884239       0.00000000      -0.00927420       0.00867514       0.00231844
O        2.58911068       3.51395642       5.76286727       1.00000000      -0.00095646      -0.00399326       0.00382476
O        3.38079359       4.69639096       5.62988249       1.00000000       0.00484921       0.00313623      -0.01055871
