52
Lattice="12.336457 0.0 0.0 -6.168228499999997 10.683685154694365 0.0 0.0 0.0 15.0" Properties=species:S:1:pos:R:3:forces:R:3 energy=-451.68752426348703 free_energy=-451.68752426348703 stress="-0.0031670213693236375 0.00611863795773511 2.7561003100525264e-05 0.00611863795773511 -0.0004294028705770473 2.4119012096647578e-05 2.7561003100525264e-05 2.4119012096647578e-05 -4.3591602598718136e-07" pbc="T T T"
C       -0.01315561       0.04165062       3.71680823      -0.00162942      -0.00762383      -0.01043075
C       -1.20991605       2.18091915       4.02302087      -0.00338783      -0.00756602      -0.00557450
C       -2.49015562       4.30750982       4.14394621      -0.00369943       0.00880813       0.01323173
C       -3.75205795       6.43597391       3.89808269      -0.00176214       0.00729900       0.00758223
C       -4.98761608       8.56062977       3.68058833      -0.01184312      -0.00277121      -0.00577229
C        2.45231747       0.02333094       3.68414685      -0.00971903      -0.00376909       0.00961614
C        1.24873054       2.14268128       3.39586616       0.00425099      -0.00154589      -0.00328363
C       -0.12100366       4.39610974       4.56580330      -0.00281183       0.00482736      -0.00067815
C       -1.34029294       6.49352006       4.24286113       0.00563384       0.00127712      -0.00312392
C       -2.52350258       8.58207286       3.91393984      -0.00723375      -0.00508144      -0.00687247
C        4.92330296       0.00634661       3.83136604       0.00883919       0.00144973      -0.00507248
C        3.76641394       2.10413795       3.52870253       0.00586454       0.00065059      -0.00240167
N        1.09374552       6.48756855       4.26623293      -0.00080191      -0.00527960      -0.00451516
C       -0.04646390       8.56634240       4.05501824       0.00006191      -0.00259948       0.00990165
C        7.40017495       0.00027149       3.97280677       0.01505011       0.00270760      -0.00120476
C        6.20682578       2.11545492       3.74990922       0.00848183       0.00150614      -0.00896418
C        5.04562983       4.20627233       3.36347299       0.00431445       0.00302964      -0.00700560
S        3.49731534       6.30322846       2.79531126      -0.00270051      -0.01415833       0.00246225
C        2.42462770       8.54042296       3.87770654      -0.00343586       0.00152582       0.00193508
C        9.86844357       0.01269943       3.91071872       0.00471614       0.00206354      -0.00210014
C        8.65546847       2.14834986       3.98603181      -0.00490198       0.00212332       0.00033783
C        7.41847330       4.27710541       3.78247641       0.00062550      -0.00063326      -0.00667606
C        6.15138930       6.39673822       3.50134890       0.00599317       0.00118033       0.00222120
C        4.88740113       8.54957079       3.59991797       0.00270276       0.01102223       0.00764199
C        0.00695446       1.47648195       3.74515204       0.00141128      -0.01196624      -0.00879002
C       -1.24343325       3.61344959       4.27939122      -0.00188863      -0.00031359       0.00533132
C       -2.53108962       5.73707360       4.11959972       0.00058080       0.01095185       0.01009670
C       -3.75511487       7.85957309       3.82696622      -0.01264215       0.00245120       0.00602495
C       -4.96080938      10.00115464       3.67359749      -0.00775130      -0.00979619      -0.00295376
C        2.50233565       1.44789851       3.57921925       0.00292347      -0.00080088       0.00201671
O        1.30032337       3.28597262       2.72593777      -0.00219010       0.00209883       0.00134150
C       -0.11652765       5.80860907       4.40172192       0.00188793       0.00046728      -0.01222189
C       -1.30270802       7.88624862       4.08574363      -0.00095953      -0.00042345       0.00356316
C       -2.49314366       9.99877906       3.80334123      -0.00239440      -0.00259943      -0.00806771
C        4.96199058       1.41997088       3.69136948       0.00918968       0.00431822       0.00204296
O        3.84519610       3.49114437       3.27764108      -0.00694758       0.00581293      -0.00378704
C        1.16496538       7.83600624       4.05478134      -0.00444287      -0.00564208       0.01728029
C       -0.01448633       9.98302462       3.95908144       0.01360410      -0.00018416      -0.00391637
C        7.41989761       1.42512161       3.91794861       0.00503214      -0.00013057      -0.00421003
C        6.22256198       3.52551942       3.62461360      -0.00011330       0.00167841       0.00157882
C        5.00822261       5.59959214       3.25055974       0.00466210       0.00289798       0.00128170
C        3.62593808       7.88116691       3.52529242       0.00155332       0.01614462       0.00272530
C        2.45822454       9.97243545       3.95732890       0.01011409       0.00219322       0.01320405
C        9.89578740       1.44870021       3.99934675      -0.00869251      -0.00005831       0.00189080
C        8.64323649       3.57616910       3.97723738      -0.00145391       0.00274323       0.00807100
C        7.38042805       5.69966669       3.72962431       0.00324571      -0.00105609      -0.00021061
C        6.11991465       7.83206560       3.55968911      -0.00317942       0.00022116       0.01250964
C        4.91694769       9.98859549       3.76474640       0.00158045       0.00728919      -0.01276916
Zr       1.99757976       4.53029743       4.24527515       0.00268018       0.00168396      -0.00631392
O        3.30782757       4.05493111       5.71255276      -0.00319041      -0.01829093      -0.00730527
O        2.35923433       4.93131548       6.46976067      -0.00302678      -0.00760855      -0.01378805
H        2.12726335       4.36478899       7.23275008      -0.01220002      -0.00052402       0.01412060
