51
Lattice="12.336457 0.0 0.0 -6.168228499999997 10.683685154694365 0.0 0.0 0.0 15.0" Properties=species:S:1:pos:R:3:initial_magmoms:R:1:forces:R:3 energy=-1546115.2449150179 free_energy=-1546115.2449150179 stress="290.2326920866293 -682.2965107474937 239.05679552385652 -682.2965107474937 1451.151433452569 421.56867377752866 239.05679552385652 421.56867377752866 1926.191136406786" pbc="T T T"
C        3.63504708      -0.46370980      -0.33886102       0.00000000     -13.21845025    -102.65066123      -9.85158268
C       -3.07866538       5.78984471       8.13256115       0.00000000     -84.09465426      56.26766760     -77.31056422
C       -2.13235938       2.45114132       9.69085808       0.00000000  -11710.46839909   -2571.56544111    3686.64262803
C      -14.20047193       4.60181878      -4.43462025       0.00000000   -8124.37528560    1830.81539414    4347.01860438
C       -1.88024146      12.46873563       4.92863211       0.00000000   10027.27655534   -6884.85138117   -6588.03455756
C        7.35367295       2.83825099       4.24604365       0.00000000      72.08186329     509.67518835     742.56018441
C        2.55369454       0.00891551       8.60710323       0.00000000   -1159.98692846   -9505.32222155    2941.34595766
C       -2.62070782       5.72327456       6.54817582       0.00000000      25.71271637     111.04194462      58.10675123
C       -5.39546257      11.15019839      -2.89268109       0.00000000   -2941.01277256   -4319.70588684    5787.67264696
C       -4.39104876       8.00974836       4.44989593       0.00000000      -1.88053568       9.83430987     -10.93577075
C        1.56082380       4.38203248       0.80520665       0.00000000      34.80875569     -37.14565914     -23.69248159
C        7.76346441      -1.69621018       4.23407068       0.00000000      -1.15260934      -0.56664503      -1.13118243
O       -3.39669935       0.67576491      -1.13302826       0.00000000       0.19025275       3.11493808       0.26897820
C       -8.00218891      -1.33050100      -1.99695965       0.00000000      -0.07534469       8.63204660       0.04921595
C        9.45348747       2.31794349       2.74553046       0.00000000      -4.83803009      -3.45112505     -32.28190279
C        6.52204988      -1.38310837      -4.02971984       0.00000000       2.53905995       0.05412597       0.28324364
C        2.79809663       3.47497685      -0.52258205       0.00000000      -5.04069133       4.93875942      19.04291277
N        9.53222588      12.05897129       7.63242837       0.00000000  -61620.09231864  570170.74956429  258441.48452183
C        1.82732531       7.07062485       1.17121425       0.00000000      -1.05051247      -1.37678280       0.76854263
C        4.78771059       0.55360505      -1.67634416       0.00000000      -8.81398826       2.96271491     -14.24939734
C        8.17033522       4.00363346       5.98588941       0.00000000    2840.59508357     179.56389590   -1645.53466450
C        3.08032158       3.45737736       2.75399248       0.00000000     756.36842738    -384.12797161  -17663.31655612
C        9.69251931       5.43603152       8.68090157       0.00000000    -179.10904926     -74.01924240      92.89991306
C        9.76707211      11.83156388       2.39262769       0.00000000     -87.38687277     -60.35147907    -141.95233176
C       -4.42532648      -1.01587079      14.75159358       0.00000000       2.83729729       2.08697641       2.43010252
C       -2.28238764       6.17697512       8.77769200       0.00000000    -394.78487798     339.77559140     103.71044466
C       -3.04921334       0.08842645       1.27761355       0.00000000      -2.09848979      -1.06324891      -2.54348266
C       -1.94011336      12.39601531       1.79522343       0.00000000     -63.10165794      70.92228758     125.66930697
C       -1.53115150      12.13255031       3.48340828       0.00000000    5217.05660534   -6456.87380666  -13972.02032852
C        6.77388611      -1.16000423       2.76251925       0.00000000      16.73493473     -17.25865356       3.23129632
S       -1.14678173       2.97398451       6.25236908       0.00000000  -57354.61166611   -8126.89020679  -22311.64081399
C        1.43657134       5.16594100       1.83779010       0.00000000     107.89453801      68.02310971      60.59615864
C        4.19700757      10.72524667      11.97852680       0.00000000    -118.45021592     -30.97500239      45.36266571
C       -0.16210535      17.99957377       4.92703486       0.00000000     474.67615232     452.56112196    -443.62212067
C        3.77679720       0.39555562      -0.30152572       0.00000000      13.58584507     109.97179444      13.24512098
O        4.20146748       2.00078339       6.15116535       0.00000000 -304724.47773221  404904.65793086  564211.71489158
C       -1.18432138       3.75702803       4.13308669       0.00000000   -2205.16802606     -47.57206517   -1784.25764668
C        0.89299277       4.60317394       1.67359446       0.00000000     -98.60520366    -102.65761332       6.42355530
C       11.06444220       0.23638958      11.72074889       0.00000000     133.11075289      37.81338398     -47.04715882
C        6.54448768       4.58395469       5.79655945       0.00000000   17647.02643510    4262.40561029  -11044.10198999
C        4.05305743       6.26524902      -2.27287808       0.00000000    -551.67829032   -1355.98498159   -2000.60943340
C       -3.29204118       1.87138876      -0.97019776       0.00000000      -0.63888708      -4.70438671       0.46375201
C        4.32398954      13.27936528       4.14149948       0.00000000     217.20065627     197.23044798     547.37928021
C        9.21257295      10.17858326       0.73898642       0.00000000     -16.08042649       3.47394694      -3.26776702
C        7.41232550       3.12310050       4.89395974       0.00000000    5500.44714068    -298.98599361   -4291.05598148
C       10.12711579       3.07875373       5.73727310       0.00000000   -5920.90602333    -222.57306606   -3507.73397130
C        9.51272015      11.80944909       1.76765189       0.00000000      89.27390391      67.57670533      21.32254088
C        7.55983328      10.35362585       3.69627193       0.00000000      10.83995913      10.18496860       7.80418997
Zr       2.88499029       3.52218752       7.99145513       0.00000000 4233909.47589554 1784875.31368537 15217805.34891096
O        3.71531927       2.22810580       8.80168891       1.00000000 -693846.30767004  704475.83887444 -1115334.37261049
O        2.90971180       3.58092846       8.13097508       1.00000000 -3125860.22722094 -3432154.81346327 -14858122.28202067
