52
Lattice="12.336457 0.0 0.0 -6.168228499999997 10.683685154694365 0.0 0.0 0.0 15.0" Properties=species:S:1:pos:R:3:forces:R:3 energy=-456.3949058357227 free_energy=-456.3949058357227 stress="-0.003240120156842273 0.00021095883999287335 -2.9576858052885855e-06 0.00021095883999287335 0.003090120582294529 7.759823870062504e-06 -2.9576858052885855e-06 7.759823870062504e-06 -4.07912132985325e-05" pbc="T T T"
C        0.00284625       0.00190514       3.73764708       0.00329153      -0.00038622      -0.00563048
C       -1.24195583       2.12582482       3.72785189       0.00402382       0.00729336      -0.00210249
C       -2.47257795       4.27196869       3.65740269       0.00949465      -0.00188255       0.00644799
C       -3.70307862       6.41125779       3.63596166      -0.00881862      -0.00517820      -0.00656933
C       -4.93779576       8.55270244       3.69075208       0.00315278      -0.00349002       0.00215722
C        2.46689983       0.03688235       3.71810341      -0.00130766      -0.00234319       0.01225954
C        1.21295431       2.12094200       3.83737873       0.00326012      -0.00947640       0.00480126
C       -0.06986132       4.27947975       3.87930997      -0.00047367       0.00920138      -0.00278898
C       -1.25403057       6.41672345       3.67075310      -0.00383198      -0.00098514       0.00231200
C       -2.47364572       8.55845775       3.64997736       0.00953896       0.00391602      -0.00084093
C        4.93517295       0.00528288       3.67041601      -0.00474082       0.00092685      -0.00045536
C        3.73334665       2.17614221       3.79813032       0.00010206       0.00691334       0.00569341
N        1.14993740       6.42099572       3.93063598       0.00638225      -0.00401893       0.00763033
C       -0.00537999       8.52764916       3.69215578       0.00492206      -0.00191042      -0.00765353
C        7.41094314      -0.03008617       3.67350153       0.00055916      -0.00456380       0.00758300
C        6.18149295       2.12755294       3.65814101      -0.00127428       0.00162090       0.00332882
C        4.97071188       4.25986767       3.83017467       0.00270577      -0.00442502      -0.01070170
O        3.78321088       6.42024370       3.95180970       0.00301011      -0.00241650      -0.00000177
C        2.47650426       8.47644479       3.78759169      -0.00794050      -0.00195919       0.00701844
C        9.86579424      -0.03118901       3.71413510      -0.00078973       0.00224522       0.00054230
C        8.63990919       2.12096198       3.64969750      -0.00370253       0.00969170       0.00304726
C        7.40615638       4.26747448       3.64020458       0.00324069      -0.00208600      -0.00223577
C        6.18277837       6.40981617       3.73848447      -0.00966543      -0.00052867       0.00398322
C        4.93864041       8.52618435       3.76405065      -0.00880401      -0.00039514       0.00055815
C       -0.00048725       1.43567879       3.76308084      -0.00368589       0.00091954      -0.00099512
C       -1.24534833       3.55144753       3.73525841       0.00575991       0.00131645      -0.00233276
C       -2.46905152       5.69404765       3.64003277      -0.00494854      -0.00376559      -0.00513386
C       -3.70271086       7.84004276       3.65241436       0.00493615       0.00612181       0.00073050
C       -4.92811636       9.99268583       3.71639270      -0.00369565       0.00228486      -0.00339246
C        2.46119345       1.48541129       3.79045986       0.00833459       0.00037982      -0.00089641
O        1.15613982       3.54273292       3.93928391      -0.01093451      -0.00078203       0.00482762
C       -0.03362232       5.70158526       3.82137431      -0.00050122       0.00775500      -0.00509089
C       -1.24460902       7.83442946       3.65918851       0.00412594      -0.00534365      -0.00361314
C       -2.47344389       9.99184440       3.67616970      -0.00377847       0.00056999       0.00024685
C        4.94236887       1.43449663       3.69279035      -0.00062518      -0.00068336      -0.00721353
N        3.78755047       3.54020781       3.94443095       0.00766598       0.00506418       0.00275452
C        1.20400906       7.78596564       3.79304380       0.00148488      -0.00491730       0.00047333
C        0.00224414       9.95668363       3.67068760      -0.00059478      -0.00009026      -0.01218536
C        7.41058035       1.40302668       3.64778770      -0.00427848       0.00445692      -0.00527365
C        6.19072981       3.54520669       3.67270821       0.00339871      -0.00219859       0.00518449
C        5.00802000       5.68181669       3.88706067      -0.00267931      -0.00326471      -0.00724027
C        3.72515500       7.84137295       3.83994708      -0.00562748       0.00213349       0.00071980
C        2.47074889       9.92492080       3.71547533      -0.00102275      -0.00210519       0.00874369
C        9.87526169       1.40878852       3.68917440      -0.00127405      -0.00004809      -0.00467937
C        8.64032846       3.55000516       3.63347485       0.00573635       0.00558080      -0.00339011
C        7.40979851       5.68937959       3.66001455      -0.00475461      -0.00038399       0.00171996
C        6.17960188       7.83545902       3.72993741      -0.00395012       0.00043604      -0.00319103
C        4.93475296       9.95998665       3.73680538       0.00673720      -0.00444752      -0.00267188
Zr       2.46429404       4.98260748       4.91800641      -0.00231424       0.00097744      -0.00045705
O        2.44886899       4.98920753       6.78327432       0.00657363      -0.00687058      -0.00849277
O        2.33034422       4.98432570       8.19612128       0.00039182       0.00158055       0.01050657
H        3.25675290       4.98204275       8.52114639      -0.00281460      -0.00043940       0.01195973
