51
Lattice="12.336457 0.0 0.0 -6.168228499999997 10.683685154694365 0.0 0.0 0.0 15.0" Properties=species:S:1:pos:R:3:initial_magmoms:R:1:forces:R:3 energy=-3057215.211184788 free_energy=-3057215.211184788 stress="1549.4351401950325 5.29835784435134 332.01038132084994 5.29835784435134 -1966.224688978872 714.2664642834527 332.01038132084994 714.2664642834527 522.0825561214115" pbc="T T T"
C        1.64020667       8.13965224       2.94311865       0.00000000     356.39705387    2417.58282208   -1285.65084633
C       -3.62265375      -0.83032331      -3.54746216       0.00000000     -39.89689658     103.28162182      26.49203249
C       -8.15798544       7.49588563      -2.85536973       0.00000000       0.80960007       1.86026552     -15.88339477
C       -3.68026986      11.92188739       2.74438867       0.00000000     331.80983405   -1466.92299188   -1790.61243131
C        2.85049516      11.32219455       4.86580707       0.00000000      22.31175819     157.97716268      91.29117315
C       -0.24524527       1.16111527       3.88624668       0.00000000   -8210.66202018  -16002.10809109  -15939.64952825
C        3.69514354       2.22981586       7.11990488       0.00000000 -200148.07213175  234073.79645499   -3119.29868746
C        0.24469173       2.39458382       6.42781804       0.00000000  569327.56045797  710294.70408569  257842.90188921
C        4.20330323       8.52258124       3.05259360       0.00000000    -718.84232749    -405.07740076     253.59232503
C      -10.30785500       8.01651595       4.86337945       0.00000000    4074.03261718   36451.33419050  -25930.65260610
C        7.20328522       6.94009518      -0.56338531       0.00000000       6.93738056      -9.95723567      -2.30212175
C        5.26009853       3.62513540       4.83299303       0.00000000   28739.36868234   -5330.82143054  -17902.84006173
O        2.47484380      12.60074682       1.76258593       0.00000000    -142.11123193     257.68101187       1.07181358
C        5.73367968       3.40980846       4.97478963       0.00000000   67286.81174889  -20401.70473507  -34717.25215094
C       10.21890012       3.24567496       3.53092816       0.00000000  -15349.69860069   -5421.85438104  -16735.17323720
C        3.87075344      -0.22976902       6.96698034       0.00000000   11622.92130618  -20619.44926044   -1329.08024218
C        4.98814785       5.14117390       3.57730072       0.00000000   19736.90188623    1746.54946540  -22488.50159930
O        6.81122392       5.43705231      11.85085495       0.00000000      -0.45439233       0.92581433       0.29887835
C        6.24203880      -0.07776783      -2.12815004       0.00000000      -8.12460409       3.03630674     -10.37702938
C        9.35845099      -1.58667046       1.26299856       0.00000000  -26821.11435400  -96160.57517324  -17780.11368146
C        5.74561300       0.58055673       7.64719010       0.00000000   -2786.85958234    2123.44968442    -494.81590397
C        8.42039175       3.30530372       2.59497892       0.00000000    -161.59261110     -21.06273843     163.08846375
C        4.29838903       5.09000078       5.41251171       0.00000000  -36091.02014434   -7221.00486201   12771.26093074
C        3.90914363       7.26717699       4.57287711       0.00000000   23729.12468296   26696.61960523  -26407.89381348
C       -2.86606841      -1.17292180       1.34473995       0.00000000   26668.60902900   95544.98706434   18680.11533942
C       -1.92139172      -0.95757518      -3.59686943       0.00000000      -4.85615745      -5.31518951     -12.40704272
C       -6.68662002       5.76954854       2.08567124       0.00000000    -521.19007982    -556.75904031    1236.56071934
C       -5.65126424      11.38024502       3.66002181       0.00000000   -3419.54574758  -16871.12399314  -16269.88082114
C       -7.31530816      11.06438838       3.25376379       0.00000000     286.55683782    -102.67017215     108.83360694
C       -0.66144016       3.92099599       4.17962282       0.00000000  -25167.64157363   -9136.15955929  -37494.18704713
N        1.25984074       2.10415286       5.99838668       0.00000000  342913.66947812 1359162.11499211  724375.32751765
C       -0.84647408       5.49772779       6.30087688       0.00000000  351990.02957244 -272578.54460725  339567.85445514
C        8.45791199       8.54814264      -8.47973845       0.00000000      56.99897416     -82.31087150     -38.43290865
C       -2.67009515      14.57891873       5.70178415       0.00000000 -424152.75037134   80552.77602421  310873.34902651
C        4.71648346      -0.45336309       7.09684329       0.00000000   -1678.57069575    3100.20238273    -331.22744385
N        1.59838535       2.51121962       7.20848420       0.00000000  352534.51841781 -624472.44997157 -257916.64682781
C        2.73167607       9.28256824      11.00428315       0.00000000      45.31900644     -98.56699566     -35.74265663
C        1.09201148       8.70291855       2.95639028       0.00000000    1212.60978518    -853.58539775     389.17461296
C        6.87677897       2.84245269       2.83964151       0.00000000     -60.86875690    -135.85671215     462.74126894
C        3.78889479       1.58300882       7.48987976       0.00000000   29570.41715305  -57312.54706034   31650.57045605
C        3.80381234       3.44055940       7.07492294       0.00000000 -434800.00553055  100418.85420181   63687.00555235
C        3.76887546       4.17657410       4.30123975       0.00000000   18551.54571297    1317.42315175  -34508.35927643
C        3.90068748      12.78052095       2.28133745       0.00000000     -33.21885013     210.96132406     262.18313438
C       10.45391792       2.26301343       5.35144005       0.00000000  -25944.34657081  -21357.79501059  -12985.91752623
C       14.58049771       1.01855825       1.49495357       0.00000000     -11.35499191     -27.74812850      30.05916135
C        4.73044481       4.50230579       4.21149393       0.00000000   43644.15562703    5924.61922093  -48693.34090592
C        1.53146930       6.89642039       2.65267146       0.00000000    1043.00966491   13859.94776631  -25888.84574661
C        5.89176717       6.74039942       2.08260142       0.00000000     -82.79896700    -314.45997707     214.19470995
Zr       1.32967130       4.44531359       7.37565313       0.00000000 -5553450.39571150 -2495182.62720931 -1606825.81129234
O        1.39341920       3.08718038       7.22148013       1.00000000 -846874.19404987 -5548371.25491253 -181947.72293830
O        1.30489930       4.44720299       7.38483188       1.00000000 5712927.76068363 6546099.62848926  646210.65270209
