52
Lattice="12.336457 0.0 0.0 -6.168228499999997 10.683685154694365 0.0 0.0 0.0 15.0" Properties=species:S:1:pos:R:3:forces:R:3 energy=-456.4521525103204 free_energy=-456.4521525103204 stress="-0.002810030354881745 -5.682839700739187e-06 3.8566548769120684e-05 -5.682839700739187e-06 0.003151713416079712 4.87377979498624e-06 3.8566548769120684e-05 4.87377979498624e-06 -1.6014008976075227e-05" pbc="T T T"
C        0.00154421       0.00861047       3.71246749      -0.00401202      -0.00243241      -0.00297266
C       -1.24084371       2.12907162       3.74436952      -0.00347725       0.00071380      -0.01591554
C       -2.46525797       4.26761258       3.68600312      -0.00026591      -0.00218863      -0.00210552
C       -3.69505125       6.41108791       3.63742217       0.00590729       0.00228508       0.00180021
C       -4.93492114       8.55486501       3.65395080       0.00308434       0.00526856      -0.00462786
C        2.46681194       0.03596807       3.72195420       0.01608729      -0.00613727      -0.00015005
C        1.20413159       2.17795737       3.88244867      -0.00145104      -0.00183743       0.00852677
C       -0.02292061       4.25307171       3.94448501       0.00039482      -0.00613801      -0.00396756
C       -1.24484489       6.41388217       3.76651189       0.00597827       0.00675892       0.00212046
C       -2.47014215       8.55583442       3.69300567      -0.00591979      -0.00640556      -0.00357225
C        4.93342656      -0.00013785       3.69351094       0.00424670      -0.00504864       0.00858375
C        3.71914178       2.11907010       3.73639212      -0.00530800      -0.00532691      -0.00187634
N        1.14346572       6.42441540       4.08462739       0.00027222       0.00107425       0.01647580
C       -0.00425305       8.52356777       3.77289273       0.00040769       0.00398198      -0.00451277
C        7.40794920      -0.02934497       3.69685456       0.00068864      -0.00235873      -0.00138003
C        6.18128526       2.12633428       3.64365599       0.00588898      -0.00700107       0.00264739
C        5.00013396       4.27864341       3.72770462      -0.00265365       0.00313841      -0.01801066
O        3.75425702       6.42136385       3.68200956      -0.00634158      -0.00702277       0.00126233
C        2.47157763       8.47712142       3.78592363       0.00499470       0.01211766      -0.00096059
C        9.86373559      -0.03059510       3.69808113      -0.00368940       0.01618476       0.00510823
C        8.63774543       2.12181245       3.65551891      -0.00076805      -0.00233069      -0.00609725
C        7.41244053       4.27014621       3.61427763       0.00400051       0.00540384       0.01833754
C        6.19386168       6.41442621       3.63723079      -0.00753142      -0.00108523      -0.00295614
C        4.93729091       8.53008434       3.67486441       0.00219293      -0.00326662       0.00080011
C       -0.00366343       1.43856870       3.77305856      -0.00359097      -0.00181298      -0.01107330
C       -1.24441789       3.54772047       3.76798163      -0.00137245      -0.00320238       0.00004882
C       -2.46564044       5.69387237       3.68549426       0.00848671       0.00214063       0.00523732
C       -3.69883149       7.83991124       3.65553987      -0.00361525      -0.00320567       0.00161703
C       -4.92866434       9.99137315       3.69484320       0.00995511       0.00304098       0.01116401
C        2.47187201       1.48508061       3.78677096      -0.00298497      -0.00741675       0.00370051
N        1.14287495       3.53735528       4.09050584       0.00900947       0.00100038       0.00171763
C       -0.02294880       5.70918460       3.94245589      -0.00063179      -0.00590285      -0.00005898
C       -1.24121152       7.83243699       3.74400727      -0.00211794       0.00848284      -0.01430580
C       -2.47361822       9.99228676       3.70138807       0.01071514      -0.01191863      -0.00716513
C        4.93704283       1.43227798       3.67752474      -0.00098066      -0.00202769      -0.00003797
O        3.75384704       3.54158914       3.68350328      -0.00881013      -0.00430278       0.00688804
C        1.20371574       7.78467849       3.88321936       0.00415995       0.00206273      -0.01197500
C        0.00095563       9.95368223       3.71320733       0.00086247       0.00141801       0.00155793
C        7.40141706       1.40720510       3.65491170       0.00521564      -0.01051377      -0.00544687
C        6.19322278       3.54746884       3.63677031       0.00190468      -0.00051282      -0.00065225
C        5.00053162       5.68357631       3.72569248      -0.01086709       0.00306746      -0.00775912
C        3.71901845       7.84367791       3.73208324       0.00182425       0.00143866       0.00898092
C        2.46738303       9.92601145       3.72084590       0.00252646       0.01355742       0.00291220
C        9.86660726       1.40567418       3.69123508      -0.00200570       0.01309553       0.00181008
C        8.64173725       3.55038738       3.63585002       0.00001125      -0.00257278       0.00881677
C        7.41260471       5.69084276       3.61628939      -0.00051058       0.00700148       0.00492934
C        6.18159151       7.83577398       3.64332850       0.00385995      -0.00031939      -0.00233015
C        4.93447776       9.96230961       3.69203550      -0.01171884       0.00299938       0.00024991
Zr       2.66470976       4.98256252       4.86025649      -0.01067453      -0.00076697      -0.00090047
O        2.72586083       4.99071656       6.70989076       0.00953979      -0.00413718      -0.00374174
O        2.69145129       4.99643789       8.12959252      -0.00962584       0.00087419       0.00095152
H        3.63650925       5.00038482       8.39623268      -0.01129040       0.00008566       0.00830741
