52
Lattice="12.336457 0.0 0.0 -6.168228499999997 10.683685154694365 0.0 0.0 0.0 15.0" Properties=species:S:1:pos:R:3:forces:R:3 energy=-448.9754849762992 free_energy=-448.9754849762992 stress="-0.0032824009672208624 -0.001696587805175085 -4.451821439071367e-05 -0.001696587805175085 -0.004219802090179793 2.676014940580574e-05 -4.451821439071367e-05 2.676014940580574e-05 1.1301184882151681e-05" pbc="T T T"
C       -0.04853544      -0.06254640       3.87685999      -0.00196575       0.00336605      -0.00405472
C       -1.28698693       2.08588613       4.00776234      -0.00740195       0.00717786       0.00250877
C       -2.51356622       4.22330874       3.82940644      -0.00106302       0.00139534      -0.00560691
C       -3.72645129       6.35914102       3.67825173      -0.00232469       0.00324024       0.00548578
C       -4.97015299       8.49444046       3.72582968      -0.00453540      -0.00829365      -0.00308738
C        2.42804727      -0.08473031       3.74341766      -0.00163814       0.00575732       0.00710198
C        1.20801289       1.99478898       4.18716918       0.00073524      -0.00799008       0.00459478
C       -0.11685060       4.29441835       4.31448217      -0.00498393      -0.01057085       0.00430195
C       -1.28479813       6.37891987       3.82420717       0.00168451      -0.00258852       0.00472264
C       -2.50360993       8.48867039       3.64422206       0.00703014       0.00694013       0.01385648
C        4.89103448      -0.05515439       3.55654432      -0.00404734       0.00026631       0.00410873
C        3.60987855       2.02904990       3.48019211       0.00137769      -0.00145841      -0.00621612
N        1.09370907       6.42933407       4.24110995      -0.00099311      -0.00133646      -0.00031801
C       -0.04588691       8.48691237       3.69634892       0.00672067       0.00442553       0.00558998
C        7.35871148      -0.05681347       3.62092796      -0.00590026      -0.00455562      -0.00369378
C        6.11281774       2.09664287       3.45494693      -0.00143309      -0.00812251      -0.00774489
C        4.94223650       4.30512821       3.30292809       0.00794345       0.01401599       0.00049513
O        3.76586141       6.43170435       3.21406331      -0.01727030       0.00257216      -0.00066789
C        2.42203406       8.46013286       3.75841667       0.00374522       0.00095560      -0.01364776
C        9.81601834      -0.05823299       3.78025158       0.00186710       0.00621118       0.00077314
C        8.58779384       2.08625680       3.69252196      -0.00176090      -0.00641874       0.00391462
C        7.36343166       4.22615698       3.57595899       0.00820707       0.00192740      -0.00267882
C        6.17752857       6.39099370       3.67096857       0.00508666       0.00799933      -0.00405463
C        4.90102738       8.50076378       3.75941854      -0.00199395      -0.00091732      -0.00612774
C       -0.05136572       1.35676600       4.04549182      -0.00270785      -0.00030672       0.00630781
C       -1.29310348       3.51968488       4.05006487      -0.00850023       0.00133524       0.00721627
C       -2.50087008       5.64667798       3.76297961      -0.00264142       0.00281026       0.00127228
C       -3.73370843       7.78023005       3.67700917       0.00603403      -0.00343457      -0.00481755
C       -4.98014286       9.90976669       3.79093170       0.00428922      -0.00939933       0.00304535
C        2.42274697       1.32717245       3.83147718      -0.00519878       0.00274686      -0.01543005
P        1.31816512       3.54122767       5.00003572      -0.00268907      -0.01437663      -0.01267961
C       -0.07569579       5.70947238       4.12707005       0.00164003      -0.01028557       0.00371903
C       -1.27433961       7.78195136       3.69662497       0.01068749       0.00580283       0.00879782
C       -2.50348952       9.90832013       3.62624909      -0.00094174       0.01015850      -0.00128965
C        4.87270523       1.38227378       3.46868388      -0.00657589      -0.00099920      -0.00257985
S        3.36606006       3.67249979       2.91748856      -0.00914568      -0.00158384       0.00038678
C        1.16191461       7.75931157       3.87700549       0.00461125       0.00176916       0.00748158
C       -0.04039660       9.91287555       3.59851879      -0.00799251       0.00137432       0.00531821
C        7.34684047       1.37905845       3.57730043      -0.00165911      -0.01376070      -0.00991195
C        6.12770106       3.52290133       3.42370766       0.00775888      -0.00200533       0.00205944
C        4.97545544       5.69007719       3.54701183       0.00740863       0.00751455       0.00941978
C        3.68051181       7.81374114       3.72386404      -0.00225229      -0.00544170      -0.00363902
C        2.42024133       9.90508126       3.70647356       0.00313631       0.00089509      -0.00406954
C        9.82204536       1.37598759       3.82499641      -0.00118977       0.01342025       0.00417305
C        8.59545993       3.51050519       3.69055871       0.00661834      -0.00433177       0.00882639
C        7.38395218       5.64633060       3.63811425      -0.00585018       0.00429343      -0.00804289
C        6.14417788       7.79976325       3.72776837      -0.00785232      -0.00084621      -0.00403785
C        4.88400556       9.92285136       3.81487351      -0.00587364       0.00406934       0.00005965
Zr       2.98259240       5.51786196       5.03333195       0.01478437       0.00487307      -0.00234759
O        3.47392043       5.87538383       6.76158096       0.00550193      -0.00644166       0.01420485
O        3.83554897       6.27009396       8.05488181       0.00349003      -0.00336818      -0.00833373
H        4.29040389       5.48790911       8.43459158       0.00802405       0.00152021      -0.00466435
