51
Lattice="12.336457 0.0 0.0 -6.168228499999997 10.683685154694365 0.0 0.0 0.0 15.0" Properties=species:S:1:pos:R:3:initial_magmoms:R:1:forces:R:3 energy=-3181385.97507554 free_energy=-3181385.97507554 stress="4728.532868693287 2198.687527306656 3125.8573853022212 2198.687527306656 1302.7936727806511 2051.4850991929457 3125.8573853022212 2051.4850991929457 3208.5844164364207" pbc="T T T"
C        3.48906389      -1.91906386       6.33251620       0.00000000  -18104.87107873   10156.54970778  -12418.71740262
C       -2.43763820       1.56943266       5.90391236       0.00000000      51.65184181    -127.30262998     -34.57063381
C      -13.16085049       1.25638543       6.64986705       0.00000000      -0.23108006     -19.84164145       0.65132346
C       -3.90226239       2.57312330       4.83130329       0.00000000     -68.67676390      36.45904800      70.64683951
C       -3.94555416       7.92368457       3.38577919       0.00000000     -27.85483299     -28.72087979     -19.16067584
C        1.01707277      -5.53810175       3.79663011       0.00000000      20.34399576       3.26326529      11.10536318
C       -2.38899586       2.46139697       2.10821663       0.00000000      14.35320776      16.77175135     -60.12008619
C       -0.96831718       6.03667316       8.81814709       0.00000000 1850965.11188380  650242.48366888  378355.38767611
C       -0.29083220      10.88425614       5.67247786       0.00000000   -2183.75764458    7326.37385960   -6086.38845675
C       -2.81416635       6.10885825       4.93080321       0.00000000   -1947.18133815    -640.05615364   -2192.48513633
C        6.18939204       3.53715294       2.31743997       0.00000000       1.98579469      -1.68042822      -2.00221059
C        4.61947963       5.34458511       4.51107515       0.00000000       2.40124781       1.10138271       2.96679702
N        0.20751534       7.16313604       5.04343749       0.00000000   -3169.41310513     402.19122308  -23122.50482654
C       -1.46303340       7.83348558       2.74990462       0.00000000     -77.59859117      30.82577850     -94.42263678
C        9.72495843       1.59221966      -0.69845533       0.00000000      -0.06628035       0.36699337     -11.05812667
C        9.76867610       1.85063337      -2.57569056       0.00000000       0.04922493      -0.73812120       7.57119088
C       -0.99962653      -9.35195992       4.35726455       0.00000000       9.90286644     -16.65868630      22.60244037
S      -13.52328937       0.62127941      -5.69478681       0.00000000     114.79131303     138.98841013     -17.52143038
C        3.56677318      12.81796957       3.43243969       0.00000000    -220.31033881     865.48892843     300.32418589
C       10.49132417       0.22570721       5.57842976       0.00000000     -35.45558854      38.32152034     -35.91277663
C        9.49283335       1.17733614       4.16985056       0.00000000     126.33130603     242.94413695    -231.32966529
C        0.29461049       2.44469835      -1.03730503       0.00000000      -0.12411412      -0.80625500       0.10981027
C       10.35547930       6.43167079       7.22280647       0.00000000  -51968.95963077   -4729.38846329  -47201.73238342
C        8.40635533       7.64253461      -0.24146808       0.00000000      -0.00005479       1.73225543       0.76091478
C       -2.82109777       2.36257239       6.18680613       0.00000000     -55.12437036      60.13433516      -0.22439725
C       -5.44968564       9.28834228       9.22049607       0.00000000      -9.72330754       7.17532734       4.24926266
C       -3.65915729       5.60757320       5.12641926       0.00000000     781.51050791     365.61861528     619.75532887
C       -3.28569630       4.68115879       1.68461759       0.00000000      22.42326169     -46.59054435       6.67614115
C       -5.54271251       4.12138974       1.26248319       0.00000000      -0.42706250      -2.79990083      -0.20328663
C        6.02366528       3.02390404       6.11677032       0.00000000       1.05820266      -3.00025865      -1.29726584
S        3.53398901      -0.07603658       7.78575864       0.00000000   -4875.35025892    5313.91001480   -1773.57439895
C       -1.25637561       5.92156677       6.34296303       0.00000000  -22597.77149332   -8745.76547306  -25322.91228640
C       -2.04600153       5.97120523       3.74641700       0.00000000     160.12600488      29.73795204     626.26535808
C       -1.74854435      11.09218153      -2.15380850       0.00000000      -3.47299437       0.28789848       1.39923303
C       15.37079063      -1.19083223       1.39418360       0.00000000    1227.01182292    -578.55979446     319.54363432
N        3.21311747      -2.75032431       3.17914517       0.00000000       6.32278763      11.61813536    -123.78893832
C        8.72830095       5.58767006       1.92004533       0.00000000      -9.80990449      48.32186673      24.48318972
C       -1.57516073      10.48827498       5.05330402       0.00000000      18.85861947     -11.47341931      53.14506457
C        7.05394827       2.01389692       1.37381061       0.00000000       7.28602719       1.53221594      14.68732019
C       10.56550781       5.22681670       3.18934964       0.00000000      30.97295629     -28.36002189     122.94650946
C        8.67530978       9.73576178       1.26371774       0.00000000   -1227.50903654     574.13566095    -317.38641127
C       14.30307563      21.54419133      -1.74388542       0.00000000       2.74383763       0.52797905       0.36366154
C        2.13564009      12.05479210       3.02521310       0.00000000     -30.57744220     -44.04163267      -8.89482761
C       11.28933951       3.22916339       3.95166089       0.00000000      29.51453493      58.79057548      29.71606671
C        8.44558861       4.90623393       4.91170293       0.00000000     158.31678097      13.56177290      28.10422913
C        5.53358452       5.76184239       5.52767330       0.00000000      18.40053840      -4.44554031     -14.14535255
C        8.85623889      11.46738523       4.36613487       0.00000000       3.07937237      11.57381758      -3.66753189
C        3.66988942      12.25969665       3.33690070       0.00000000     141.64802409   -1145.10583068     -56.82263813
Zr       0.91821423       6.67800401       9.17682422       0.00000000 -484962986.85199541 -142437798.80549178 -321642336.02549231
O        1.23681672       7.01301289       9.70702544       1.00000000 -14165550.31547720 -8149375.74016948 -14539906.90907178
O        0.91492871       6.68126842       9.18033514       1.00000000 497381235.23782384 149927349.09323937 335920770.31680596
