52
Lattice="12.336457 0.0 0.0 -6.168228499999997 10.683685154694365 0.0 0.0 0.0 15.0" Properties=species:S:1:pos:R:3:forces:R:3 energy=-451.2746699031999 free_energy=-451.2746699031999 stress="-0.0019273118760646535 5.915381039054138e-05 7.994915160193991e-06 5.915381039054138e-05 -0.0005598628993760717 1.726795974871205e-05 7.994915160193991e-06 1.726795974871205e-05 -1.158788791016607e-05" pbc="T T T"
C       -0.10823354      -0.01642750       3.94935666       0.00615666      -0.00149303       0.00902587
C       -1.33905986       2.12108001       4.04857905      -0.00897658       0.00616153       0.00179797
C       -2.55614609       4.25926699       4.01017244      -0.00201443       0.00162967      -0.00896975
C       -3.78543988       6.39699328       3.87804906       0.00126507      -0.00409197      -0.00195625
C       -5.04428657       8.53019133       3.83254830      -0.00182411      -0.00941936      -0.00329516
C        2.35638549      -0.01195394       3.93770696      -0.00542630       0.00282245      -0.00330780
C        1.10685407       2.13564360       4.01072575      -0.00211292      -0.00401545       0.01184973
C       -0.09786250       4.24183699       4.17999899       0.00426218       0.00160139       0.00088415
C       -1.33145741       6.40256342       4.09026084      -0.00294210       0.00059872      -0.00444998
C       -2.57251444       8.53397849       3.97911081      -0.00492254      -0.00008338       0.00864292
C        4.82633242      -0.00777234       3.86690261      -0.00524668       0.00121413       0.00594440
C        3.57249941       2.07195591       3.52424123       0.00562894       0.00664535      -0.00377546
N        1.07474716       6.44479119       4.16245558      -0.00138426      -0.00076711       0.00284981
C       -0.11452870       8.52940885       4.00488836       0.00082445       0.00065168       0.00463805
C        7.29185509      -0.01393097       3.91554497      -0.00188427       0.00412655      -0.00148335
C        6.07294616       2.11701168       3.60878346       0.00164193       0.00016844       0.00106195
C        5.01146398       4.27047245       2.97429816       0.00857446       0.00246248       0.00338326
S        3.49912259       6.44383575       2.47791693      -0.00542689       0.00479731      -0.00519134
C        2.34870711       8.51915409       3.85384273       0.00103494       0.00519562       0.00423712
C        9.76069475      -0.02139537       3.94367942       0.00677496      -0.00121595      -0.00703477
C        8.53434462       2.12245529       3.89881591      -0.00424100      -0.00417782       0.00206644
C        7.33955714       4.25758262       3.65953633       0.00594146      -0.00152588      -0.00480064
C        6.13429449       6.41834953       3.41253459       0.00737307       0.00464235      -0.00430546
C        4.83022795       8.52912797       3.67770749      -0.00219842       0.00252393      -0.00756421
C       -0.11319883       1.41329036       4.02421114      -0.00827830       0.00344721      -0.00196522
C       -1.33159150       3.53903022       4.09399754      -0.00212644       0.00679028       0.00379869
C       -2.55660187       5.68291219       4.01144757      -0.00040401      -0.00110382      -0.01354952
C       -3.80249734       7.82073377       3.90558908      -0.00067127      -0.00558643      -0.00470502
C       -5.04471832       9.95679305       3.92828529       0.00073804      -0.00849670       0.00752685
C        2.34940220       1.42337897       3.85871673       0.00284542       0.00528265       0.00003389
N        1.07649612       3.49995090       4.19125651       0.00292853      -0.00237657      -0.00127521
C       -0.09911722       5.69961873       4.17411970      -0.00143790       0.00006913      -0.00614511
C       -1.33963907       7.82052833       4.03653065      -0.00160605       0.00162845       0.01210803
C       -2.57499839       9.96349027       3.93464001      -0.00854067       0.00176024       0.00087212
C        4.82987361       1.41195589       3.65888667       0.00484808      -0.00083302       0.00120773
S        3.49327892       3.50988186       2.49442119      -0.01091522      -0.00698481      -0.01478852
C        1.10505917       7.81066744       3.99130057       0.00279723       0.00046291       0.00722854
C       -0.10784065       9.95889619       3.93104387      -0.00200218       0.00169518       0.00512516
C        7.29259381       1.41306618       3.81965827      -0.00373268       0.00201561       0.00453532
C        6.13331075       3.52607905       3.41277790       0.00602172       0.00074104      -0.00209706
C        5.01434556       5.67735170       2.96680710       0.01141475       0.00219106       0.00456727
C        3.57394755       7.86628515       3.53625790      -0.00431454       0.00289527      -0.00492463
C        2.35571867       9.95435493       3.93399459       0.00193167       0.00560892       0.00005970
C        9.76383121       1.40842268       3.98339028      -0.00572814      -0.00324900       0.01255340
C        8.55122585       3.54618088       3.87371943       0.00045979      -0.00491441       0.00269391
C        7.33933596       5.68662351       3.66030238       0.00501760      -0.00157617      -0.00309478
C        6.07325457       7.82554556       3.62153132      -0.00399926       0.00065789      -0.00315177
C        4.82567304       9.94879753       3.88600260       0.00930139      -0.00147928      -0.00279762
Zr       2.69371280       4.99739492       4.48639970       0.00707139      -0.00494919       0.00217908
O        3.94863776       5.18350255       5.82763141       0.00137823      -0.00326146      -0.00660769
O        5.06414956       5.49117048       6.63591194       0.00245961      -0.01623505      -0.00025526
H        5.15510876       4.71483344       7.23492383      -0.00633444       0.00734844       0.00062020
