51
Lattice="12.336457 0.0 0.0 -6.168228499999997 10.683685154694365 0.0 0.0 0.0 15.0" Properties=species:S:1:pos:R:3:initial_magmoms:R:1:forces:R:3 energy=-4019114.6794972373 free_energy=-4019114.6794972373 stress="-843.4320535196089 -4885.246703077845 1610.3569764489632 -4885.246703077845 -2399.4486261716843 731.1260499230572 1610.3569764489632 731.1260499230572 -481.0359350068276" pbc="T T T"
C       -6.15537332       7.23303811       6.96317537       0.00000000     -70.38105167     -20.13482418     -66.33348779
C        0.27268006      -1.40579483      -1.07297562       0.00000000     124.79544247      49.21840756     -40.32370795
C       -4.44309115       1.15654705       3.80008473       0.00000000    -115.31533975     552.65803115     302.33660026
C       -3.61558807       6.75992158       6.66513871       0.00000000      22.06857561       3.25117004     -14.11651317
C       -1.63018793       8.14087522       2.77468685       0.00000000   71719.74932657  -80426.68984099    7173.46706088
C        8.59906126      -2.89363568       4.73694765       0.00000000  -21478.84044014 -154716.27177673  -75471.97667433
C        0.07655486       1.19137758       3.85374577       0.00000000  -16674.17534840  -10813.72301809    -805.66426780
C       -3.30227174      13.03833451      13.22832435       0.00000000  -12037.51078481   20142.91810068   51642.08893506
C        1.48854094       1.83511001       8.55358579       0.00000000      16.48646152     256.13928068    -850.19775909
C      -10.15330044      19.90914169       8.18781870       0.00000000       5.86366889       3.96133294      -6.39114628
C        6.39529303       1.89614284       5.08783892       0.00000000  -23519.07016775   11013.24489354   -9055.15452011
C        5.27524965       3.26200499       2.54271199       0.00000000  -97288.80221371   25327.53764544    1235.32760097
N       -0.62539263       3.84963664      -3.05696639       0.00000000     -34.68446684    -130.01544216     129.19881408
C        0.11157609      13.18311367       7.96714344       0.00000000     -31.29352802    -111.12825574     -68.79251935
C        8.37631237      -0.72225621       3.81245769       0.00000000     981.50235664   -7611.75907396   -4385.97564904
C        6.72749487       2.27891357       3.60960379       0.00000000  -47984.90706720   16668.95705564   -2686.51773056
C        3.50419639       5.09050903       2.11850074       0.00000000  682778.06962666  763751.62785406 -580173.80877537
S        7.03276997      -0.78428248      -3.01447897       0.00000000       1.20939503      -0.20086767       0.43295578
C        4.56162790      10.14641672       4.02571121       0.00000000   -2385.60807913   -1507.31792178    -822.30114396
C       11.26749631       0.47234596       4.92461492       0.00000000   30180.31617790   48289.56178929  -26904.86049646
C       12.60765366      -1.12731255      12.68263814       0.00000000      -1.99952209      16.97450985      -3.70712934
C        4.95583499       4.05143886       3.47053887       0.00000000  184682.54270257    6420.28373278   20233.45734541
C        3.01918417      10.41464735      -0.93492986       0.00000000      15.73224562     -24.40835840      32.41282819
C        2.01116566       6.63063830       3.56268425       0.00000000  295576.55453572 2328001.97838158   67441.09637194
C        4.08529512      -1.42395059       5.13634202       0.00000000     152.22130942    -506.28199781     761.25609523
C       -5.33366960       4.28308297      -2.87060630       0.00000000      -0.26687880      -0.73644212       1.65519556
C       -0.49003094       2.77154700      -0.37753995       0.00000000   64867.91828171   49994.06310364  104196.59669514
C        0.89657159       9.28265375       2.90551973       0.00000000   17931.30598468 -118314.46373433    3528.72932288
C       -6.06623382       9.40300902       4.11796908       0.00000000     953.55274105   -1877.43763125   -1209.01181642
C        7.81711025       0.58113725       7.28953022       0.00000000      54.24909713     -45.62650408       4.00735463
N        0.31123815       2.53463241       2.27506168       0.00000000 -795405.42762382 -2083818.26934385 -110553.71552765
C       -6.55427489      13.00836818      -2.41104363       0.00000000    -231.15963170    -149.08492523    -537.24027482
C        5.81655409       9.14099346      -0.71979692       0.00000000    -278.69111813    -200.48654815     273.64881556
C       -0.30764175      11.40265761       5.98837400       0.00000000    -170.01616804     931.26059984   -1300.99245039
C        3.70141738      -0.42959588       3.94686416       0.00000000  -14754.56828335   39341.85999775  -10693.59606602
S        1.70692094       3.14418036       2.34217542       0.00000000 -324031.55878507 4723482.20907487 -3904207.44195602
C       -0.29154737       4.80199212       2.78060889       0.00000000 1227938.01198536   44497.30515682   96957.27459295
C        1.03597321       9.10269607       4.09530919       0.00000000   11533.45296304 -101316.85630623  -26557.72413109
C        8.68207418      -1.40960824       2.98460160       0.00000000  -19353.50109721 -117083.69289295     538.42494653
C        6.44393884       4.20167867       3.90353611       0.00000000 -102554.19870934    2924.91743173  -18900.07138897
C        3.26735342       6.88086625       2.44405981       0.00000000  504781.33610187  765820.53133821 -201170.49554581
C       -1.10699684      12.01697221       5.20396409       0.00000000  -41260.24121274   45577.84085314  -30606.84443770
C        1.70618914       9.26858197       4.76770553       0.00000000   -1254.81115516  -84644.02258661  -32422.48919192
C       18.42632374      -3.12352594       8.66520877       0.00000000      -2.69861059      19.93486310      17.78306210
C        6.96201877       2.44529948       1.62120409       0.00000000   -3709.94906855     821.50268791     -85.36432770
C        5.97990452       3.24261927       7.56898475       0.00000000    -186.01366007      58.22106918    -257.20193140
C        3.36243278       5.85944254       2.59553224       0.00000000 1341345.81021100 1719480.11879996 -682650.30454827
C        5.13472632      10.38027285       5.87026615       0.00000000   -1949.11127197   -2189.46160482    2606.56102888
Zr       1.70362967       4.27540864       3.18619039       0.00000000 90711751.23495486 -65751146.38982797 -100392035.16821396
O        1.77762736       4.53631768       4.12239861       1.00000000 -253323.63493205 1942252.19112791 -4524868.63782988
O        1.70400289       4.25288850       3.20075095       1.00000000 -93367325.54792921 55960954.19143583 110282336.66553660
