52
Lattice="12.336457 0.0 0.0 -6.168228499999997 10.683685154694365 0.0 0.0 0.0 15.0" Properties=species:S:1:pos:R:3:forces:R:3 energy=-456.34902395828595 free_energy=-456.34902395828595 stress="-0.003323974484892276 2.0021743151880762e-05 5.014978344429694e-06 2.0021743151880762e-05 0.0032552848336545705 1.9253161159519808e-05 5.014978344429694e-06 1.9253161159519808e-05 -3.5985352481291843e-06" pbc="T T T"
C        0.00211111       0.03105656       3.70859880      -0.00617844      -0.00574801       0.01131410
C       -1.24171409       2.15144996       3.67388244       0.00150592      -0.00388222       0.01135080
C       -2.47108685       4.29033041       3.63943972       0.00577696       0.00386243      -0.00706098
C       -3.70065462       6.43246369       3.65305043      -0.00069537       0.00904672      -0.00265639
C       -4.93569517       8.57886910       3.69340099       0.00105772      -0.00189466      -0.00012140
C        2.46746901       0.06224389       3.75572516       0.00227752      -0.00135800       0.00131264
C        1.21114132       2.19758076       3.85439020      -0.00076934       0.00195294      -0.00118447
C       -0.03715971       4.28442466       3.85619057      -0.00316981       0.00200462      -0.00697977
C       -1.24939994       6.43488667       3.73983367       0.00153922       0.00031883       0.00451161
C       -2.46565839       8.57861406       3.69788617       0.00371649      -0.00133153       0.00298811
C        4.93325455       0.03066817       3.71069036       0.00263367      -0.00819634      -0.00114845
C        3.72394917       2.19674974       3.84731753       0.00149200       0.00736139       0.00469112
O        1.14674008       6.44122590       3.90488277       0.01263458       0.00498083       0.00310395
C       -0.00119678       8.54879531       3.72356135      -0.00693987       0.00100297       0.00179647
C        7.40846294      -0.00799444       3.67127498       0.00549375      -0.00020578      -0.00751642
C        6.17643955       2.15160535       3.66552437      -0.00153987      -0.00907236       0.00678436
C        4.97174772       4.28488529       3.83609425       0.00069308      -0.00080575       0.00097289
O        3.78627242       6.44094543       3.88818840       0.00082953       0.00259081      -0.00456244
C        2.46753983       8.48958997       3.75242243      -0.00486986      -0.00111079      -0.00536796
C        9.86291382      -0.00805372       3.67278368      -0.00536739       0.00432919      -0.00968248
C        8.63546968       2.14293903       3.61440440       0.00293567       0.00294182       0.00820335
C        7.40549859       4.29084291       3.62853369       0.00186690      -0.00134356       0.00537320
C        6.18416066       6.43538700       3.72608465      -0.00711934      -0.00457443       0.00403286
C        4.93649565       8.54925423       3.71910385       0.00100232       0.00138567      -0.00640535
C       -0.00600610       1.45928918       3.73096661      -0.00001508      -0.00578855       0.00736393
C       -1.25412849       3.57001868       3.68792337       0.00181619      -0.00330643      -0.00373852
C       -2.47393398       5.71239237       3.66713048      -0.00009753       0.00610602      -0.00262165
C       -3.70075420       7.86266509       3.67864173       0.00388277       0.00643508       0.01214535
C       -4.92907880      10.01535858       3.72007409      -0.00256122      -0.00215356       0.00517800
C        2.46743174       1.50043482       3.83654969       0.00312338       0.00466619      -0.01022559
N        1.14350539       3.56367785       3.99103621      -0.00432967       0.00295965       0.00232421
C       -0.07416863       5.70577479       3.89058766       0.00393068       0.00132185      -0.00785751
C       -1.24570845       7.85912467       3.71632875      -0.00264501      -0.00216120       0.00359958
C       -2.47221991      10.01525831       3.72454433       0.00282360      -0.00565954      -0.01008309
C        4.94113764       1.45892823       3.72522383      -0.00259236      -0.00663033       0.01357333
N        3.79199300       3.56331414       3.97837523      -0.00364848       0.00974140      -0.01005395
C        1.20208126       7.85752654       3.78695771      -0.00481211       0.00309781      -0.00128706
C        0.00007663       9.98440849       3.69442505       0.00426782      -0.00059615      -0.00011147
C        7.40517360       1.42847349       3.63654032       0.00374798      -0.00125395      -0.00223318
C        6.18867972       3.57030484       3.67294353      -0.00187483      -0.00687581      -0.00757532
C        5.00843971       5.70594548       3.87131845      -0.00807729      -0.00133180      -0.00341528
C        3.73287890       7.85802458       3.77974095      -0.00019669       0.00400374       0.00705702
C        2.46742602       9.95074194       3.69012082       0.00058221      -0.00060559      -0.00493238
C        9.86583220       1.42839864       3.64058265       0.00037953       0.00230941      -0.00453737
C        8.63536390       3.57117871       3.60594989       0.00605567       0.00239973       0.01267512
C        7.40877451       5.71284353       3.65777071      -0.00098884       0.00275753      -0.00191804
C        6.18086876       7.85960309       3.70821274       0.00007341      -0.00409267       0.00402073
C        4.93522082       9.98478687       3.69398756      -0.00791540       0.00094187      -0.00668090
Zr       2.47480315       5.03689257       4.91116269       0.00276047       0.00080862      -0.00829182
O        2.51624663       4.72931069       6.74405175      -0.00098614       0.00152942      -0.00248323
O        2.56281920       4.22618651       8.07784911       0.00071546      -0.00679927       0.00000953
H        3.01817012       4.93345685       8.58492309      -0.00222454      -0.00407826       0.00635023
