51
Lattice="12.336457 0.0 0.0 -6.168228499999997 10.683685154694365 0.0 0.0 0.0 15.0" Properties=species:S:1:pos:R:3:initial_magmoms:R:1:forces:R:3 energy=-1587859.318110926 free_energy=-1587859.318110926 stress="-95.96475453208097 -426.36822434965137 469.3293531019245 -426.36822434965137 -723.7770232024737 843.435603221854 469.3293531019245 843.435603221854 174.8215259151304" pbc="T T T"
C       -0.18008019      -2.46994383       1.83369832       0.00000000   -1722.74647010     419.52645258     754.78130090
C       -6.17410052       4.90840560       7.59298609       0.00000000   -5551.20637952   -1925.33611591   -5348.11872596
C       -3.59301912       7.85387598       2.40630833       0.00000000      72.37313417     -64.61692377    -226.48655564
C       -2.63519789       7.49790260       0.59897543       0.00000000       4.76904737      -8.72935549      21.83584684
C      -11.80782824       5.76292250       1.25551309       0.00000000    3259.16301841    -910.06186244    3876.37491184
C        0.94528860      -0.09943176       6.98948406       0.00000000    -104.63067014    -342.26818107     308.76520321
C        4.14067871       2.64368171       7.09780878       0.00000000   26463.86145961  -21689.37399974   47632.49576978
C       -5.69899415       8.46042233       1.96447057       0.00000000      60.81684573     318.46710712   -1033.01658173
C        0.54171095       6.19159531       8.04855953       0.00000000    3037.96216103   -1391.76777895   -3496.65957159
C       -0.45095277       7.70823872       4.52718293       0.00000000    6079.73028275   -1021.29592903    8620.07480610
C        6.56463388       6.79184999       3.24483252       0.00000000    -579.02014390   -5645.94813767    3044.19585531
C        3.47136957       2.36036331       7.37474978       0.00000000   12851.77751733  -19814.73279817   40778.38159459
N        2.88690913       3.07824239       5.23224632       0.00000000 -366148.18542586 -667665.84598776 -205075.20970203
C       -5.52550235       9.28349532       6.66915957       0.00000000    -148.75098789    -412.49574867     141.88001052
C        5.88771995      -1.21024878       6.37164834       0.00000000      30.93466084    -317.03419188      13.89001202
C        6.79979822       3.21561891       0.75819690       0.00000000   -2735.30515824     965.20906799    2734.59925125
C        4.69684386       4.53180971       6.98580945       0.00000000   67406.58599958  -12117.70012137  104773.10542282
O        7.62191802       5.90510697      -2.04780900       0.00000000      -2.41052528      -0.04485726      11.08910828
C        5.63284448       8.76481379       1.91866571       0.00000000   -1150.29283014   -1775.04693045     408.16074111
C        8.07367808       0.31162144       5.35764309       0.00000000      59.27501250     109.78422474      82.16342258
C        7.29433257       1.53114992       3.48371034       0.00000000   -3937.58485626    2734.09283794    1153.67766380
C       13.77036739       4.81789544       0.08805931       0.00000000    1908.09573669     175.64166462    4601.74999697
C        5.48870573       7.29426096       5.55311254       0.00000000   14036.60243328   11201.75849347    6659.82258387
C        4.87125205       9.91962882      -3.45415103       0.00000000       1.88235277       1.60158222       1.83395717
C       -3.56437562      -1.07515962       5.96468254       0.00000000     368.05214961   -2656.06988448    -837.21282078
C        1.37337653      -2.29273023      10.63844251       0.00000000      -0.46410412       2.16600333      -0.02708408
C       -4.90208102       2.42779836       3.23870349       0.00000000   -4557.20392528    2946.01428365    1772.71927857
C       -0.74459129       7.70644361       3.99738303       0.00000000    1269.96988387   -4945.49059314   -7477.31024869
C       -7.38401808       6.66318158       3.81005761       0.00000000  177163.83937759  185179.73690839  -99430.75754619
C        2.49476628       0.39446239       6.03244603       0.00000000     479.37975991    2254.59830936   -1160.78907347
N        2.27569871       3.29361321       4.52621376       0.00000000 -553763.34851746 -1035285.32069032 -444669.67738062
C        2.09060210       3.18220149       4.05343382       0.00000000 1054856.84175066  954787.60901236 1213908.12116274
C       -0.04479723       5.20030641      -3.68258169       0.00000000       3.21092067       4.01472486       5.79071455
C       -6.07674678      11.21162761      13.12977668       0.00000000      -1.56068030      -0.11957838      -2.13520933
C        6.72070732       5.36707470       3.14647012       0.00000000   -5900.77176385   -2966.56107406    1118.14652928
O       13.31830947      10.90298069       0.14860650       0.00000000       4.77382976       7.80791187      17.69514916
C        3.47179629       8.65716813       4.31091812       0.00000000   -2335.86099573    3192.08385845     -40.15268497
C        5.76864894       9.20803506       8.46771118       0.00000000       7.23700896       1.19691902     -11.08860662
C        6.44038699      -0.39591323       6.30507621       0.00000000     205.45116334    -219.15500903     124.16604282
C        8.15552303       3.90514701       0.50130226       0.00000000      64.75045721       4.61376635    -101.55979144
C        2.39911698       8.22632995      -0.15037222       0.00000000       5.88358145     -12.92657478      20.18382460
C        4.75070380       6.11523278       2.99535149       0.00000000  169730.85058182  141291.27601561 -208049.85204056
C        2.68740610      10.65813587       7.05106073       0.00000000     -37.79371617      64.50541144      69.25364880
C        6.24737468       0.46105344       4.36892290       0.00000000   -2563.60439694    4246.43254076     331.61367120
C        6.56090660      -1.11821617       1.48288072       0.00000000       8.42027212       2.86056164       7.29859372
C        9.00128921       8.08934835       3.04931014       0.00000000     198.23022538      32.77045378     162.31812888
C        2.30717917       6.44994636      -2.31262685       0.00000000     -12.43850706       1.17177226       6.08217879
C        1.55348135      12.11684959       0.10636518       0.00000000       0.52854038     -16.50659340      -4.38344496
Zr       2.58914480       4.57901223       5.54273065       0.00000000   19878.71182177 -379131.04763305 -434785.09257427
O        3.22332664       4.54087005       4.66723830       1.00000000 42518665.03371453 -17922183.29635745 -15873699.95569014
O        3.21936961       4.53143384       4.66758553       1.00000000 -43126931.81464682 18772573.85302390 15842287.21895100
