52
Lattice="12.336457 0.0 0.0 -6.168228499999997 10.683685154694365 0.0 0.0 0.0 15.0" Properties=species:S:1:pos:R:3:initial_magmoms:R:1:forces:R:3 energy=-1548170.3297692426 free_energy=-1548170.3297692426 stress="373.59263303693734 -314.403894635174 284.94523087358 -314.403894635174 829.8000334994047 -156.67337699162297 284.94523087358 -156.67337699162297 12.687868047177098" pbc="T T T"
C        3.80359193      -0.26396271       4.48387855       0.00000000      31.33875936     -61.95517642      19.57656820
C       -1.63672751       2.76115891       2.00475572       0.00000000    7104.51026455  -15375.66512374   -7380.79120970
C       -6.90189005       5.07492535       1.87361762       0.00000000      -9.44943060       8.67297899      -9.35475064
C       -4.39002263       7.73603662       3.05105168       0.00000000     135.76714614     -44.84074240     -14.01585730
C       -4.27445904      14.44987861      -2.39880572       0.00000000      53.09644684    -353.60057760     961.15282949
C        0.06598682      -0.44614768       9.26260841       0.00000000      -5.13098710      -6.26352198       2.33692343
C       -2.38368552       3.47349063       5.30551300       0.00000000  -20562.11649231  -11341.83097016  -10384.82808225
C       -3.11569639       1.73449757      -0.67697043       0.00000000      51.22068327      49.32975084     131.70372991
C       -5.61745291       3.63901892       2.12905848       0.00000000      -9.28605577      -8.55957454      -1.78929929
C       -1.87818699       1.93486370      -4.93588903       0.00000000    -113.19968777    -125.29117813      80.39423603
C        8.69443737      -0.11050830      -2.36713803       0.00000000      -3.16658583       0.03846342      -7.13846620
C        8.29879859       4.31549352      -5.84696224       0.00000000      14.98310309      11.21284771      -4.63432824
N       -4.18146625      -0.41021585      11.03293587       0.00000000       5.84875845      37.84139038      38.07332454
N       -0.47309409      -6.34192566       0.40889413       0.00000000       0.43374738       1.11304635      -5.21340946
C        1.04747629       7.96646582       2.73544689       0.00000000   -3707.35762978   10918.07247884  -14955.38859516
C        5.48827091       1.11894154       3.32948438       0.00000000       1.10047446       7.54810754       0.13083911
C        4.92068887       1.99346206       4.41173163       0.00000000    1010.58904121   -1151.06784671    -834.45192309
C        7.12028883       6.15272658       2.94456819       0.00000000     -23.00725412      11.82373159     -14.80777227
P        7.00354199       4.22614938       5.53560204       0.00000000     342.36008092      36.44322063     -29.75478999
C       -2.26340280       6.72922466      -2.58087904       0.00000000     -61.19496220      -8.11765189      17.44840336
C        9.20940022      -0.91960875       3.11134873       0.00000000     -21.50192653      76.17341150    -156.96530798
C       10.40548056       2.00512735       2.44661248       0.00000000     162.56929278    2410.05749543   -1053.41958929
C       13.44094579       4.85090183      10.36972249       0.00000000   -1917.79415673   -6146.09971144  -13004.97995837
C        0.65690025       3.55081476       3.73591348       0.00000000   -4831.37951970  -12662.84741068  -25245.73765209
C        9.77775055      12.47025320      13.55141149       0.00000000       2.92953142      -3.82052801       4.33370871
C        1.39157740      -0.23626155       5.84644613       0.00000000      28.90010396       9.49493590      -9.87124714
C       -1.81115694       3.17002611       2.20197589       0.00000000   -7840.36922986   12318.17125991    7211.96131198
C       -0.35395335       8.26537021       4.03189081       0.00000000   -8822.33010606   14932.38038377  -16268.07771798
C       -3.80793265       6.89826388       1.99185775       0.00000000     -12.26436891       9.76914053     -18.06681051
C       -3.41896570      11.20838122       6.48797167       0.00000000    3512.75047606  -15842.75158395   -2143.04059730
C        1.54845805      -1.26089912       4.27179912       0.00000000     133.07201819      41.71598419      -6.28884593
C       11.83502593      -2.97596694      -5.07284892       0.00000000    6961.26619518    4005.42978772    4322.14793587
C        5.80588352       7.86965908       5.79588514       0.00000000    8377.17338936    7057.10062560   -2345.25709104
C        0.60184049       7.48817697       2.14319697       0.00000000   -3290.30432277    5655.83463890  -14158.54626162
C       -1.51969281       7.73165393       1.22833342       0.00000000     264.78581886       4.60529715     117.62701933
C        5.01510219       2.57851023       8.66427942       0.00000000   14959.46416501  -13127.11264598    6330.10933127
C       -1.38450337       7.13096127      12.23297474       0.00000000      17.36520975      46.77367851       3.05252316
C       -5.13309360       7.98413587       3.06842413       0.00000000    -167.44317962      59.97523510      18.94339248
C        0.87005728       8.18000238       2.22712950       0.00000000    2874.43619457   -2612.39189262    1546.19059115
C       11.66158129      17.80387846      -2.93110709       0.00000000      -2.25533660       3.40956516     -16.27769110
C        9.57109838       2.42394503       3.65103953       0.00000000    -120.75277591     163.36376296     446.50339107
C        1.97502001       4.07652197       5.63775551       0.00000000   54000.13937205  143609.38682295   -3254.77862335
C        8.70098197      10.22709055       6.45826631       0.00000000     194.89536998     377.74718610     100.58061754
C        5.52333846      15.41926854      15.95472835       0.00000000     103.44201852      66.70160429    -147.15768240
C       10.00410451       2.54391408       1.48782356       0.00000000     508.17985000     483.42447781     984.09702406
C        3.74438564       5.60438412       2.10078653       0.00000000    3892.62400336    -231.88408845   -8831.99331033
C        9.62211208       5.30352249       5.44642273       0.00000000  -20990.01813604    -496.45535269   -8640.38001641
C        6.95738132       9.22759745       4.40024291       0.00000000    -201.17236765     -92.08132734      68.31215954
C       -3.68814293       9.24742359       8.84056937       0.00000000      11.33535833      -7.46842958       1.55907878
Zr       1.50083293       5.67495220       7.16966134       0.00000000 -3993043.98407853 13390394.55197253 -1155124.97414927
O       -0.04038602       6.15341800       6.41736456       1.00000000  798358.66016677 -727066.84230314  486316.97551588
O        1.54484562       5.77972772       7.16569603       1.00000000 3162640.24155057 -12786041.21564484  775344.77058082
