52
Lattice="12.336457 0.0 0.0 -6.168228499999997 10.683685154694365 0.0 0.0 0.0 15.0" Properties=species:S:1:pos:R:3:forces:R:3 energy=-447.2103519095655 free_energy=-447.2103519095655 stress="-0.003498069341448157 -0.00017548434678315607 8.376496044438671e-06 -0.00017548434678315607 -0.0031165877349984992 -8.833139000649785e-06 8.376496044438671e-06 -8.833139000649785e-06 8.554956728740144e-06" pbc="T T T"
C        0.00383005       0.01339843       3.57950265       0.00075408       0.00032834       0.01020038
C       -1.24251800       2.13846794       3.37271118       0.00538473      -0.00304085       0.00043083
C       -2.47211192       4.29481769       3.29291620       0.00704332      -0.00556536      -0.00120863
C       -3.70151178       6.43162666       3.43984690       0.00040125      -0.00025970       0.00717175
C       -4.93452240       8.56518610       3.62752264      -0.00284288       0.00063896      -0.00123478
C        2.46790090       0.03721421       3.65803844      -0.00109284      -0.00014205      -0.00517051
C        1.17295016       2.11316012       3.81470459      -0.00289169      -0.00189836       0.00253663
C       -0.09632961       4.24533715       3.69982538      -0.00365226       0.00537462       0.00705828
C       -1.25558562       6.42215708       3.64788809       0.00268108      -0.00050060      -0.00071449
C       -2.46665705       8.56543828       3.60857401       0.01092513       0.00635750      -0.00856336
C        4.93134779       0.01516283       3.57987613       0.00110503       0.00094307       0.00212967
C        3.76227288       2.11395505       3.84319040       0.00152532       0.00034093      -0.00590091
P        1.18676063       6.34378447       4.87576815      -0.00244454       0.00845086      -0.00376309
C       -0.01146490       8.58647487       3.87398127       0.00111775      -0.00438995      -0.00144216
C        7.40158912       0.02404996       3.57353298      -0.00361480      -0.00576745      -0.01084644
C        6.17816339       2.14174754       3.41381321      -0.00685588      -0.00128265      -0.00014489
C        5.04136574       4.24582076       3.81221035      -0.00101439       0.00414068      -0.00417049
P        3.77763495       6.37183274       5.01862493      -0.00027218       0.00926649      -0.00984643
C        2.47050693       8.65086805       4.11947820       0.00279989      -0.00115398      -0.00570783
C        9.87175582       0.02359040       3.57335406       0.00451047      -0.00125849       0.00102819
C        8.63573952       2.15113608       3.30175020      -0.00296664       0.00342216       0.00337522
C        7.40682229       4.29534853       3.33535734      -0.00706773      -0.00360479      -0.00029718
C        6.19450832       6.42068843       3.72191112      -0.00732169      -0.00093115      -0.00038638
C        4.94842051       8.58835857       3.91545273       0.00266801      -0.00171041       0.00155289
C       -0.00625025       1.43901336       3.53113967      -0.00047056      -0.00143696       0.00015878
C       -1.25138354       3.55408794       3.34448072       0.00536059      -0.00399367       0.00337922
C       -2.46887883       5.71625939       3.41164748       0.00358746      -0.00651290       0.00258558
C       -3.70093031       7.85448989       3.54714364       0.00469754       0.00942811       0.00426376
C       -4.92591606      10.00114422       3.62736862      -0.00296491       0.00206296       0.00502125
C        2.46759685       1.49043936       3.80907638       0.00063307       0.00106715      -0.00394739
O        1.01031441       3.49332474       4.14709023      -0.00776021      -0.00248047       0.00063779
C       -0.07900487       5.63084841       3.88515583       0.00385304       0.00784064       0.00124669
C       -1.23763292       7.85010198       3.72272631       0.00457773      -0.00363218       0.00635178
C       -2.47483403      10.00141662       3.62165944       0.00275404       0.00437378       0.00449522
C        4.94163708       1.44148279       3.55698953       0.00065763      -0.00472624       0.00824378
O        3.92990482       3.48220331       4.22465746       0.00799773      -0.00054268      -0.00781367
C        1.21538042       7.97686455       4.24980425       0.00180191       0.00400495      -0.00555959
C       -0.00269634       9.99813722       3.65099319      -0.00324473      -0.00416561       0.01357737
C        7.39892440       1.43846320       3.38378028      -0.00561198       0.00046461       0.00057546
C        6.18834850       3.55701988       3.42033156      -0.00774695       0.00019266      -0.00284742
C        5.02688813       5.63066543       4.00789695      -0.01017895       0.00595566      -0.00205811
C        3.72374732       7.98194381       4.30088626       0.00088418       0.00450104      -0.00510698
C        2.46901204      10.02174906       3.73112243       0.00094623      -0.00407911      -0.00941584
C        9.87301747       1.43651932       3.36898567       0.00181934      -0.00078773      -0.00041167
C        8.63493959       3.57893888       3.25720929      -0.00099506       0.00187797       0.00445798
C        7.40304823       5.71604909       3.45313967      -0.00405845      -0.00357225       0.00211299
C        6.17592255       7.85071934       3.77149475      -0.00267500      -0.00595257      -0.00508775
C        4.93863529       9.99728481       3.66446973       0.00641981      -0.00557337      -0.00150384
Zr       2.43837243       4.23207388       5.61678630       0.00897552      -0.00082722       0.00578907
O        2.38808724       4.25141279       7.46733843      -0.00685017       0.00450108       0.00796350
O        2.29800034       4.18542268       8.86082860      -0.00040545       0.00038871      -0.00070177
H        3.22688813       4.18639395       9.17593598      -0.00088193      -0.00613413      -0.00249246
