52
Lattice="12.336457 0.0 0.0 -6.168228499999997 10.683685154694365 0.0 0.0 0.0 15.0" Properties=species:S:1:pos:R:3:forces:R:3 energy=-446.71563767461936 free_energy=-446.71563767461936 stress="-0.002155045123909836 0.0015919961180057046 -4.323724992691741e-05 0.0015919961180057046 -0.00312763004026487 -1.9034903071635146e-05 -4.323724992691741e-05 -1.9034903071635146e-05 3.075938836277662e-05" pbc="T T T"
C       -0.09934850      -0.12098391       3.95801186      -0.00463421      -0.00468525      -0.01837281
C       -1.31394049       2.04805753       4.11496533      -0.02545940       0.02199490      -0.00126762
C       -2.54343686       4.17937602       3.84028782       0.00988673      -0.00745001      -0.00883717
C       -3.77813983       6.30718030       3.59128112       0.01578200       0.00395170      -0.01200707
C       -5.04337976       8.43209517       3.66229831       0.00151520      -0.00075546      -0.00303853
C        2.36512663      -0.13484177       3.91110253       0.01957055      -0.01664076      -0.03868023
C        1.15712635       1.94911048       4.35324694       0.00377943       0.00105292      -0.01294551
C       -0.17485245       4.26702479       4.40887487       0.01938181      -0.00880134      -0.01535093
C       -1.34342340       6.33381003       3.88137616       0.01527244       0.01444691       0.03745228
C       -2.56602759       8.44069094       3.76504713       0.01523854       0.00056069       0.01555205
C        4.83648551      -0.09712331       3.80227729      -0.00155708      -0.00633829       0.00505729
C        3.57953612       1.96479056       3.64938805      -0.00848617       0.03333759      -0.00738467
O        1.02012227       6.39707723       4.24913247      -0.03018340      -0.01127940       0.00173094
C       -0.11341820       8.45737489       3.93283655       0.01503025      -0.02840507      -0.03446444
C        7.30465706      -0.09245107       3.87885521      -0.02132187       0.00493491      -0.00867195
C        6.08621205       2.02833460       3.53887719       0.00103188      -0.00380968       0.00609733
C        4.97998580       4.16925148       2.98443460       0.00047049      -0.01213499      -0.00934532
S        3.39498992       6.27893237       2.71868460       0.01654173      -0.02129537       0.02388177
C        2.33999802       8.44120644       3.92335181       0.00300719       0.00459652      -0.01430758
C        9.77632276      -0.10346793       3.92907323      -0.01421125       0.02046500       0.01088190
C        8.55710055       2.03949280       3.79315463       0.01045121       0.00370332      -0.00234688
C        7.35768579       4.16187148       3.43095496      -0.00848401       0.00347126       0.00636148
C        6.13169388       6.32830363       3.24449281      -0.01319055       0.00626252       0.01765640
C        4.82761962       8.43528014       3.63838119      -0.00883434       0.01747828      -0.01579804
C       -0.09031862       1.30766431       4.16389649      -0.03688768       0.00578466       0.01673165
C       -1.32692351       3.48177901       4.12313670       0.00538432       0.00322105      -0.01255054
C       -2.55408620       5.59617167       3.75522840       0.02236842      -0.00028358       0.02311611
C       -3.79986319       7.72762875       3.65802882       0.01102061       0.00957902       0.00880390
C       -5.04311056       9.84557324       3.86592765       0.01135838      -0.01390535      -0.00453151
C        2.37199741       1.28103213       4.01083561       0.01450622      -0.00965728      -0.00143346
S        1.16963173       3.47476961       5.16239871      -0.00406762       0.00850449      -0.01730168
C       -0.16545802       5.65752043       4.18188530       0.00953792      -0.00772985      -0.00000829
C       -1.34377372       7.74755087       3.83747306       0.01464281      -0.00094956       0.02933713
C       -2.56382402       9.86381746       3.82075863       0.01439222      -0.00702239      -0.00971377
C        4.83854545       1.32850256       3.65370389      -0.01208097       0.00908924      -0.00448897
S        3.36760049       3.49731296       2.89596472      -0.02757506      -0.03107233       0.00956614
C        1.08924720       7.77141953       4.02170282       0.01016721      -0.02653821      -0.02908618
C       -0.09580480       9.88588804       3.87223385      -0.00656009      -0.03027714      -0.01825277
C        7.31042586       1.33202259       3.73644691       0.00914188       0.00662546       0.01388286
C        6.13657733       3.42647699       3.29060019      -0.02223581       0.00050950      -0.02347670
C        4.98059520       5.57149361       2.95902124       0.00042926       0.01875875      -0.00949137
C        3.57374935       7.77641506       3.60505206      -0.00231459       0.00248668      -0.00139511
C        2.36344755       9.87344238       3.93725564      -0.01536269       0.01882918      -0.00958845
C        9.79392724       1.33430263       3.95097958      -0.01049456       0.01608304       0.04033481
C        8.56934341       3.45771520       3.68557019       0.00632344      -0.00543405      -0.01121175
C        7.35046182       5.59014880       3.39944999      -0.00579851       0.00923114       0.01247824
C        6.06885256       7.73308711       3.48599453      -0.01189873      -0.00492219       0.03583953
C        4.83347370       9.85763927       3.86298791      -0.00687370       0.01262986       0.00756757
Zr       3.15938795       5.24868959       5.24299141      -0.03090056       0.00595516      -0.00329075
O        4.61872269       4.47204657       5.90623531       0.03641534      -0.03893251       0.03844394
O        2.63055291       6.62760772       6.57156153       0.02469484       0.05134725       0.05460713
H        2.87155873       6.98318837       7.44055895      -0.00792947      -0.01657092      -0.05674046
