52
Lattice="12.336457 0.0 0.0 -6.168228499999997 10.683685154694365 0.0 0.0 0.0 15.0" Properties=species:S:1:pos:R:3:forces:R:3 energy=-446.926798353248 free_energy=-446.926798353248 stress="-0.0047308309548020604 8.932618810517859e-06 5.7426152442961183e-05 8.932618810517859e-06 -0.002993686096230507 9.140710286541577e-06 5.7426152442961183e-05 9.140710286541577e-06 -1.9865894448800725e-05" pbc="T T T"
C        0.03657686      -0.00554922       3.51407045       0.00420400      -0.00319176       0.00844023
C       -1.20574304       2.12723039       3.43773509       0.00153628       0.01159982       0.00717951
C       -2.42873259       4.27155526       3.39320172       0.00044700       0.01171389      -0.00390880
C       -3.66011347       6.40893568       3.44594513       0.00076183      -0.00576392       0.00187967
C       -4.89833450       8.54604397       3.54428040       0.01166892      -0.00394627       0.00016833
C        2.49717623       0.00385324       3.55935920       0.00343531       0.00139220       0.00737444
C        1.24213264       2.08870329       3.74460229       0.00238249       0.00280479      -0.01564678
C       -0.04330646       4.27487011       3.73549510       0.01147911      -0.00729675      -0.00095878
C       -1.21157898       6.41223878       3.45652131      -0.00759616       0.00207977       0.00075734
C       -2.42799951       8.54621880       3.42398747      -0.00475804      -0.00017177      -0.00640462
C        4.97274130      -0.00579014       3.57484968       0.00297571       0.00211031      -0.00380589
C        3.74371438       2.04575537       4.10764612       0.00173630       0.00522913      -0.00360246
O        1.19302462       6.50362250       4.00181101      -0.00721299       0.00004563      -0.01345501
C        0.03312315       8.53808991       3.51742460      -0.00393404      -0.00128561      -0.00294678
C        7.43809273      -0.01219748       3.51820165       0.00347969      -0.00819410      -0.00823292
C        6.22382119       2.12056145       3.76004413      -0.00028337      -0.00297239      -0.00521853
C        5.15620983       4.27430906       4.36925780      -0.00360650      -0.00458837       0.01711822
P        3.77528690       6.47490541       5.10554878      -0.00934016       0.00062896       0.01698004
C        2.48847816       8.54223379       3.78700411       0.00799895       0.00151636       0.00548716
C        9.90166438      -0.01279068       3.50707494      -0.00014504      -0.00142304      -0.00115005
C        8.66996566       2.12791505       3.44753529       0.00422079      -0.00138495       0.01184060
C        7.46444768       4.26688174       3.62011690      -0.00675638      -0.00365852       0.00220459
C        6.27106310       6.42349206       3.89422832       0.00396718       0.00757893       0.00526855
C        4.97879206       8.55627609       3.81175926      -0.00165824       0.00452266      -0.00527379
C        0.03262862       1.42394259       3.51830562       0.00047543       0.00293902      -0.00643964
C       -1.21229353       3.54908713       3.45723685       0.00192679       0.01208476      -0.00575965
C       -2.42842949       5.68987415       3.39276488      -0.00258632       0.00723688       0.00355905
C       -3.66596375       7.83483488       3.45097620       0.00333068      -0.00772885       0.00157093
C       -4.89843318       9.97494577       3.51667501       0.00543290      -0.00272661      -0.00209713
C        2.48869721       1.41961776       3.78767316       0.00296494       0.00526195       0.00620754
O        1.19355266       3.45897253       3.99877348      -0.00712404       0.00554470       0.00045342
C       -0.04230486       5.68754715       3.73562172      -0.01401879      -0.00959370      -0.00772844
C       -1.20504898       7.83427382       3.43906478      -0.00781259      -0.00014205      -0.00526480
C       -2.43446199       9.97517487       3.50465393       0.00095057       0.00032571       0.00972382
C        4.97900951       1.40538070       3.81454934       0.00117845       0.00231541      -0.01640083
P        3.77557619       3.48734889       5.10736867      -0.00205219      -0.00164223       0.01051995
C        1.24242352       7.87297740       3.74250697       0.00131146       0.00224378      -0.00592914
C        0.03688182       9.96787849       3.51476246       0.00254930      -0.00210328       0.00518186
C        7.43804416       1.41678270       3.54196033       0.00325635      -0.00593690       0.01296405
C        6.27152436       3.53875167       3.89386559      -0.00843976      -0.00496564       0.00677995
C        5.15580842       5.68762706       4.36900389       0.00391589       0.00055777       0.01146842
C        3.74363427       7.91572893       4.10491575       0.00247691      -0.00669161      -0.00067164
C        2.49694112       9.95866130       3.56229446       0.00359919      -0.00345421      -0.00279502
C        9.90756992       1.41601034       3.42290788       0.00560814      -0.00459319      -0.00527907
C        8.67593033       3.55354342       3.44442926      -0.00115626       0.00379946      -0.00226288
C        7.46445979       5.69589127       3.62153685       0.00275840      -0.00127015      -0.00790668
C        6.22359888       7.84152814       3.75959185       0.00545201       0.00966820      -0.00277832
C        4.97255232       9.96799973       3.57489557       0.00071446      -0.00195541      -0.00670908
Zr       1.66783384       4.98088379       5.49081964      -0.00081751      -0.00454420       0.00092620
O        1.34238007       4.98341034       7.30258519      -0.00499040      -0.00298567      -0.00970527
O        0.99788767       4.98327963       8.65548338      -0.00767153       0.00092783       0.00235655
H        1.85503548       4.98953830       9.13195501      -0.00623511       0.00008324       0.00192158
