51
Lattice="12.336457 0.0 0.0 -6.168228499999997 10.683685154694365 0.0 0.0 0.0 15.0" Properties=species:S:1:pos:R:3:initial_magmoms:R:1:forces:R:3 energy=-440.0729504783212 free_energy=-440.0729504783212 stress="-0.0013957515866742454 0.002796082561710266 -3.486420956286897e-06 0.002796082561710266 -0.0017520669921347201 -1.205662389188701e-06 -3.486420956286897e-06 -1.205662389188701e-06 -4.803110906233072e-06" pbc="T T T"
C       -0.05510850       0.03605140       3.80237133       0.00000000       0.00056933       0.00238772      -0.00361832
C       -1.24704416       2.19146287       3.98096259       0.00000000      -0.00541157       0.00188500      -0.01207656
C       -2.50017396       4.31848671       4.15363977       0.00000000       0.00239102       0.00135565      -0.00490386
C       -3.76417053       6.44751096       4.01149853       0.00000000      -0.00079014       0.01103920      -0.00170589
C       -5.00953457       8.57121941       3.83077103       0.00000000      -0.00038985      -0.00638646       0.01158342
C        2.41142403       0.00944135       3.66206327       0.00000000       0.00344993       0.00046350       0.00423387
C        1.15109233       2.08117434       3.15646481       0.00000000       0.00475948      -0.00430125       0.00108955
C       -0.07984226       4.39975498       4.40562554       0.00000000       0.00282863      -0.00392613       0.00274863
C       -1.34639999       6.50023831       4.32817549       0.00000000      -0.01262912       0.00157665       0.00452278
C       -2.53950455       8.59401770       4.02650363       0.00000000       0.00666929       0.00588871      -0.00024771
C        4.88622904       0.02906015       3.78881656       0.00000000      -0.00172057       0.00915344       0.00334612
C        3.68278076       2.02798087       3.10470642       0.00000000       0.00258431       0.00931603      -0.00621242
O        1.07938859       6.52048625       4.32181292       0.00000000       0.00524580      -0.00843635      -0.00330391
C       -0.07143384       8.59224383       4.13499526       0.00000000       0.00066736       0.00016691      -0.00402759
C        7.35200377       0.03214012       3.96897897       0.00000000       0.00711454      -0.00786665       0.01530472
C        6.15370307       2.14705642       3.57326529       0.00000000       0.00158567      -0.00536109      -0.00596597
C        5.11602139       4.30404679       2.97699230       0.00000000      -0.00181757       0.00109366       0.01098709
S        3.52090971       6.42652331       2.68883934       0.00000000      -0.01757768      -0.00826094       0.00080014
C        2.38611989       8.56341953       3.94947853       0.00000000       0.00063251      -0.00726014      -0.00031851
C        9.82254317       0.03331542       3.96976914       0.00000000       0.00434500       0.00078345       0.00988612
C        8.60817685       2.17258355       3.96278088       0.00000000      -0.00214062       0.00619303      -0.00069100
C        7.40120864       4.29846632       3.75623639       0.00000000      -0.00084723       0.01009220      -0.01307999
C        6.16032904       6.44528151       3.53580419       0.00000000       0.00252913      -0.00248401      -0.00308705
C        4.86075339       8.56908235       3.71910885       0.00000000       0.00063886      -0.00329621       0.00013775
C       -0.04744951       1.46231040       3.70821910       0.00000000      -0.00008084       0.00067954       0.00410349
C       -1.24642299       3.62091672       4.19732809       0.00000000       0.00121073      -0.00512794       0.01043215
C       -2.54039415       5.74158164       4.19435714       0.00000000      -0.00948911       0.00298672       0.00135161
C       -3.77292369       7.87046798       3.96880529       0.00000000       0.00724654       0.00603124       0.00098061
C       -4.99733907       9.99665792       3.77409282       0.00000000       0.00047508      -0.00526617      -0.00173689
C        2.42407738       1.39004311       3.30043432       0.00000000       0.00584432       0.00160244       0.00164196
S        0.97096227       3.39089677       2.06374109       0.00000000      -0.00602853      -0.00391650      -0.00762599
C       -0.14509413       5.79291019       4.41350502       0.00000000      -0.01055766      -0.00700235       0.00114819
C       -1.32210794       7.90244445       4.19087050       0.00000000      -0.00007069       0.00090954      -0.00215683
C       -2.52438517      10.00629928       3.83244272       0.00000000       0.00409354       0.00540502       0.01032770
C        4.91249835       1.42877461       3.48541816       0.00000000      -0.00118928       0.00673303      -0.00639752
S        3.73844624       3.53536648       2.20838358       0.00000000      -0.00105545      -0.00493273       0.01231283
C        1.13395147       7.90051246       4.11532892       0.00000000       0.00023680      -0.00352522       0.00022365
C       -0.05336434      10.01412312       3.97859515       0.00000000      -0.00045398       0.00272112      -0.00938836
C        7.36404282       1.45964839       3.85260251       0.00000000       0.00288659      -0.00686385       0.00710825
C        6.21513067       3.56257644       3.43612134       0.00000000       0.00553283      -0.00421462      -0.01730573
C        5.05860340       5.69784555       3.08626220       0.00000000       0.00199465       0.00078024      -0.00206695
C        3.61107718       7.91277784       3.58371740       0.00000000       0.00170403      -0.00271223      -0.01205944
C        2.41170837      10.00028281       4.00717981       0.00000000       0.00940618      -0.00825837       0.00476123
C        9.84700709       1.46943510       4.00761408       0.00000000      -0.00301292       0.00431013      -0.00484367
C        8.61827227       3.59505487       3.97322387       0.00000000      -0.00137872       0.01033902      -0.00259073
C        7.37468320       5.72378329       3.78188791       0.00000000       0.00022004       0.01044264       0.00250448
C        6.10292534       7.86090329       3.68570333       0.00000000      -0.00037223      -0.00577772      -0.00733836
C        4.87603826      10.00153606       3.87833095       0.00000000       0.00236384       0.00094520       0.01253285
Zr       2.20325011       4.52241903       4.27442327       0.00000000      -0.01102480       0.00762421      -0.00351838
O        3.45331079       4.66944511       5.73983561       1.00000000      -0.00254620      -0.01680664       0.00180624
O        2.66533434       3.42166257       5.76492075       1.00000000       0.00135877       0.00907832       0.00039217
