51
Lattice="12.336457 0.0 0.0 -6.168228499999997 10.683685154694365 0.0 0.0 0.0 15.0" Properties=species:S:1:pos:R:3:initial_magmoms:R:1:forces:R:3 energy=-2311297.7231249707 free_energy=-2311297.7231249707 stress="-439.550178475659 -564.6419092027777 453.4943304951394 -564.6419092027777 3196.7055679390196 -1641.175984348269 453.4943304951394 -1641.175984348269 3084.1810097541174" pbc="T T T"
C       -0.00677808       3.65844132       2.74255695       0.00000000     -41.80840531    -775.19570948    -456.40069511
C        1.05109751       6.14580772       6.06959526       0.00000000 -415631.69566797  873259.63392916 -124242.20729268
C        8.19492125     -14.63784162       0.99091447       0.00000000    1288.19059854    1310.91987350    -488.80929438
C       -5.06355590       9.23872947       2.85441350       0.00000000    3718.11112994     840.74896786    6101.70513930
C       -5.85032149       9.27762530       3.30776102       0.00000000   -1346.59831153     187.61854235    -586.00925260
C        0.56733550      -0.01034660       5.85092481       0.00000000     400.25221357    -199.05530850     278.82434806
C        9.10137049     -11.15796329       0.27864940       0.00000000   38378.90107131  -33695.40749544    7596.30278122
C       -0.71440863      10.11400988       4.05923158       0.00000000  176482.70674684 -324543.56964327  276795.25178251
C       -4.33626627       9.15634852       0.83851149       0.00000000  -19396.56136001   -8764.41199583   -1820.72766044
C       -4.87237737      10.48314829       3.08654449       0.00000000     396.52825474     173.02387781    -364.93363140
C        3.49527183      -1.42388036       1.07333811       0.00000000  -26923.33558705    8916.35590693   -8482.91502139
C        3.74934683      -1.08861706       0.36794944       0.00000000   42445.75623414  146692.10126569   66763.84448175
O        1.40893143       9.64347515       5.30934229       0.00000000 1147835.64452469  143133.95640192 -370950.88510340
C        0.46059285      12.73603970       2.54641931       0.00000000    1377.59537065   15360.69904116  -12377.45401970
C       10.45985014      -5.03549121       3.69711574       0.00000000    5384.68019081   -4220.71740659   -2697.96431061
C        1.42441687       6.16718031       2.62307656       0.00000000   11899.22948939  -24866.79887306  -25979.32701861
C        3.63738167       4.83713067       4.21308554       0.00000000    2319.41352826   -3845.79699279    -808.55209354
P       14.61570134      -4.95243520       8.94712380       0.00000000    -187.44546397    -106.95995243     129.23097489
C        8.90812369      11.17811926       8.03289242       0.00000000  -20363.09591108   12436.62070816   11741.67527430
C       12.05339996      -0.17640800       6.52967348       0.00000000      47.86732358     -45.64681678     -16.72731745
C        4.87157560       1.71646243       2.11262627       0.00000000   -3019.90577161    5612.85098783   -7516.02874349
C       10.74527687       1.32125733       9.84400854       0.00000000      11.32083302       2.70837253       3.31623535
C        5.16803377       6.31047448       4.13906549       0.00000000    2226.32422013   -1007.92013239    -756.23120407
C        1.00430838      13.51382611       3.36759253       0.00000000    1009.98176950    6679.52051737   -3524.15948251
C        0.31473352      -0.85449378       1.02345656       0.00000000    -361.84449637     470.85149745    -588.82495128
C        0.80730824       1.51202214       6.08985810       0.00000000     -36.41670675      17.58099337      -8.22615182
C       -2.29192489       9.28216906       0.23749373       0.00000000  -12101.60357036  -98840.84167286  -19428.57841019
C       -5.38724949       9.14484684       2.32033434       0.00000000   -3016.21185028    -454.73733367   -3733.10655210
C       -7.26943524       9.89505359       2.84295912       0.00000000     790.49504328    -293.69431157     -22.80053040
C        3.75050248      -0.43985120       0.83971765       0.00000000   -2578.36200780  -51354.36060656  -13565.59797186
O        2.25203241      -0.90635936       7.15794000       0.00000000  -18455.40467252   12696.14235285    6405.97437063
C       -1.87785007       8.87686140       3.85859859       0.00000000  253665.62473826   22902.40634731  258665.88436774
C       -1.73759405       9.27197624       0.92099888       0.00000000  -28744.90029128   30095.45037380  -54646.05159490
C       -5.12047541       9.15451936       1.17772995       0.00000000    -703.07333117     112.57066249    2780.12652106
C        7.75362645       2.19585950       5.80661337       0.00000000   14925.60961235   36293.17742618    -360.41447313
P        3.84257165       6.77562752       1.08613337       0.00000000    -134.81019367      22.26309518     137.60056190
C        1.38243977      10.30605484       2.54924536       0.00000000   11944.41251712   14937.01992580  -31066.19347710
C       -0.82680754       5.84464113       0.85140350       0.00000000    -952.31903944    -729.00673311   -2218.80609331
C        6.14590987       1.17648482      -0.40716087       0.00000000     -24.78989589      12.05832393     126.49992472
C        0.25816288       1.94813357       8.01140239       0.00000000      -6.65482520     -25.67649320      16.49828004
C       -1.74267608       6.87996687      15.85020748       0.00000000   -3532.27566987    6179.33551139   -7007.43608057
C        0.02082756      10.03900807       8.08149503       0.00000000   19163.27896178 -281776.69345860 -528342.45178991
C        2.92469146      10.06029763       1.30735189       0.00000000    5181.55284731    3344.42958968   -8991.21208456
C       14.34355907       1.96900386       6.35236959       0.00000000      10.46391631       3.11012388      -2.45914140
C        5.81912831       3.95248755       5.77208479       0.00000000      76.75259183    -118.72719831      -5.21418247
C        6.17383293       2.48907680       1.37594981       0.00000000      81.33210454     249.49732461     151.30659743
C        7.39064285       8.66459531       4.01060908       0.00000000  -14069.59249630     120.09406356   -4570.09730052
C        6.81771006      14.72804203      -2.04278971       0.00000000      -6.22220329      13.44196913      -6.20490274
Zr       0.14318975       8.65236704       5.82306012       0.00000000 -9883631.93997133 -20413444.47464695 15394338.88025666
O       -0.19912803       7.88961082       7.59763685       1.00000000  375713.29553138 1769710.09343075 -2533482.68763790
O        0.17162051       8.51697957       5.82697310       1.00000000 8338491.54633675 18137323.41137773 -12262917.22643000
