52
Lattice="12.336457 0.0 0.0 -6.168228499999997 10.683685154694365 0.0 0.0 0.0 15.0" Properties=species:S:1:pos:R:3:forces:R:3 energy=-447.28913861274197 free_energy=-447.28913861274197 stress="-0.004815926248494853 0.0038840507148887524 2.493898430624275e-05 0.0038840507148887524 -0.004253144880560487 -1.688818070690325e-05 2.493898430624275e-05 -1.688818070690325e-05 6.711406429616762e-06" pbc="T T T"
C        0.00894471       0.00102002       3.68914958       0.00095218      -0.01187289      -0.00302803
C       -1.20822054       2.15348105       3.67740521      -0.00615939      -0.00799684      -0.00049215
C       -2.43833238       4.28025769       3.85352187      -0.00816127      -0.00882401       0.01134491
C       -3.71035344       6.41066207       3.89273682      -0.00413417       0.00279150       0.00300455
C       -4.94591703       8.54138334       3.78363422       0.01096932       0.00109905       0.00039645
C        2.47491930       0.00387433       3.77739614       0.00646994       0.00157931      -0.00780005
C        1.26785730       2.12161950       3.42991082      -0.00327019      -0.00838569       0.00123523
C        0.02584950       4.34913844       3.61901675       0.00621538       0.00886888      -0.00072461
C       -1.27028126       6.45022228       3.83799968      -0.00767504       0.00404721      -0.00593542
C       -2.47919133       8.55734619       3.86288393      -0.00015684      -0.00089396       0.00095419
C        4.94182446      -0.00198407       3.86123492      -0.00155810      -0.00519066      -0.01467096
C        3.75035531       2.09024622       3.82329067       0.01131687       0.00612822      -0.01514683
O        1.14138076       6.48957128       3.84901551       0.01752906       0.00349635      -0.00027724
C       -0.01504982       8.55843617       3.79529435      -0.00158587       0.00391080       0.00243659
C        7.42101551      -0.01178479       3.84540260       0.00243108       0.00228273      -0.01006942
C        6.21097482       2.11093728       3.94537567       0.00008354      -0.00221407       0.00168045
C        5.02010739       4.22072712       3.93285165       0.00780072      -0.00355682      -0.00448012
P        3.66499343       6.23161157       2.68031276       0.01159049       0.00163020       0.00767471
C        2.45029176       8.53503945       3.63183783      -0.00790178       0.00320301      -0.00533854
C        9.88183761      -0.00118728       3.73816323      -0.00195133      -0.00078169       0.00434672
C        8.66923329       2.13362593       3.87964698      -0.00866426      -0.00586710      -0.00044604
C        7.43555015       4.26428302       3.95241586      -0.00026732       0.00476554      -0.00104657
C        6.17434251       6.39240483       3.78621734      -0.00099580       0.00073676      -0.00521589
C        4.92800244       8.53463056       3.59855803       0.00405965       0.00466450       0.00440247
C        0.02322463       1.43118323       3.59564019      -0.00448689      -0.01710369       0.00228926
C       -1.22017683       3.57238335       3.71982902      -0.00052345      -0.00355617       0.00904633
C       -2.47930684       5.70495779       3.87633531      -0.01030090      -0.00371037       0.00412802
C       -3.71511327       7.83627359       3.85808623       0.00606522      -0.00015959      -0.00170078
C       -4.93027171       9.97069039       3.74748842       0.00907319      -0.00120317      -0.00443366
C        2.50493000       1.43618851       3.67909368       0.00826466       0.00435635      -0.00107356
P        1.24231702       3.64690153       2.49010049      -0.01392132       0.00403254      -0.01364821
C       -0.07186194       5.76013219       3.76298669       0.00130235       0.00895627       0.01533060
C       -1.25923528       7.86277494       3.84573804      -0.00182171       0.00543231      -0.00192926
C       -2.46944725       9.98474257       3.84436556      -0.00068964      -0.00505840       0.00750853
C        4.96594464       1.41808284       3.87926576       0.00316687      -0.00535230       0.01225864
O        3.80072471       3.49217521       3.93781285       0.01138342       0.00426873       0.00694472
C        1.19791856       7.88680413       3.72903077      -0.00211470       0.00046645       0.00869770
C        0.00847620       9.97832951       3.83874641       0.00242623       0.00263992       0.01170104
C        7.43170520       1.41463901       3.90639493      -0.00319515      -0.00248196       0.00494384
C        6.22006265       3.52261913       3.98701311       0.00615641      -0.00112374      -0.01271438
C        4.95143197       5.61286941       3.72474111       0.00067685      -0.00468658       0.00341153
C        3.68957561       7.85165331       3.41435315       0.00023452       0.00983399       0.00736318
C        2.47552901       9.96522840       3.75673569      -0.00093375       0.00123229      -0.00797797
C        9.89673865       1.42731610       3.77844325      -0.00956522      -0.00298106      -0.01115603
C        8.66821504       3.55845012       3.91172156      -0.00946497      -0.00740030       0.00181355
C        7.39971334       5.68738435       3.90148573      -0.00336820       0.00445298       0.00243675
C        6.16066819       7.81475287       3.70337955       0.00853750       0.00139751      -0.00869740
C        4.94257961       9.96897723       3.68447857      -0.00179313       0.00134796      -0.00364857
Zr       2.25785778       4.83879418       4.67207629      -0.00406479      -0.00017722       0.01219920
O        2.02100934       4.65765587       6.50834087      -0.01623701       0.00978403       0.00330662
O        1.77536656       4.52843068       7.87520498       0.00106701       0.00054183      -0.00609287
H        2.65888250       4.60173219       8.29645309      -0.00281024       0.00263102      -0.00311123
