52
Lattice="12.336457 0.0 0.0 -6.168228499999997 10.683685154694365 0.0 0.0 0.0 15.0" Properties=species:S:1:pos:R:3:forces:R:3 energy=-441.3761397674639 free_energy=-441.3761397674639 stress="-0.004430377104317472 0.00027805831994677147 3.3791961078902415e-06 0.00027805831994677147 -0.006048900735763692 -3.3620813455450135e-05 3.3791961078902415e-06 -3.3620813455450135e-05 1.7363033690310676e-05" pbc="T T T"
C       -0.10832913       0.03078870       3.76088687      -0.00856890      -0.00010917       0.00766279
C       -1.33407218       2.18900860       3.83237941      -0.00601420      -0.00857984      -0.00491833
C       -2.59732508       4.31808300       4.08186673       0.00403563       0.00387966       0.01616481
C       -3.82448332       6.45297672       4.03609418      -0.00558740       0.00199455      -0.00063627
C       -5.05649277       8.57047377       3.84332546       0.00104301       0.00247114       0.00711405
C        2.36154484       0.00614089       3.79990702       0.00986965      -0.00369311       0.00753624
C        1.13266038       2.09431513       3.51656038       0.00280693       0.01171771       0.01376758
C       -0.19364275       4.36449194       4.06058758      -0.00282607      -0.00812634       0.00507900
C       -1.38857608       6.46421296       4.39412785      -0.00593377       0.00563512       0.00728244
C       -2.58274331       8.58636457       4.13715463      -0.00150488      -0.01123995      -0.00414957
C        4.82979010       0.03749521       3.93948112      -0.00065693       0.00207970      -0.00758806
C        3.61068521       2.13247183       3.40681309       0.00298005      -0.01100829      -0.00749101
P        1.39336052       6.32557090       4.96284417       0.00778564      -0.00371878       0.00584185
C       -0.10592713       8.60217513       4.28282017      -0.00639341       0.00097432      -0.00599889
C        7.29416160       0.05361160       3.98312956      -0.00233299      -0.00952199      -0.00107065
C        6.07951628       2.15739739       3.64993546       0.00362330       0.00047186       0.00022956
C        5.05312056       4.28197038       2.87677637      -0.00136047       0.00954859       0.00306625
S        3.41948639       6.46716906       2.61327956       0.00450350       0.00083095      -0.00260809
C        2.36323301       8.62589078       3.95388183       0.00525957       0.00816249      -0.00466126
C        9.76919169       0.05488290       3.84171996       0.00077592       0.00919647       0.01684441
C        8.53643589       2.18205289       3.89650568      -0.00490248      -0.00409449      -0.00260501
C        7.31215216       4.31379243       3.76848310       0.00357876       0.00048779      -0.00482306
C        6.09140712       6.45285832       3.52400536       0.00123802       0.00182702      -0.00129179
C        4.81952001       8.58615614       3.63850332      -0.00125329      -0.01247849       0.00036532
C       -0.11267021       1.46221717       3.71485418      -0.00196225       0.00099117      -0.00705570
C       -1.36898452       3.59731904       3.99849025      -0.00244738      -0.00853944      -0.00208409
C       -2.60524618       5.74235809       4.19819195      -0.00240910       0.00955755       0.00272402
C       -3.82011935       7.87301823       4.02282138      -0.00133777      -0.00354170      -0.01119682
C       -5.04906134       9.99514647       3.81236778       0.00281788       0.00231284      -0.01137679
C        2.35735994       1.41392940       3.55850916       0.00175657       0.00087738       0.01071503
S        1.20117757       3.79418002       3.23390614       0.00697793      -0.00232919      -0.00623082
C       -0.18566280       5.70479705       4.49075052      -0.00565671      -0.00404050       0.00365410
C       -1.35501270       7.88783369       4.32633731      -0.00377053       0.00157827       0.00238944
C       -2.57325388      10.00127711       3.97297622       0.00920590      -0.01200145      -0.00320314
C        4.84921508       1.45213663       3.67617711       0.00204060       0.00546919       0.00237707
S        3.73638872       3.35888930       2.05642845       0.00291876       0.00221958       0.01763585
C        1.16047199       7.94297248       4.31580192       0.00202771       0.00364873      -0.00495974
C       -0.10683171      10.02259672       4.08094459      -0.00802718      -0.00396028      -0.01027818
C        7.30374191       1.46655612       3.85991143       0.00033419      -0.01382556      -0.00444687
C        6.13239385       3.56909554       3.46975234       0.00150052       0.00196375      -0.00995800
C        4.96853910       5.70983570       3.04745944      -0.00218600       0.00742288       0.00511582
C        3.56123662       7.94691719       3.54533800      -0.00005946      -0.00854548      -0.01587225
C        2.36623876      10.04384097       3.94019161       0.00491299       0.00737464      -0.00064615
C        9.77640134       1.47937978       3.87272126      -0.00834163       0.00358093      -0.00375768
C        8.52692612       3.60103483       3.93980529       0.00578284       0.00019759      -0.00034674
C        7.29771836       5.73749989       3.79071864      -0.00284926      -0.00012819      -0.00143377
C        6.05384448       7.86781745       3.64907759       0.00410472      -0.00039321      -0.00740453
C        4.82452529      10.01404818       3.76721175      -0.00993442      -0.00674157       0.01459452
Zr       3.44784421       4.48601750       4.53924756       0.00065126       0.00277509      -0.00286877
O        4.41695369       4.05113600       6.01890879       0.00061939       0.00920525       0.00737585
O        5.20872234       3.65725496       7.09731765       0.00051318       0.01012741       0.00421646
H        5.08152298       4.36256125       7.77091864       0.00265203       0.00803739      -0.01079043
