50
Lattice="12.336457 0.0 0.0 -6.168228499999997 10.683685154694365 0.0 0.0 0.0 15.0" Properties=species:S:1:pos:R:3:forces:R:3 energy=-430.13306536482645 free_energy=-430.13306536482645 stress="-0.0020286280348376803 0.001826339650518539 -2.5672327687303694e-05 0.001826339650518539 -0.002449342863849982 0.00010369060426421266 -2.5672327687303694e-05 0.00010369060426421266 0.00012298586011246876" pbc="T T T"
C        0.01728990      -0.03946448       3.62292280      -0.04177595       0.05051509       0.00162652
C       -1.19850537       2.11745903       3.58970456      -0.01332249       0.02156722       0.00269165
C       -2.47637251       4.24405555       3.50999536       0.09383627      -0.00497800      -0.00020012
C       -3.71265575       6.37602975       3.42715898       0.03025255      -0.01394107       0.02268233
C       -4.93429538       8.50504696       3.48639547      -0.04136911      -0.03580971       0.01396043
C        2.48845579      -0.06370843       3.67308284       0.01190682      -0.01501429       0.00658320
C        1.28944600       2.04725979       3.81847525      -0.01756975       0.00435573      -0.03990883
C       -0.06132692       4.33296197       3.76429747       0.01635413       0.01590448      -0.04177847
C       -1.27179351       6.39106424       3.68287751      -0.01148483       0.00558357       0.00699351
C       -2.45694849       8.50815629       3.48211458       0.01533868       0.00189643       0.04126087
C        4.95741812      -0.04850833       3.59084954       0.03371755      -0.00832314       0.02472540
C        3.76258484       1.97630248       4.21317588      -0.00799612       0.01725493      -0.02931733
B        0.93322172       6.58675496       4.74351621      -0.11965986      -0.08864903       0.16983748
C        0.02683882       8.51123906       3.66266188      -0.00447061       0.05844023       0.02883233
C        7.42893376      -0.04312645       3.57130653       0.01900072      -0.01541612       0.02711694
C        6.19392322       2.10601606       3.76415142      -0.05468240      -0.02865512      -0.00010763
C        5.05061622       4.30116966       4.19054010       0.02170444       0.01740995      -0.02657954
O        3.80799947       6.42430196       4.08722995       0.07303416       0.06799077      -0.05894706
C        2.49172979       8.47152477       3.79988184      -0.00694309       0.02906031       0.01698875
C        9.88526589      -0.03955653       3.58727520       0.05650601      -0.05614886       0.01811957
C        8.65729586       2.10322627       3.52960560       0.00277846      -0.01066603       0.01190175
C        7.40161155       4.23876849       3.54806847      -0.00851750       0.07495468       0.00860341
C        6.17065942       6.37864155       3.61797401      -0.04945709      -0.00820940       0.01754522
C        4.93934462       8.49826055       3.65125724       0.01338073      -0.02596796       0.03443234
C        0.03782716       1.40131360       3.67577758      -0.03700044       0.06502531      -0.01511719
C       -1.22928950       3.54078971       3.60268150       0.04003708      -0.01310589      -0.01996923
C       -2.49012094       5.66461170       3.49406701       0.01905707      -0.02627217       0.00876633
C       -3.69805229       7.79879397       3.43915435      -0.00336643      -0.01923713       0.01490113
C       -4.92341269       9.92914865       3.57783573      -0.03426724       0.00587888       0.01817142
C        2.51065195       1.33271413       3.94493899       0.00281508       0.01455341      -0.00807070
S        1.52101968       3.72636890       3.54160297      -0.03196334      -0.03895364      -0.02441354
C       -0.09836487       5.70935227       3.98565578      -0.09267920      -0.05284206      -0.05490120
C       -1.23386348       7.81218907       3.61486369      -0.00986289       0.04287735      -0.01077766
C       -2.44784751       9.92582202       3.55655909       0.04721908      -0.01880138       0.01331735
C        4.97216396       1.36662143       3.83006983      -0.03144551      -0.02686614      -0.00915938
S        3.96150240       3.37653525       5.21576731      -0.02836308       0.05218802      -0.05150937
C        1.23793588       7.84352473       3.93470968      -0.01055163       0.03616178      -0.06479883
C        0.02528288       9.93620279       3.55025790       0.02387287       0.02809872      -0.01157217
C        7.41788969       1.39499038       3.58905108      -0.02619256      -0.02997104       0.00096057
C        6.18474946       3.53909196       3.80191154      -0.01562924      -0.00138436      -0.01340829
C        4.99898343       5.69976445       3.97245084       0.00656572       0.01065474      -0.00914789
C        3.75016665       7.78535998       3.83982816       0.02081298       0.04804435       0.00592972
C        2.49263178       9.91269796       3.62200387       0.03538208       0.00791927       0.00816641
C        9.90102591       1.39923894       3.54629801       0.01837422      -0.04383938       0.00370103
C        8.63724163       3.52224728       3.49371256       0.03858831       0.04252033      -0.00539645
C        7.39485783       5.65578816       3.49234731      -0.02505994       0.06827771       0.01415823
C        6.17405086       7.79903303       3.55769833      -0.04809937      -0.04096805       0.02033333
C        4.94276508       9.93427880       3.60827771       0.02612261      -0.05398255       0.01769008
Ag       2.38422888       4.89801968       5.98739597      -0.03322027      -0.04453133       0.07910684
O        1.09991772       6.52424126       6.05494247       0.13829231      -0.06459942      -0.16402323
