51
Lattice="12.336457 0.0 0.0 -6.168228499999997 10.683685154694365 0.0 0.0 0.0 15.0" Properties=species:S:1:pos:R:3:initial_magmoms:R:1:forces:R:3 energy=-436.5436832230359 free_energy=-436.5436832230359 stress="0.009503862512406345 -0.001149540392290998 -3.0185504676481886e-05 -0.001149540392290998 -0.008314924357251273 -1.310965920145577e-05 -3.0185504676481886e-05 -1.310965920145577e-05 -1.4821274548082842e-07" pbc="T T T"
C        0.00472878      -0.06552903       3.72060863       0.00000000       0.00888196       0.00217484       0.00295245
C       -1.19874306       2.12446259       3.58800392       0.00000000      -0.00364160      -0.00489954      -0.00105907
C       -2.42519348       4.24613949       3.60402296       0.00000000      -0.00125961      -0.00143429      -0.00674923
C       -3.68226648       6.34868304       3.74292824       0.00000000       0.00395260       0.00243970      -0.00424542
C       -4.93602865       8.46170434       3.81161113       0.00000000      -0.00948885       0.00040204      -0.01452365
C        2.47846125      -0.13974753       3.66177645       0.00000000       0.00070060       0.00383166      -0.00093460
C        1.27077253       1.99437881       3.51500822       0.00000000       0.00345532       0.00191841      -0.00718974
C        0.10293753       4.25669162       3.53725009       0.00000000      -0.00994092      -0.00376490      -0.00305158
C       -1.14690340       6.35352475       3.70908406       0.00000000       0.00157816      -0.00644985       0.01031356
C       -2.43538341       8.45927245       3.73476028       0.00000000       0.00562028       0.00502051       0.00522695
C        4.94325380      -0.05733665       3.58159379       0.00000000      -0.00377126       0.00110439      -0.00131356
C        3.65827559       1.97878858       3.32497668       0.00000000      -0.00046422      -0.00168090      -0.00815350
B        1.54181133       6.35987701       3.84935180       0.00000000      -0.00962630       0.00776874       0.00416417
C        0.03385179       8.51757461       3.73561837       0.00000000       0.01094200      -0.00932576      -0.00304859
C        7.39706106       0.01921087       3.62921620       0.00000000      -0.00159760       0.00826148      -0.00530341
C        6.14068432       2.13037242       3.45935014       0.00000000      -0.00493150       0.00035172      -0.00277552
C        4.89834751       4.29657210       3.48887718       0.00000000       0.00118679       0.01194314       0.00023380
B        3.43006704       6.36696036       3.90735048       0.00000000      -0.00052077       0.00471873       0.00642240
C        2.47629110       8.61587118       3.81201368       0.00000000       0.00599560      -0.00833179      -0.00187932
C        9.88426581       0.01866576       3.69624910       0.00000000       0.00250639      -0.00178573       0.00706839
C        8.64093498       2.13836908       3.56522055       0.00000000       0.00393094       0.01325935      -0.00545851
C        7.38706506       4.24969980       3.60011037       0.00000000      -0.00301900      -0.00742135       0.00576092
C        6.12247796       6.36049695       3.80951740       0.00000000       0.00376505       0.00006435      -0.00867339
C        4.92595132       8.52011514       3.84312170       0.00000000      -0.00678387      -0.00343315      -0.00331506
C        0.01811258       1.36517631       3.61740246       0.00000000       0.00470795       0.00276380       0.00041707
C       -1.16226347       3.54589818       3.55774512       0.00000000      -0.00781116      -0.00751574       0.00223956
C       -2.41648879       5.65645934       3.68177199       0.00000000       0.00149607      -0.00404578       0.00692743
C       -3.68389401       7.75976418       3.77792773       0.00000000      -0.00057550       0.00630035       0.00868546
C       -4.93900233       9.87456529       3.75126570       0.00000000       0.00365611       0.00028364      -0.00327160
C        2.46725132       1.26204678       3.50783904       0.00000000       0.00272529       0.00227253       0.00632467
B        1.41277930       3.46131666       3.41660047       0.00000000      -0.00415572       0.00464621      -0.00636701
C        0.13081605       5.65006741       3.68218865       0.00000000      -0.00114129      -0.00339944       0.00093918
C       -1.18750509       7.77037196       3.73291327       0.00000000       0.00722482      -0.00459781       0.01627038
C       -2.44048207       9.87552731       3.66492784       0.00000000      -0.00141334       0.00550076       0.00779016
C        4.92025232       1.37849584       3.43859127       0.00000000      -0.00221811      -0.00032196      -0.00109623
S        3.30690068       3.64554811       2.93967401       0.00000000      -0.01301267      -0.01455344      -0.00399661
C        1.28283783       7.87045278       3.80662714       0.00000000       0.00935227      -0.01143862      -0.00555981
C        0.01400795       9.95203756       3.65073084       0.00000000      -0.00134490      -0.00117356       0.00056354
C        7.38549916       1.43863781       3.54246075       0.00000000       0.00305984       0.01421039      -0.00168030
C        6.12109072       3.55070365       3.49330282       0.00000000      -0.00749789      -0.00058501       0.00266982
C        4.84280081       5.66502281       3.75563159       0.00000000      -0.00118533       0.01034724       0.00216482
C        3.67331518       7.87926393       3.86614049       0.00000000       0.00028172      -0.01188327       0.00117050
C        2.47239614      10.02792179       3.71670473       0.00000000       0.00002341      -0.00486546       0.00112541
C        9.88939733       1.43494355       3.61188021       0.00000000      -0.00359223       0.00129409       0.00663836
C        8.64868039       3.55148902       3.57859528       0.00000000       0.00114785       0.00781284       0.00309334
C        7.38575047       5.65751775       3.72823388       0.00000000       0.00394035      -0.00660667      -0.00422622
C        6.15383917       7.77740094       3.84781319       0.00000000      -0.00971780      -0.00119609      -0.00218765
C        4.93558916       9.95098387       3.76391743       0.00000000       0.00684642      -0.00105033       0.00144583
Ag       2.44701880       5.65856772       5.79313596       0.00000000       0.00225568      -0.00439865      -0.00563346
O        2.12529039       5.95339842       8.70589905       1.00000000       0.00077326       0.00249562      -0.00048978
O        2.35652631       5.05153385       7.83975323       1.00000000       0.00870473       0.00497254       0.00157463
