52
Lattice="12.336457 0.0 0.0 -6.168228499999997 10.683685154694365 0.0 0.0 0.0 15.0" Properties=species:S:1:pos:R:3:forces:R:3 energy=-438.0190681546689 free_energy=-438.0190681546689 stress="-0.0010866284277265105 0.000621123942813174 3.857919485454785e-05 0.000621123942813174 -0.012421329800835289 -3.0022377974071927e-05 3.857919485454785e-05 -3.0022377974071927e-05 8.964062114125359e-06" pbc="T T T"
C        0.01371372      -0.05302801       3.66165745      -0.00350896      -0.00173670       0.00332814
C       -1.20590907       2.11087067       3.55427545      -0.00549205      -0.00384058       0.00535220
C       -2.43974451       4.24426049       3.61540854      -0.00361511       0.00414045      -0.00588719
C       -3.68021763       6.36557676       3.65753051      -0.00075780      -0.00246909       0.01028081
C       -4.93152088       8.48221111       3.66043873       0.00395135      -0.00412894      -0.00451139
C        2.47482806      -0.10970097       3.89530325      -0.00131305      -0.00332676      -0.00457363
C        1.28492073       2.00381065       3.56232596      -0.00158621      -0.00417416      -0.00342561
C        0.00231472       4.26814387       3.34216433       0.00119544      -0.00280635      -0.00058552
C       -1.19615005       6.37789751       3.65988027      -0.00363201      -0.00199895       0.00280054
C       -2.44752394       8.48435197       3.83600060      -0.00646851      -0.00281800       0.00108517
C        4.94460277      -0.04723021       4.05223999       0.00352177       0.00369126       0.00057631
C        3.67478380       2.00246412       4.20522024      -0.00106344       0.00106888       0.00575452
B        1.38514976       6.40198201       3.64500636       0.01283483       0.00363194       0.00176996
C        0.01258693       8.53778631       3.88095887      -0.00349454      -0.00296667      -0.00960338
C        7.40909323       0.01217009       3.96141397      -0.00158482       0.00506962       0.00060628
C        6.17809347       2.11472607       4.07507454       0.00594320       0.00482793      -0.00467870
C        4.98842310       4.27667362       3.93382622      -0.00105500       0.00027989       0.00517370
P        3.33049412       6.23969493       3.11864655      -0.01633874       0.00482175      -0.00676829
C        2.47028894       8.62022978       3.73482525       0.00292104       0.00847838       0.00279877
C        9.89400646       0.00942531       3.74287677      -0.00155759      -0.00633147       0.00232852
C        8.65565042       2.12671257       3.81701127       0.00701687      -0.00225300      -0.00055357
C        7.42245201       4.24391371       3.77607122      -0.00083261       0.00239849       0.00619740
C        6.17611780       6.36884793       3.52943315       0.01332728       0.00349209      -0.00521687
C        4.93709443       8.52582838       3.55516403       0.00330114      -0.00032744       0.00167925
C        0.02423343       1.37318803       3.57554723      -0.00325526      -0.00308136       0.00496083
C       -1.20346385       3.53094265       3.48837444      -0.00301657      -0.00122458      -0.00003574
C       -2.43732464       5.66366315       3.64356786      -0.00382600       0.00323544       0.00355981
C       -3.68651443       7.78095338       3.71143751      -0.00078442      -0.00920566       0.00328790
C       -4.93040654       9.89518741       3.73469400      -0.00075047      -0.00606732      -0.00328080
C        2.47245196       1.29664932       3.92001499      -0.00398975      -0.00325171       0.00441141
P        1.56030293       3.56981634       2.82386350       0.00286191      -0.00533924       0.00784937
C        0.03872429       5.66420453       3.52247322       0.00396963       0.00000528      -0.00140800
C       -1.21079612       7.79295324       3.81053979      -0.00805839      -0.00167999      -0.00285037
C       -2.44904081       9.89656968       3.95588122       0.00155366      -0.00010396       0.00328485
C        4.94005401       1.37879796       4.15040668       0.00296477       0.00784767       0.00797497
P        3.42602284       3.70068862       4.54532278      -0.00295377      -0.00277112       0.00646388
C        1.25715583       7.89760802       3.77454910       0.00378434       0.00830211      -0.00401394
C        0.01139382       9.96229451       3.98800064       0.00019131      -0.00185342       0.00059470
C        7.41304365       1.42599843       3.97380880       0.00617971       0.00275725      -0.00656089
C        6.19049014       3.53252823       3.95431952       0.00139592      -0.00061475      -0.00191655
C        4.96548456       5.61894241       3.52340981       0.01613431      -0.00423465      -0.00264689
C        3.67275970       7.90838183       3.51178234       0.00122084       0.00161176       0.00023836
C        2.48233495      10.02168576       3.83999530      -0.00251558       0.00578405       0.00405536
C        9.89638696       1.42420211       3.71046101       0.00080852      -0.00816324       0.00585278
C        8.66012404       3.54097580       3.74164115      -0.00028078       0.00108669      -0.00346158
C        7.41647674       5.65957711       3.64024978       0.00307127       0.00107010      -0.00781464
C        6.17023452       7.78954106       3.54099565       0.00555174       0.00553087      -0.01008653
C        4.94650570       9.95174647       3.65281466      -0.00382967      -0.00063525      -0.00575766
Ag       2.42515684       5.53107889       5.63153058      -0.00628475      -0.00115306      -0.00125579
O        2.01540363       6.37078387       7.51388043      -0.00078934      -0.00490460      -0.00497533
O        2.08043704       5.25174649       8.42177321       0.00647043       0.00704957       0.00536759
H        2.76130239       5.58952962       9.03794295      -0.01753607       0.00728054      -0.00576452
