50
Lattice="12.336457 0.0 0.0 -6.168228499999997 10.683685154694365 0.0 0.0 0.0 15.0" Properties=species:S:1:pos:R:3:forces:R:3 energy=-427.48873971339833 free_energy=-427.48873971339833 stress="-0.0018339715303993178 0.001044555594339268 1.5285247679312315e-05 0.001044555594339268 -0.013065158621212901 -1.8856830262851783e-05 1.5285247679312315e-05 -1.8856830262851783e-05 -3.144407708686489e-05" pbc="T T T"
C        0.00783662      -0.04689254       3.65341126       0.00205257       0.00688382      -0.00867873
C       -1.20955875       2.11781925       3.55093231       0.00722423       0.00540615       0.00125946
C       -2.44578476       4.25183322       3.58530060       0.01109646      -0.00562160      -0.00028785
C       -3.68738400       6.37300068       3.61767175       0.00874180      -0.00818440       0.00118561
C       -4.93823190       8.48866807       3.62822321       0.00144101      -0.00219252       0.00229389
C        2.46940274      -0.10461704       3.87732393       0.00281582       0.00751944       0.00749143
C        1.28015771       2.01277694       3.59186646      -0.00087766       0.00097625      -0.01805867
C       -0.00079414       4.27336943       3.33941245      -0.00514600      -0.00049222      -0.01374850
C       -1.20452250       6.38631608       3.61123882      -0.00581784       0.00173240      -0.00000548
C       -2.45415510       8.49247667       3.78051355      -0.00240262       0.00173628       0.01191520
C        4.93997976      -0.03963750       4.00396501      -0.00485004      -0.00713195       0.00302168
C        3.67473324       2.00454227       4.21352716       0.00095796      -0.00966841       0.00382077
B        1.37319162       6.41362908       3.61045081      -0.00056564      -0.00781806      -0.00601258
C        0.00437580       8.54891391       3.80815770      -0.00637172       0.00381302      -0.00130442
C        7.40278194       0.02091602       3.90251826      -0.00624423       0.00212820       0.00583057
C        6.17529680       2.12100945       4.04207690      -0.00570015      -0.00318066       0.01241245
C        4.98640469       4.28195828       3.94491436      -0.00701519      -0.00375173       0.00554244
P        3.32099926       6.23656686       3.14592977       0.01254107      -0.00152772      -0.00073023
C        2.46223522       8.63134130       3.68200545       0.00360366       0.00153189      -0.00379466
C        9.88898088       0.01592922       3.71192822       0.00126063       0.00913540      -0.00199030
C        8.65114657       2.13378760       3.78104544       0.00674753       0.00249662       0.00228904
C        7.41769780       4.25061062       3.74432644       0.00290108      -0.00098588       0.00752546
C        6.16952802       6.37386997       3.50833594      -0.00651246      -0.00605874      -0.00086023
C        4.93085677       8.53136940       3.53339708       0.00048963       0.00165883      -0.01066637
C        0.01949332       1.38035400       3.58509015       0.00012686       0.00735136      -0.00414406
C       -1.20790916       3.53748970       3.47784427       0.00483325      -0.00280270       0.00138572
C       -2.44500263       5.67131118       3.60377716       0.00614187      -0.00812913      -0.00739114
C       -3.69348201       7.78818014       3.66703130       0.00330848      -0.00589730       0.00584664
C       -4.93665280       9.90091497       3.71551440       0.00511662       0.00440862      -0.00619974
C        2.46875013       1.30055106       3.93150478      -0.00348084       0.00672450       0.00749136
P        1.56912645       3.57935482       2.86520936      -0.00119597      -0.00126137       0.00339812
C        0.03027757       5.67341198       3.48748109      -0.01345991      -0.00498020       0.00126501
C       -1.21846319       7.80250731       3.74689473      -0.00559008       0.00337172       0.00362913
C       -2.45379202       9.90337336       3.91270558      -0.00151806       0.00207854      -0.00133105
C        4.93825717       1.38437465       4.12603630      -0.00363695      -0.01171035      -0.00059764
P        3.44412837       3.69711567       4.60389196       0.00329380       0.00043285      -0.00548236
C        1.24836847       7.91137367       3.70755529      -0.00059940       0.00529532      -0.00417717
C        0.00513032       9.97185208       3.92170811      -0.00633908      -0.00080185       0.00539647
C        7.40841895       1.43336290       3.92629107      -0.00080888       0.00274471       0.01034503
C        6.18820210       3.53858445       3.93482180      -0.00492526      -0.00078328       0.01279719
C        4.96095680       5.61986852       3.52151904      -0.00887505      -0.00378992       0.00752396
C        3.66653170       7.91547216       3.48887438       0.00386001      -0.00233704      -0.01780528
C        2.47564750      10.03049105       3.78927285      -0.00104103       0.00730477      -0.00592319
C        9.89180914       1.43053091       3.68897243       0.00799154       0.00797025      -0.01194978
C        8.65478062       3.54794974       3.70675187       0.00940867       0.00099274       0.00531720
C        7.41035299       5.66607226       3.60898517       0.00235711      -0.00315001      -0.00565815
C        6.16330792       7.79489082       3.51697123      -0.00312949      -0.00396539      -0.01133048
C        4.94088413       9.95768651       3.62899014       0.00132036       0.00486066       0.01304657
Ag       2.34730200       5.58957766       5.57321890       0.00234722      -0.00412552      -0.00612609
O        1.99308834       5.89824299       7.57418011      -0.00587566       0.01179366       0.01222375
