50
Lattice="12.336457 0.0 0.0 -6.168228499999997 10.683685154694365 0.0 0.0 0.0 15.0" Properties=species:S:1:pos:R:3:forces:R:3 energy=-433.56063213037686 free_energy=-433.56063213037686 stress="5.046839729670492e-05 -0.0020169595221143075 -1.371080655269885e-07 -0.0020169595221143075 -0.010601247669333763 6.631612303552532e-07 -1.371080655269885e-07 6.631612303552532e-07 1.4896477612592638e-05" pbc="T T T"
C        0.00824857      -0.01866798       3.66982202      -0.00163378      -0.00459301       0.00453595
C       -1.21318632       2.15499304       3.80669540       0.00182850       0.00299498      -0.00238683
C       -2.45425728       4.29047454       3.79913205      -0.00352484       0.00153017       0.00666364
C       -3.68317625       6.41322121       3.75629260       0.00426728      -0.00130544       0.00378697
C       -4.91699441       8.53214237       3.68520927      -0.00517039      -0.00549285       0.00067586
C        2.48408014      -0.07682187       3.49604759      -0.00240738       0.00209906       0.00277009
C        1.27992141       2.01647664       3.77067100      -0.00142631      -0.00391714      -0.00201520
C       -0.00500930       4.32589466       4.04915944       0.00208598       0.00120683      -0.01580882
C       -1.19952131       6.42636926       3.84462833      -0.00029969       0.00255251       0.00426253
C       -2.43592205       8.52692857       3.63235335      -0.00441982       0.00908652      -0.00296461
C        4.95009146      -0.00305988       3.48781449       0.00313552      -0.00089339      -0.01005735
C        3.67719231       2.05509412       3.34463003      -0.00335681      -0.00853790       0.00454494
B        1.34957779       6.46751309       4.25527171       0.00616807       0.00093054      -0.00222584
C        0.02326163       8.57682198       3.75971097       0.00213340       0.00150247       0.00535807
C        7.40674557       0.04869840       3.61765235       0.00261756       0.00630604       0.01521545
C        6.15205019       2.17945797       3.50140425      -0.00271321      -0.00452192       0.00610347
C        4.93630475       4.36243711       3.64738943       0.00915302       0.00155525       0.00156340
C        3.68956340       6.47707531       4.12940292      -0.00299819       0.01254292       0.00514127
C        2.48365399       8.62421874       3.87918979      -0.00098841      -0.00086381       0.00130574
C        9.88286087       0.04214673       3.70559661      -0.00381535      -0.00039679       0.00461726
C        8.63894744       2.17253356       3.67371342       0.00461036       0.00798586      -0.01491549
C        7.39496150       4.29997153       3.71861404       0.00437139      -0.00112555       0.00236538
C        6.17503320       6.43890831       3.84931643       0.00205215      -0.01099730       0.00141351
C        4.94972265       8.56842921       3.79599391       0.00232019      -0.00116052       0.00781790
C        0.01702903       1.40754263       3.76376640       0.00187373       0.00007115      -0.01079688
C       -1.20945830       3.57748522       3.88135321      -0.00147970       0.00409377       0.00527338
C       -2.44552313       5.70965976       3.79034983       0.00130589      -0.00124304       0.01136375
C       -3.67773565       7.82662650       3.68867555      -0.00186857       0.00000086      -0.00493124
C       -4.92988787       9.93684833       3.60410938      -0.00169890      -0.00290422       0.00758107
C        2.47766753       1.33073468       3.49884127      -0.00186190       0.00002368       0.00655906
P        1.52083728       3.58182571       4.47862571      -0.00022872      -0.00860309       0.00371978
C        0.03161377       5.72497769       4.02454101       0.00237669       0.00031549       0.00376766
C       -1.19808959       7.83936785       3.74338441      -0.00316320       0.00555604       0.00225843
C       -2.43694777       9.93707140       3.51107108      -0.00085348       0.00868501      -0.00111690
C        4.93345549       1.43810978       3.40574050      -0.00302535      -0.00596258       0.00318557
S        3.40342367       3.75789596       3.10596636      -0.01079736      -0.00633385      -0.00774353
C        1.26843994       7.92637734       3.95222126       0.00114662      -0.00334938       0.00017666
C        0.01518504       9.99876494       3.60500729       0.00595310       0.00299868       0.00180680
C        7.39233707       1.47420837       3.57972722       0.00204671       0.00658117       0.00455570
C        6.13311409       3.60396408       3.61139439       0.00648497      -0.00140646      -0.00071028
C        4.90463983       5.76179983       3.90369034      -0.00407433       0.00263367      -0.00528107
C        3.70156009       7.86487150       3.93381104       0.00100376       0.00895964      -0.00322811
C        2.47952646      10.03444048       3.71549788      -0.00282391      -0.00230826       0.00872983
C        9.88435624       1.46247812       3.71693228       0.00259286       0.00312022      -0.00359277
C        8.63788886       3.58967576       3.72505977       0.00059087       0.00516745      -0.01287321
C        7.40412567       5.71554528       3.78354417       0.00545215      -0.00453361      -0.01338735
C        6.17873022       7.85026789       3.79259085      -0.00272175      -0.01236374      -0.00461690
C        4.94081472       9.98408747       3.71680809      -0.00317148      -0.00256806      -0.00574438
Ag       2.61380807       5.82631684       5.84905449      -0.00204770      -0.00393641      -0.00168976
O        1.92365600       3.61900452       5.95359393      -0.00300025       0.00081838      -0.01103257
