51
Lattice="12.336457 0.0 0.0 -6.168228499999997 10.683685154694365 0.0 0.0 0.0 15.0" Properties=species:S:1:pos:R:3:initial_magmoms:R:1:forces:R:3 energy=-433.1119551606436 free_energy=-433.1119551606436 stress="0.0007989211444029354 -0.0036962646383613107 8.222424898184649e-06 -0.0036962646383613107 -0.005002655848701473 -3.623454927651704e-05 8.222424898184649e-06 -3.623454927651704e-05 -9.603778160770117e-06" pbc="T T T"
C       -0.00408125       0.00092395       3.85155389       0.00000000      -0.00139042       0.00451063      -0.00087381
C       -1.26302054       2.12955289       3.83602979       0.00000000      -0.00041127      -0.00164980      -0.00211861
C       -2.48875081       4.27566856       3.77068093       0.00000000       0.00260699      -0.00645756      -0.00327632
C       -3.70135322       6.40627452       3.74491202       0.00000000       0.00457927       0.00568697      -0.00719781
C       -4.93706792       8.53760038       3.82408280       0.00000000      -0.00487481      -0.00095129      -0.00950972
C        2.45173006       0.00082037       3.72049703       0.00000000       0.00149531      -0.01215563      -0.00179341
C        1.17921102       2.11871666       3.71377537       0.00000000      -0.00176764      -0.00440517      -0.00574980
C       -0.05078762       4.19770541       3.79329432       0.00000000       0.00113788       0.00522862       0.01571613
C       -1.19148503       6.36947555       3.70697255       0.00000000      -0.00399177      -0.00417690      -0.00584840
C       -2.45043081       8.52375904       3.72061579       0.00000000       0.00576353      -0.00163128      -0.00884622
C        4.91666637      -0.00523415       3.60004367       0.00000000       0.00142631       0.00391591      -0.00090727
C        3.65313105       2.07549220       3.26335701       0.00000000       0.00155910       0.00065707       0.00577515
S        1.61651447       6.22834632       3.29228195       0.00000000       0.00183201      -0.00893123      -0.00446106
C        0.01579392       8.53274799       3.64740724       0.00000000      -0.00125933       0.00190414      -0.00286396
C        7.37015312       0.03365233       3.69454555       0.00000000      -0.00145954       0.00048549       0.00196337
C        6.12961746       2.15630816       3.43583598       0.00000000       0.00709291      -0.00209954       0.00285257
C        4.97584383       4.33078111       3.20908723       0.00000000      -0.00468492      -0.00145067      -0.00007367
B        3.59151625       6.43772530       3.79201625       0.00000000      -0.00982783       0.00170261      -0.00101941
C        2.46959340       8.62645458       3.80156160       0.00000000      -0.00009770       0.00093771      -0.00692755
C        9.85716164       0.03293640       3.85462375       0.00000000      -0.00237079      -0.00104679      -0.01050675
C        8.60019287       2.15534179       3.70863867       0.00000000       0.00228298       0.00450855       0.00059048
C        7.38585121       4.28727360       3.59427175       0.00000000      -0.00590004       0.00321098       0.00185633
C        6.14638442       6.41480801       3.69743833       0.00000000       0.00335051      -0.00469417      -0.00451181
C        4.92777627       8.56666877       3.88307552       0.00000000       0.00621702       0.00302369      -0.00402112
C       -0.01628738       1.42861879       3.81727247       0.00000000      -0.00302399       0.00067494       0.00220393
C       -1.26855635       3.53754151       3.82508074       0.00000000       0.00477138      -0.00274261       0.00176985
C       -2.45835050       5.68841154       3.74751316       0.00000000      -0.00133260      -0.00634048      -0.00256387
C       -3.69626768       7.82592271       3.77064903       0.00000000       0.00140488       0.00616150      -0.00108313
C       -4.94046457       9.96824069       3.82234047       0.00000000      -0.00504386      -0.00186280       0.00532406
C        2.42404705       1.43127464       3.58988015       0.00000000       0.00167362      -0.01040845      -0.00583646
O        1.14472439       3.49057083       3.83907404       0.00000000      -0.00607479      -0.00547495       0.00757113
C       -0.00010879       5.58319771       3.68559866       0.00000000      -0.00169749       0.00424485      -0.01084748
C       -1.20939523       7.80355130       3.67431135       0.00000000       0.00085540      -0.00397229       0.00901003
C       -2.47514404       9.96090123       3.68059611       0.00000000       0.00698200      -0.00344683       0.01002787
C        4.89798251       1.42705931       3.42990901       0.00000000       0.00452749       0.00232492       0.00092086
S        3.60119109       3.60902064       2.47024433       0.00000000      -0.00153851       0.00781775      -0.00596614
C        1.27964727       7.90321543       3.63218081       0.00000000      -0.00149513       0.00013198       0.00143153
C       -0.01128537       9.97712140       3.65139787       0.00000000      -0.00228178       0.00401244      -0.00146052
C        7.35758947       1.45594905       3.61563957       0.00000000       0.00582542       0.00029104       0.01139952
C        6.15742306       3.57368163       3.39376514       0.00000000      -0.00617126      -0.00288469       0.01275330
C        4.91117264       5.69954063       3.52658985       0.00000000       0.00049924      -0.00163015       0.00151036
C        3.67951833       7.92001112       3.85419895       0.00000000       0.00372455       0.00739376       0.00240779
C        2.44521253      10.04188160       3.81353204       0.00000000      -0.00344011       0.00102322      -0.00149887
C        9.84428031       1.44649842       3.81159822       0.00000000      -0.00063629       0.00000005       0.00399600
C        8.60935483       3.57132313       3.69680493       0.00000000      -0.00371890       0.00412424      -0.00197165
C        7.39267728       5.70516590       3.68022350       0.00000000       0.00518704       0.00194242       0.01378057
C        6.16178365       7.83474652       3.83141455       0.00000000       0.00061235      -0.00578270      -0.00135182
C        4.92620880       9.99764706       3.88811943       0.00000000       0.00163546       0.00389701       0.00433593
Ag       2.63954507       5.53981509       5.65970402       0.00000000       0.00097077      -0.00219993      -0.01843279
O        2.50809032       5.55612465       8.62691319       1.00000000      -0.00459892       0.01401311      -0.00128782
O        2.81470371       4.79369000       7.65244166       1.00000000       0.00107626       0.00257031       0.01561047
