51
Lattice="12.336457 0.0 0.0 -6.168228499999997 10.683685154694365 0.0 0.0 0.0 15.0" Properties=species:S:1:pos:R:3:initial_magmoms:R:1:forces:R:3 energy=-442.6717612560242 free_energy=-442.6717612560242 stress="0.003972570908424688 -0.0007756815354883453 6.458446197728289e-05 -0.0007756815354883453 -0.0010798657865087253 -3.146709249552112e-05 6.458446197728289e-05 -3.146709249552112e-05 -1.8849040634473585e-05" pbc="T T T"
C        0.00422074       0.00220040       3.64031109       0.00000000      -0.00141777      -0.00281771       0.00460757
C       -1.22455660       2.14867119       3.63725822       0.00000000       0.00467316      -0.00582905      -0.00368973
C       -2.45945962       4.27263386       3.56853829       0.00000000      -0.00113481      -0.00040467       0.00488516
C       -3.70640920       6.40301926       3.52507029       0.00000000       0.00080749       0.00031477      -0.00034213
C       -4.93616898       8.53812947       3.56182559       0.00000000       0.00606672      -0.00437057       0.00010851
C        2.46477201      -0.04260438       3.66419821       0.00000000      -0.00110701      -0.00041233      -0.00451925
C        1.26093239       2.10987756       3.71774036       0.00000000       0.00323512       0.00245963      -0.01067183
C        0.06442321       4.29065082       3.66957401       0.00000000      -0.00438435      -0.00527936       0.00528738
C       -1.24590622       6.41581955       3.62407585       0.00000000       0.00033281      -0.00091185      -0.00157025
C       -2.46972905       8.53506874       3.61517015       0.00000000      -0.00159901       0.00010644      -0.00160342
C        4.92647238      -0.00543345       3.68953623       0.00000000       0.00437593      -0.00617239      -0.00037506
C        3.66548774       2.10909649       3.72036103       0.00000000      -0.00142394      -0.00306334       0.00490868
C        1.15373839       6.43090977       4.07579630       0.00000000       0.00339020       0.00284376       0.00164950
C       -0.00524610       8.54303932       3.75960308       0.00000000      -0.00339453       0.00398096       0.00932111
C        7.39490414       0.00563717       3.71343282       0.00000000       0.00753849       0.00149571       0.00437108
C        6.14036140       2.15396140       3.64932976       0.00000000      -0.00253292      -0.00024292      -0.00263567
C        4.83876139       4.30975944       3.61662969       0.00000000      -0.00097245       0.00003430       0.00067463
N        3.77684829       6.47236563       3.79862147       0.00000000      -0.00228606       0.00349473       0.00043601
C        2.47749982       8.53961194       3.82829260       0.00000000       0.00077625      -0.00143895       0.00994953
C        9.86733873       0.00749982       3.67631640       0.00000000      -0.00874520       0.00434036       0.00397733
C        8.62600664       2.14498141       3.62099264       0.00000000       0.00154509       0.00102973       0.00716588
C        7.36991578       4.27599463       3.55270863       0.00000000       0.00678442       0.00058040      -0.00211815
C        6.16582768       6.42215938       3.52395166       0.00000000       0.00097448      -0.00236550      -0.00639485
C        4.94435326       8.55795604       3.63427034       0.00000000       0.00439946       0.00554544      -0.00213620
C        0.01364825       1.43621287       3.67053149       0.00000000       0.00723356      -0.00263492      -0.00985046
C       -1.18863759       3.57610703       3.61410618       0.00000000      -0.00364389      -0.00584801      -0.00195540
C       -2.46961620       5.69491578       3.55373311       0.00000000      -0.00111707      -0.00011011      -0.00551934
C       -3.70206680       7.82424127       3.55571643       0.00000000       0.00355018      -0.00198940      -0.01124473
C       -4.94065532       9.95617132       3.61997594       0.00000000      -0.00012516      -0.00458766       0.00518857
C        2.46346257       1.37296206       3.71399575       0.00000000      -0.00072866      -0.00055719      -0.00006268
B        1.49050821       3.62769068       3.74792070       0.00000000      -0.00164337       0.00156740       0.00083057
C        0.00818120       5.71553991       3.74782247       0.00000000       0.00445950      -0.00214583      -0.00238003
C       -1.23436166       7.83149928       3.66129961       0.00000000      -0.00280744       0.00095508      -0.00445119
C       -2.46563265       9.95142445       3.65841458       0.00000000       0.00016031      -0.00088728      -0.00756325
C        4.91127588       1.43312325       3.68970008       0.00000000      -0.00249083      -0.00574211       0.00388999
B        3.43115205       3.62472580       3.73022837       0.00000000      -0.00493518      -0.00127573      -0.00080147
C        1.23870451       7.80036984       3.89496586       0.00000000      -0.00387495       0.00496422       0.00254171
C       -0.00603347       9.96801059       3.72016303       0.00000000       0.00857782       0.00169892       0.00058318
C        7.38435536       1.43613251       3.65776001       0.00000000       0.00141186       0.00149665      -0.00406785
C        6.09467151       3.58717851       3.59917233       0.00000000       0.00347676       0.00275921       0.00163663
C        4.90391228       5.74928203       3.61219032       0.00000000      -0.00317797       0.00092956       0.00199022
C        3.72305266       7.81703054       3.75549718       0.00000000       0.00362172       0.00342572      -0.00709977
C        2.46695694       9.96013842       3.73646322       0.00000000       0.00005683      -0.00326977       0.00655964
C        9.86950513       1.43591517       3.63968764       0.00000000      -0.00022543       0.00170900       0.00658718
C        8.62399566       3.56975416       3.57304900       0.00000000       0.00359894      -0.00093201      -0.00225648
C        7.38818851       5.69543780       3.51517704       0.00000000       0.00366532      -0.00051306      -0.00296829
C        6.16642386       7.83827301       3.55327160       0.00000000       0.00550614      -0.00182610       0.00410361
C        4.93592039       9.97933120       3.64800102       0.00000000      -0.00790580       0.00688875      -0.00428642
Ag       2.39266586       5.18602641       5.27062250       0.00000000       0.00185116      -0.00300915       0.00209507
O        2.08218459       4.84082158       8.27148293       1.00000000      -0.01734892       0.00358395       0.00132875
O        2.98407147       4.74960278       7.39616719       1.00000000      -0.01304698       0.01243227       0.00588645
