51
Lattice="12.336457 0.0 0.0 -6.168228499999997 10.683685154694365 0.0 0.0 0.0 15.0" Properties=species:S:1:pos:R:3:initial_magmoms:R:1:forces:R:3 energy=-440.67390613923885 free_energy=-440.67390613923885 stress="0.006034405042412373 0.001775544657657064 2.4079567396300182e-05 0.001775544657657064 -0.002766889197885866 3.8388279888860934e-05 2.4079567396300182e-05 3.8388279888860934e-05 -4.657882048139726e-06" pbc="T T T"
C        0.00599870      -0.01834021       3.74735648       0.00000000       0.00536124      -0.00334866       0.00420254
C       -1.20376692       2.14359091       3.72847468       0.00000000      -0.00147617      -0.00177379       0.00025137
C       -2.46171220       4.27169252       3.56906821       0.00000000       0.00536719       0.00785529       0.00008565
C       -3.71052974       6.38824974       3.54936276       0.00000000      -0.00437499       0.00293273       0.00035903
C       -4.94743263       8.51208452       3.64717775       0.00000000       0.00180023       0.00231879      -0.00751988
C        2.48169700      -0.03295041       3.73886948       0.00000000       0.00486824       0.00011313      -0.00123192
C        1.27601817       2.08910058       3.95401878       0.00000000       0.00023188      -0.00086780      -0.00158410
C       -0.00226224       4.29206863       3.76350109       0.00000000       0.00166535      -0.00365341      -0.00623465
C       -1.18674127       6.39714878       3.56263315       0.00000000       0.00651948       0.00727351       0.01002410
C       -2.45901467       8.51871020       3.60381963       0.00000000      -0.00065619       0.00538661       0.00265438
C        4.94583133      -0.01607503       3.63825503       0.00000000       0.00158864       0.00362522      -0.00269982
C        3.72652290       2.14214806       3.76528145       0.00000000       0.00311399      -0.00490705      -0.00827939
B        1.50995856       6.35042493       3.71571284       0.00000000      -0.01243497      -0.00203353      -0.00741107
C        0.02271333       8.53376972       3.62374530       0.00000000       0.00362858       0.00220259      -0.00111471
C        7.40921604       0.01547908       3.61873059       0.00000000      -0.01070189      -0.00012648      -0.00409226
C        6.17309754       2.12759507       3.57371037       0.00000000       0.00611613      -0.00087589       0.00311666
C        4.88456775       4.20806185       3.61178710       0.00000000      -0.00853819      -0.00378355      -0.00396160
B        3.42592663       6.33945725       3.71996531       0.00000000      -0.00792217      -0.00749494      -0.00132389
C        2.47397920       8.60047843       3.69133192       0.00000000       0.00519202       0.00403469       0.00610196
C        9.88777625       0.02148619       3.67658176       0.00000000      -0.00456507      -0.00162774      -0.00595513
C        8.65154731       2.14474453       3.58685865       0.00000000      -0.00031792      -0.00091628       0.00036177
C        7.38606410       4.26365451       3.52725191       0.00000000      -0.00169854      -0.00340346       0.00014592
C        6.09306651       6.36841104       3.58818922       0.00000000      -0.00375452       0.00197211       0.00143010
C        4.91750838       8.52789814       3.68585513       0.00000000       0.00607883       0.00171095       0.00714465
C        0.02078437       1.41482706       3.81934894       0.00000000       0.00010033      -0.00271406       0.00297016
C       -1.21769541       3.56339193       3.67668981       0.00000000       0.00174789       0.00019120       0.00140066
C       -2.45321005       5.69128276       3.54450484       0.00000000       0.00436067       0.01045681      -0.00540303
C       -3.70446887       7.80916599       3.59493027       0.00000000      -0.00178275       0.00300343      -0.00411071
C       -4.93270454       9.93937387       3.71977708       0.00000000       0.00688808      -0.00072697      -0.00367458
C        2.49517426       1.38892498       3.84683766       0.00000000       0.00204304      -0.00220944       0.00243911
B        1.23725752       3.55514486       4.15671438       0.00000000       0.00288967       0.00108611      -0.01452048
C        0.07382904       5.69067422       3.63537411       0.00000000       0.00143293      -0.00317906       0.00303165
C       -1.21652823       7.81682860       3.58464907       0.00000000       0.00255513       0.00694662       0.00665784
C       -2.45604648       9.94135944       3.65854644       0.00000000       0.00385568       0.00469862      -0.00360215
C        4.95109456       1.40765115       3.64571742       0.00000000       0.00708617       0.00121221      -0.00420176
N        3.73436006       3.49192329       3.76997735       0.00000000      -0.01062135      -0.00426453       0.00214107
C        1.27077158       7.86473462       3.67425176       0.00000000       0.00570605       0.00372006       0.00635612
C        0.01489405       9.96703519       3.61846243       0.00000000      -0.00561609      -0.00051398       0.00138467
C        7.41393801       1.43276137       3.58118201       0.00000000       0.00035731      -0.00226828      -0.00027517
C        6.15749443       3.54002303       3.54360989       0.00000000      -0.00300226      -0.00294896       0.00354097
C        4.83193852       5.64854686       3.60707164       0.00000000      -0.00477690      -0.00225977       0.00307177
C        3.67095520       7.85941598       3.70835908       0.00000000       0.00471289       0.00098199       0.00335724
C        2.47986609      10.01683779       3.65834461       0.00000000      -0.00861667       0.00491232      -0.00002303
C        9.89322550       1.44101881       3.65606915       0.00000000      -0.00238879      -0.00202471       0.00428824
C        8.63868615       3.56340150       3.54869879       0.00000000       0.00404401       0.00148971       0.00262216
C        7.36961487       5.68142291       3.54436614       0.00000000      -0.00608441      -0.00100419       0.00024807
C        6.14251344       7.80016180       3.63946521       0.00000000       0.00393706       0.00214615       0.00444997
C        4.93869602       9.96819160       3.70318409       0.00000000       0.00204559       0.00071149       0.00357880
Ag       2.42282899       4.95906034       5.34990831       0.00000000       0.01027273      -0.00723637      -0.00849049
O        1.78244888       5.20022273       8.27346813       1.00000000      -0.00577775      -0.00089792       0.00115533
O        2.80309105       5.12270460       7.53620352       1.00000000      -0.01045944      -0.01392156       0.00713782
