52
Lattice="12.336457 0.0 0.0 -6.168228499999997 10.683685154694365 0.0 0.0 0.0 15.0" Properties=species:S:1:pos:R:3:forces:R:3 energy=-436.77206975978135 free_energy=-436.77206975978135 stress="0.002209835003036144 0.00022089538782370545 5.851706451632812e-06 0.00022089538782370545 -0.010947040253487254 -4.706565159190387e-05 5.851706451632812e-06 -4.706565159190387e-05 1.8563238295172115e-06" pbc="T T T"
C        0.05914726      -0.06820504       3.69634869      -0.00000766       0.00689437      -0.00981511
C       -1.15792144       2.10292390       3.57982686       0.00240696      -0.00094852       0.00148223
C       -2.38942123       4.23415716       3.60605582       0.00098884      -0.00253828      -0.00761262
C       -3.63015707       6.35211363       3.63492847       0.01084880       0.00177150       0.00695942
C       -4.89075469       8.46354613       3.65812674       0.00244215      -0.00348588       0.00221369
C        2.52028841      -0.13176779       3.93114296      -0.00020016      -0.00263359      -0.00956824
C        1.33008493       1.98428260       3.60047220       0.00716599      -0.00045174      -0.01094570
C        0.06624995       4.25948602       3.35229169      -0.00527700      -0.01116219      -0.00842470
C       -1.12990830       6.36103475       3.66213872       0.00425818      -0.00337466      -0.00605605
C       -2.39542774       8.46462276       3.84826832       0.00226972       0.00575596      -0.00280456
C        4.99087829      -0.06079892       4.06970607       0.00372190      -0.00456672       0.00708348
C        3.71827428       1.99124783       4.21244864      -0.00883399      -0.00478552       0.00145202
B        1.46349229       6.40852237       3.66250737      -0.00408990      -0.00027903      -0.00471909
C        0.07371821       8.51730104       3.91402065      -0.00060077       0.00015064       0.00218146
C        7.45354108       0.00636705       3.98785555       0.00515177       0.00118397       0.01467537
C        6.21740816       2.11304683       4.05544633      -0.00590533      -0.00356038       0.00637332
C        5.00831672       4.27829088       3.85985405      -0.00339348      -0.00634763       0.00263317
S        3.37695372       6.27954828       2.99033521       0.00190972      -0.01295609      -0.00357732
C        2.52237044       8.60960739       3.76305273       0.00091909      -0.00323516       0.00442273
C        9.94119195       0.00171771       3.77318472      -0.00486934      -0.00069035      -0.00045441
C        8.70013633       2.12095659       3.81934772       0.00329945       0.00218845      -0.00528190
C        7.46102522       4.23560725       3.74047324       0.00068219       0.00798698      -0.00036695
C        6.20557717       6.35889502       3.48313873      -0.00552221       0.00020255      -0.00216871
C        4.97490403       8.51063085       3.54462281      -0.00370202       0.00317060       0.00537720
C        0.06844696       1.35818537       3.61389522       0.00632797       0.00753381      -0.00014200
C       -1.14996789       3.52204436       3.49809437      -0.00339273      -0.00646811      -0.00353278
C       -2.38330942       5.65160916       3.63013471       0.00699952      -0.00380984       0.01073408
C       -3.63745443       7.76473024       3.70468362       0.00618012       0.00007678       0.01168205
C       -4.88680540       9.87647214       3.76343773      -0.00020481      -0.00040218      -0.01988902
C        2.51692998       1.27546585       3.95754928      -0.00352567      -0.00442518       0.00138752
P        1.62124552       3.53731169       2.83833344      -0.00819643       0.00861996       0.00650675
C        0.11643892       5.65403903       3.51998096       0.00050944      -0.00853546      -0.01692154
C       -1.15169634       7.77242643       3.82841080      -0.00129047       0.00095445      -0.00919406
C       -2.40093699       9.87676524       3.97868612       0.00180883       0.00301539       0.00736926
C        4.98378311       1.37039265       4.15090791      -0.00881499      -0.00595974       0.00803388
P        3.44348858       3.70294939       4.48191510      -0.00280804       0.00245658      -0.00751531
C        1.32513395       7.88102906       3.80936839      -0.00113491       0.00094440      -0.00168994
C        0.06029486       9.95020289       4.01641953       0.00628703       0.00006582      -0.00332264
C        7.45492387       1.42250478       3.97501017       0.00090912       0.00262970      -0.00067997
C        6.22395199       3.53033417       3.90796878      -0.00060542       0.00010986       0.01488167
C        5.00093613       5.61308828       3.46511134      -0.00711683      -0.00374673       0.00557698
C        3.70828442       7.91174642       3.48668749      -0.00148530      -0.00262671      -0.01342565
C        2.53141799      10.01701980       3.87954997      -0.00052637      -0.00264438       0.00624930
C        9.94302406       1.41850478       3.73275122       0.00272510      -0.00162113       0.00419895
C        8.70494564       3.53295683       3.72493177       0.00122125       0.00440160       0.00397027
C        7.45863670       5.64901243       3.60116342       0.00317491       0.01006117       0.00783632
C        6.20788193       7.77641425       3.51608807      -0.00305464       0.00051358       0.00400079
C        4.98919838       9.94008453       3.67359953      -0.00251900       0.00527350       0.01106477
Ag       2.23788388       5.15316773       5.79512306       0.00789241       0.00644811      -0.01220894
O        1.27172322       6.08282867       7.40029113       0.00772917       0.01011798      -0.00298167
O        1.90899771       5.48000920       8.54261160       0.00009246       0.01397478       0.01197196
H        2.18261152       6.28832228       9.01910595      -0.01084463      -0.00524729      -0.00701978
