50
Lattice="12.336457 0.0 0.0 -6.168228499999997 10.683685154694365 0.0 0.0 0.0 15.0" Properties=species:S:1:pos:R:3:forces:R:3 energy=-426.86001602184996 free_energy=-426.86001602184996 stress="0.00045157953515285104 0.0005313511384831705 -1.8041400934415563e-05 0.0005313511384831705 -0.004900003905841916 1.4002403157739478e-05 -1.8041400934415563e-05 1.4002403157739478e-05 -1.1828142464106732e-05" pbc="T T T"
C        0.01063009       0.00321598       3.76140607      -0.00111340      -0.00770594      -0.00609492
C       -1.23200088       2.13442065       3.49850574      -0.00719708      -0.00164635       0.00742986
C       -2.50075574       4.27523171       3.56978014       0.01011263      -0.00197874      -0.00167679
C       -3.72549970       6.40019123       3.74796014       0.00032919       0.00366369      -0.00396675
C       -4.94591830       8.52605197       3.84422557       0.00027601      -0.00234828       0.00365920
C        2.47641451      -0.00799943       3.76343732       0.00179494      -0.00991384      -0.00021418
C        1.25398868       2.05594150       3.28606091      -0.00093642      -0.00478925       0.00916366
C       -0.11486883       4.27680376       3.10393156      -0.00448959       0.00462384       0.00197003
C       -1.23341042       6.39814891       3.59389219      -0.00167468       0.00403599      -0.00688805
C       -2.45759679       8.52107168       3.78978981      -0.00593738       0.01265289       0.00302038
C        4.93143270      -0.01481745       3.81056344      -0.00297813      -0.00061893       0.00049809
C        3.73119854       2.11073602       3.70382403      -0.00118718       0.00759763       0.00730917
S        1.61762985       6.26601716       3.33047689       0.00497983      -0.00479017       0.00091228
C        0.01698065       8.53419522       3.77678689      -0.00908258      -0.00271694      -0.00370384
C        7.39362958       0.02548371       3.87284272       0.00325064      -0.00167032      -0.00105135
C        6.15945797       2.13691342       3.79254452      -0.00204763      -0.00488596      -0.00194696
C        4.91645401       4.21695646       3.81479327       0.00460733       0.01255441       0.00231013
B        3.59339699       6.43868844       3.94628737       0.00817778       0.01434362       0.00266397
C        2.47958187       8.62983230       3.95179793       0.00475895      -0.00315068      -0.00513498
C        9.88555864       0.04133971       3.86863780      -0.00053817       0.00538856      -0.00490274
C        8.62919018       2.15171691       3.73489168       0.00444752       0.00083885      -0.00186342
C        7.37236034       4.27569312       3.74536405       0.01036870      -0.01296685       0.00104364
C        6.10985900       6.37595314       3.83653228      -0.00644372      -0.00142975       0.00223825
C        4.93200776       8.56438665       3.94492541      -0.00038926      -0.00055666       0.00071514
C        0.01325321       1.42104345       3.51969453      -0.00598343      -0.00469594       0.00282047
C       -1.28124093       3.54400240       3.37355306       0.00107340      -0.00250231       0.00365370
C       -2.48946466       5.69343627       3.63588287       0.00277524       0.00042693      -0.00407866
C       -3.70868929       7.81856510       3.80017432       0.00150008       0.00790380      -0.00352349
C       -4.93108334       9.96010029       3.80102638       0.00184687      -0.00795576      -0.00045167
C        2.49141636       1.41992760       3.61059687       0.00180517      -0.00932051       0.00018676
S        1.28991320       3.53277869       2.40567787      -0.00696737       0.00650579      -0.00519095
C       -0.06159737       5.64302803       3.35457659       0.00487982       0.00714523      -0.00307238
C       -1.22089347       7.81701142       3.72559737      -0.01548807       0.00445342      -0.00716934
C       -2.46277027       9.95442076       3.80753198       0.00014289       0.00405167       0.00598619
C        4.92867543       1.41879899       3.78417103      -0.00581658      -0.00185661      -0.00364809
O        3.74310873       3.48326171       3.84282257       0.00529257       0.01294514       0.00269110
C        1.28187503       7.91144384       3.77399269      -0.00179631       0.00131632       0.00435948
C        0.00349244       9.97149793       3.83910068      -0.00414265      -0.00253227       0.00234531
C        7.38981029       1.44501600       3.80991252       0.00416902       0.00048211       0.00290775
C        6.14380011       3.54773453       3.77842315       0.00010160      -0.00212784      -0.00033319
C        4.87428736       5.62542253       3.83396452      -0.01081705       0.01184685       0.00459630
C        3.68490789       7.91594170       3.97528297       0.00469727      -0.00508283       0.00127571
C        2.47108821      10.04328458       3.94081497       0.00579682      -0.00179075      -0.00991184
C        9.88048384       1.45058673       3.71190712      -0.00526773       0.00279219      -0.00565000
C        8.60881024       3.56703355       3.68317098       0.01664291      -0.00486224       0.00268807
C        7.36557369       5.68870544       3.77317039      -0.00227081      -0.00732693      -0.00299986
C        6.14754190       7.81140562       3.88350241      -0.00293305      -0.00238743      -0.00054744
C        4.94448416      10.00123993       3.88181650      -0.00312488      -0.00025576      -0.00411942
Ag       2.28166040       5.55461057       5.69274199      -0.00286594      -0.01124828       0.01057265
O        2.37806978       4.99067339       7.65577973       0.00766190      -0.00045484       0.00112303
