52
Lattice="12.336457 0.0 0.0 -6.168228499999997 10.683685154694365 0.0 0.0 0.0 15.0" Properties=species:S:1:pos:R:3:forces:R:3 energy=-437.11012386393696 free_energy=-437.11012386393696 stress="-0.0009797330239778874 -0.0018496949081921515 6.939526964982062e-05 -0.0018496949081921515 -0.011901171302767908 -8.22780624134697e-06 6.939526964982062e-05 -8.22780624134697e-06 2.8473241713090874e-05" pbc="T T T"
C       -0.00521748      -0.02446147       3.74726069       0.00024434      -0.00410432      -0.00158968
C       -1.25149162       2.11592598       3.88472397      -0.00106053      -0.00333146       0.00177261
C       -2.49218090       4.25658396       3.76080337      -0.00411745       0.00031336      -0.00610067
C       -3.70924102       6.38153046       3.65845961       0.00059718       0.00586269      -0.00138592
C       -4.94281093       8.50571871       3.66756873      -0.00128900      -0.00488474       0.00851872
C        2.46523881      -0.07750858       3.71064362       0.00069939       0.00336631      -0.00386902
C        1.25010154       2.02886132       4.07513822      -0.00288580       0.01071385      -0.00356777
C       -0.08970261       4.24562045       4.20736628       0.00151443      -0.00044792      -0.01117043
C       -1.22250829       6.38003546       3.78621766      -0.00134865       0.00491926       0.01373830
C       -2.45623026       8.49708433       3.67091206      -0.00509479       0.00019985       0.00779554
C        4.92762617      -0.03499114       3.56779047       0.00238012       0.00380591      -0.00309108
C        3.65170558       2.02504281       3.42177701       0.00561522      -0.00113733      -0.00435957
P        1.64188642       6.23189621       4.14851453       0.00175632      -0.00563332       0.00600332
C        0.01105682       8.53701355       3.74009994      -0.00677603       0.00916912       0.00649066
C        7.37991201       0.02511235       3.55282478      -0.00325485      -0.00591645       0.00748161
C        6.13027111       2.13575304       3.39883084       0.00889250      -0.00616378      -0.00519254
C        4.94112908       4.29831229       3.28613141       0.01141144       0.00372997      -0.00620582
B        3.55302647       6.41573281       3.75605566      -0.00660755       0.00146709       0.00136533
C        2.47779476       8.63926763       3.68726482      -0.00223012       0.00783407      -0.00203252
C        9.87011722       0.03000931       3.61456378      -0.00281231      -0.00716069       0.00693768
C        8.61427799       2.14458161       3.58637029      -0.00032432      -0.01428249       0.00419613
C        7.37661664       4.26652495       3.52989572      -0.00110576       0.00253911       0.00256093
C        6.13654423       6.39410627       3.61442441       0.00354052       0.00076686      -0.00733273
C        4.93415926       8.55872354       3.63273195       0.00733165      -0.00343746       0.00410826
C       -0.00724148       1.39253516       3.92002761      -0.00076445      -0.00235668      -0.00373393
C       -1.28095720       3.52712886       3.96152652       0.00089429       0.00057146      -0.00316357
C       -2.47024113       5.67616076       3.72484016      -0.00015744       0.00527203       0.00523493
C       -3.70127943       7.79723906       3.66502096      -0.00388800       0.00082364      -0.00146964
C       -4.94616182       9.92136467       3.71822417       0.00207357      -0.00614314      -0.00019214
C        2.45943256       1.33458741       3.76605665      -0.00221147       0.00818785      -0.00149271
P        1.34303433       3.54846339       4.93525339       0.00410874       0.00275442      -0.00925235
C       -0.01695776       5.62712551       3.96251912      -0.00282782       0.00095625       0.00004863
C       -1.21810985       7.79934982       3.72751745      -0.00589658       0.00455604      -0.00070466
C       -2.46309658       9.91650176       3.63943334       0.00255693       0.00206010       0.00057482
C        4.90866174       1.39635708       3.44190571       0.00745083       0.00196289      -0.00612712
S        3.45261526       3.59891634       2.75950046       0.01557474      -0.00502350      -0.00112117
C        1.27445116       7.91917690       3.85582806      -0.00397636       0.01381462      -0.00073542
C       -0.00340129       9.96346708       3.60779685      -0.00361307       0.00303164       0.00275610
C        7.36924808       1.44385646       3.49391319       0.00225519      -0.01426624       0.00466192
C        6.13738102       3.55340335       3.38323952       0.00488610      -0.00369386       0.00654338
C        4.88874563       5.67970330       3.55811731       0.00073343       0.00423275      -0.00456379
C        3.68842831       7.91510963       3.66637204       0.00145227       0.00559103      -0.00287795
C        2.46008855      10.03853407       3.58483763      -0.00360313       0.00317617       0.00878929
C        9.85880184       1.43848918       3.68233687       0.00138545      -0.00775690      -0.00145315
C        8.61205986       3.55846612       3.61768478      -0.00399904      -0.00878768      -0.00379958
C        7.37881362       5.68272929       3.60104302       0.00116740       0.00605182      -0.00740699
C        6.15635324       7.81545811       3.64630125       0.00392559      -0.00487224       0.01132439
C        4.93149449       9.98409258       3.64882369      -0.00031037      -0.00380667       0.00148921
Ag       2.58860499       5.26826207       6.14021605      -0.00067205      -0.00505795      -0.00085775
O        3.71816701       5.46872803       7.87653582      -0.00461948      -0.00762318       0.00017038
O        2.76634051       5.84400934       8.87531669      -0.01149747       0.00750580      -0.00579363
H        3.09388830       5.30469073       9.62322898      -0.00550376       0.00065204      -0.00191886
