52
Lattice="12.336457 0.0 0.0 -6.168228499999997 10.683685154694365 0.0 0.0 0.0 15.0" Properties=species:S:1:pos:R:3:forces:R:3 energy=-436.5844507602446 free_energy=-436.5844507602446 stress="-0.0034593392645490364 -0.00406008779030585 3.317300620941652e-05 -0.00406008779030585 -0.00364701521589368 -6.612853437451533e-05 3.317300620941652e-05 -6.612853437451533e-05 -1.9561397903263254e-05" pbc="T T T"
C        0.01226034      -0.02971389       3.58585232       0.00101859      -0.00467106       0.00773490
C       -1.24145162       2.10477007       3.41117432      -0.00943199      -0.00057716       0.00229169
C       -2.47033384       4.25410929       3.62592842      -0.00234255      -0.00286335      -0.00605985
C       -3.66691712       6.39818643       3.79672948       0.00421403       0.00307360       0.00580923
C       -4.89843360       8.53301862       3.76868005      -0.00201256       0.00091015       0.00532691
C        2.49042965      -0.04951199       3.58938908       0.00450080      -0.00600127      -0.00525083
C        1.23315420       2.02494312       3.13946531      -0.00772945      -0.00225729       0.00341981
C       -0.07851861       4.26472048       3.18989700      -0.00001244       0.00009646      -0.00134381
C       -1.21219974       6.38240587       3.72489632       0.00442185       0.00250194       0.00048680
C       -2.42393890       8.51929728       3.78004726      -0.00612038       0.00353035       0.00055128
C        4.95218294      -0.01689768       3.78373389       0.00238611      -0.00035600      -0.01278599
C        3.67216824       2.06793847       3.66810430       0.00066037      -0.00284125       0.00456865
B        1.10349030       6.39446771       4.16381932      -0.00174856       0.00308932       0.00247859
C        0.03813725       8.52504350       3.90701406      -0.00567688      -0.00041523      -0.00628252
C        7.41939507      -0.01156132       3.85478013      -0.00284647       0.00368092      -0.00501093
C        6.15525225       2.14902172       3.84803088       0.00580763      -0.00408497       0.00344461
C        5.00770616       4.37963354       3.99862916       0.00809579      -0.00136703      -0.00078403
O        3.81301341       6.46553197       4.06564271      -0.00143658      -0.00780196      -0.00344035
C        2.52793065       8.52011908       3.98338011       0.00276814       0.00198486       0.00334811
C        9.88296754      -0.01877264       3.74219247       0.00371635       0.00675977       0.00149850
C        8.63613158       2.12557955       3.72590221      -0.00144141      -0.00475938       0.00315230
C        7.41742086       4.27629682       3.85083277       0.00863222      -0.00162608       0.00722151
C        6.22906082       6.44024741       3.94473151      -0.00113459       0.00527939       0.00105906
C        4.97198533       8.54044587       3.87476313       0.00039588      -0.00038213       0.01315892
C       -0.00147800       1.38719715       3.36291111      -0.00914945      -0.00436993      -0.00387777
C       -1.25811309       3.52412358       3.39184439      -0.00372172       0.00049284       0.00035472
C       -2.44899303       5.67795628       3.70862341       0.00526727      -0.00077063      -0.00372419
C       -3.65896696       7.81889513       3.78316073      -0.00290918       0.00379619       0.00252958
C       -4.91466280       9.94555085       3.63741277       0.00442076      -0.00357602       0.00393724
C        2.46856269       1.36081374       3.42988853      -0.00121681      -0.00626187      -0.00155541
S        1.19352508       3.53826880       2.29165123       0.00931981      -0.00132465      -0.00604828
C       -0.00732216       5.63011116       3.57918662       0.00697847      -0.00093734       0.00119351
C       -1.18586138       7.80146188       3.82971081      -0.00665972       0.00368865      -0.00001817
C       -2.43533068       9.94177050       3.72837897       0.00352942      -0.00065068      -0.00581091
C        4.92773863       1.42540081       3.78223318       0.00343480      -0.00212460       0.00163455
S        3.44679255       3.73272376       3.96731539      -0.00345822       0.00122147       0.00720173
C        1.28380925       7.83132370       4.01756399      -0.00109968       0.00083766      -0.00212389
C        0.02070930       9.95936422       3.86086957      -0.00264309      -0.00167522      -0.00455250
C        7.39459438       1.42409608       3.81729855       0.00148239      -0.00127129      -0.00202882
C        6.17036106       3.58174884       3.90353147       0.00876272      -0.00236611      -0.00267584
C        5.02638620       5.77615791       4.01974952       0.00201125      -0.00135876      -0.00343639
C        3.77121144       7.84251257       3.98471918       0.00059783      -0.00580106      -0.00183057
C        2.49750194       9.95063398       3.87033595       0.00162650       0.00768328       0.00017093
C        9.87504518       1.40952780       3.62476863      -0.00586566       0.00387591      -0.00050106
C        8.63975535       3.54748809       3.73532379       0.00194548      -0.00878125      -0.00433193
C        7.43976508       5.69194461       3.86929665       0.00094132       0.00205096      -0.00579716
C        6.21574253       7.84891841       3.86967678      -0.00114746       0.00277790       0.00260242
C        4.94765955       9.95777488       3.73721636       0.00023978      -0.00207467      -0.00129402
Ag       2.07744487       5.26548400       5.68105673      -0.00430742       0.00100371      -0.00497961
O        2.18287463       4.42169787       7.59710344      -0.00699327       0.00662910       0.01367293
O        1.84592218       5.46898341       8.53792837      -0.00433637       0.00736855      -0.00909810
H        2.66689147       5.48109457       9.06409403      -0.00173364       0.01101526       0.00579446
