52
Lattice="12.336457 0.0 0.0 -6.168228499999997 10.683685154694365 0.0 0.0 0.0 15.0" Properties=species:S:1:pos:R:3:forces:R:3 energy=-440.3404841355556 free_energy=-440.3404841355556 stress="-0.00034271126751755617 -0.0012933791454765836 8.268837200744994e-05 -0.0012933791454765836 -0.007112767101573338 2.2510644123142425e-06 8.268837200744994e-05 2.2510644123142425e-06 -2.2520594116485393e-05" pbc="T T T"
C       -0.00532390      -0.03599245       3.80876705       0.00365085       0.00579055      -0.00587557
C       -1.23911858       2.11323830       3.87879659       0.00362253       0.00278509      -0.00117975
C       -2.48205409       4.25305433       3.75978853       0.00278885      -0.00047149      -0.01187478
C       -3.70619121       6.38193296       3.68669496      -0.00252150      -0.00584568      -0.00195565
C       -4.93629028       8.50957614       3.72802971       0.00145006       0.00698546      -0.01184348
C        2.46775304      -0.07385927       3.68040602      -0.00807503       0.00141958      -0.00508254
C        1.26344738       2.04764030       3.95806476       0.01008379       0.00444534      -0.00686863
C       -0.05692174       4.27793612       4.06667097       0.00070726       0.00750695      -0.00115615
C       -1.23192335       6.39117038       3.80542281       0.00781284      -0.00707232      -0.00332048
C       -2.46077740       8.50505132       3.68458467       0.00555766       0.00098559      -0.00645265
C        4.93327895      -0.03509478       3.56875214      -0.00789267      -0.00336516      -0.01211374
C        3.66616492       2.02685558       3.36107235      -0.00294564       0.00039238       0.00807159
B        1.31617451       6.39678415       4.18037800       0.00026755       0.01281801      -0.01068088
C        0.00268935       8.53487998       3.78624130       0.00744916      -0.01345884      -0.00740945
C        7.39340700      -0.00055443       3.65569302      -0.00162827      -0.00766533      -0.01062966
C        6.14576829       2.12824871       3.43872618      -0.00438554       0.00153565      -0.00375468
C        4.94338618       4.30976023       3.36542702       0.00904972       0.00380254      -0.00417430
C        3.67244887       6.39620450       3.94985780       0.00546527       0.00783038       0.00557697
C        2.46623528       8.56696653       3.87961489       0.00094366      -0.00706440      -0.00493878
C        9.86572087      -0.00477707       3.76452869       0.00127827      -0.00214840      -0.00089863
C        8.62476560       2.12713045       3.65589468      -0.00570112       0.00880402       0.00051957
C        7.38429177       4.26158403       3.58382257       0.00438259      -0.00754329       0.00221056
C        6.15296899       6.39856793       3.68559387       0.00332650      -0.00144028       0.01014602
C        4.93117762       8.52595608       3.79401301      -0.00367905      -0.00256243       0.00361382
C        0.00044500       1.39071944       3.90452683       0.00895800       0.00678351      -0.00258762
C       -1.25332846       3.53307552       3.90137964       0.00344643       0.00434668      -0.01643502
C       -2.47338039       5.67481154       3.73304470       0.00074895      -0.00495307       0.01149357
C       -3.70117051       7.80047710       3.69535506       0.00260220       0.00287022       0.00770506
C       -4.94305737       9.92224953       3.75000183      -0.00265512       0.00749663       0.00882162
C        2.46668272       1.33825739       3.67522742       0.00136462      -0.00367669      -0.00473357
P        1.47015615       3.64930372       4.60983463      -0.01023996      -0.00053057       0.01334511
C       -0.01238712       5.68288531       3.97943518       0.01560104       0.00597604      -0.00243628
C       -1.22530033       7.80852227       3.75077327       0.00707450      -0.00869671       0.00689637
C       -2.46114174       9.92146285       3.63057383      -0.00924937       0.00229330       0.00436419
C        4.92137689       1.39606323       3.42800325      -0.00454616       0.00002418       0.00666811
S        3.47696436       3.63573122       2.75150474      -0.00243808       0.00126442       0.00918578
C        1.24849036       7.87114154       3.94413549       0.00533746      -0.00572838       0.00555873
C       -0.00100286       9.95689676       3.65769681      -0.00429640      -0.01021281       0.01274920
C        7.38166558       1.42444272       3.56791598      -0.00635774       0.00347245       0.01013586
C        6.13694762       3.55641588       3.44741304       0.00562663       0.00231304      -0.01266434
C        4.88570506       5.71030199       3.65567933      -0.00097856       0.00644145       0.00089064
C        3.68481073       7.80292773       3.87486736      -0.00439946       0.00306095       0.00997257
C        2.46364022       9.98161945       3.75578490       0.00091631      -0.01113095       0.00099305
C        9.86422436       1.41539870       3.75957684      -0.00492509       0.00311145       0.00883653
C        8.62055350       3.54848626       3.65837790       0.00210718       0.00399264      -0.00710168
C        7.38468507       5.68036388       3.64596331       0.00069205      -0.01165909      -0.00643432
C        6.15973909       7.81329909       3.74706763       0.00234225      -0.00017163       0.00423617
C        4.92756512       9.94845201       3.79148511       0.00542258      -0.00275370       0.00187614
Ag       2.68845384       5.48279903       5.61760496      -0.01429346       0.00268241      -0.00832133
O        3.50750371       5.61366092       7.53165613      -0.00393667      -0.00507234       0.01757820
O        2.40598814       5.58024022       8.43830739      -0.01033833       0.01250809       0.00008480
H        2.88866574       5.44584643       9.27650576      -0.01459352      -0.01051547      -0.00060629
