52
Lattice="12.336457 0.0 0.0 -6.168228499999997 10.683685154694365 0.0 0.0 0.0 15.0" Properties=species:S:1:pos:R:3:forces:R:3 energy=-446.81691962281366 free_energy=-446.81691962281366 stress="0.004055338211320693 -0.0006738281332477841 5.8416834733241775e-05 -0.0006738281332477841 -0.0007066423682184981 -4.869689376082656e-05 5.8416834733241775e-05 -4.869689376082656e-05 7.861529261532172e-06" pbc="T T T"
C        0.01681585      -0.00761452       3.71161140       0.00674007      -0.00843638       0.00897555
C       -1.21106729       2.13790304       3.69531573      -0.00294602       0.00026281       0.00616111
C       -2.44688678       4.26271953       3.62690525       0.00313215      -0.00459025       0.00270710
C       -3.69355173       6.39328837       3.59473150       0.00315889       0.00559956      -0.00063344
C       -4.92325450       8.52838970       3.63948921       0.00284584      -0.00148924       0.00442598
C        2.47771244      -0.05182613       3.75290150       0.00264416      -0.00077122      -0.00397899
C        1.27476194       2.10184104       3.78400435      -0.01037102      -0.00377984      -0.01581513
C        0.07410559       4.28093570       3.72134751       0.01508592       0.00278063      -0.00340267
C       -1.23335839       6.40611960       3.69352915       0.00284307       0.00089430      -0.00054552
C       -2.45661993       8.52541944       3.70088904      -0.00354840      -0.00235093      -0.00358792
C        4.94051921      -0.01572057       3.77585953      -0.00361254       0.00023681      -0.01185816
C        3.67981102       2.09939078       3.79313600       0.00177052       0.00197421       0.00076683
C        1.17449036       6.41719278       4.11411018      -0.00004153      -0.00892787       0.01264909
C        0.00827503       8.53250431       3.84359910      -0.00227393       0.00416281      -0.01235600
C        7.40922033      -0.00550212       3.78829789      -0.00078149       0.01030895       0.00329896
C        6.15478138       2.14292713       3.71023984       0.00156715       0.00172554       0.00858058
C        4.85659248       4.30086487       3.67759891      -0.00663144      -0.00676290      -0.00487847
N        3.79302873       6.45806698       3.92095860       0.00359685      -0.01009677       0.00386946
C        2.49213014       8.52862872       3.91103269      -0.00132872      -0.00410996      -0.00708236
C        9.88037972      -0.00362335       3.74611301       0.00186215       0.00813383       0.00520171
C        8.63993513       2.13437453       3.68155041       0.00012551      -0.00584086       0.00387423
C        7.38466411       4.26595426       3.60869882      -0.00416129      -0.00233188       0.00948785
C        6.17864836       6.41233401       3.59618640      -0.00052610       0.00148302      -0.00660626
C        4.95628776       8.54563385       3.71104321       0.00534846       0.00908113       0.01047314
C        0.02766375       1.42684837       3.73491921      -0.00905059      -0.01163462      -0.00703972
C       -1.17760200       3.56506876       3.66944774       0.01188179       0.00137086      -0.00472561
C       -2.45684547       5.68524792       3.61970620       0.00260054       0.00011271      -0.00628124
C       -3.68899210       7.81467248       3.63440181      -0.00019987       0.00147122      -0.01070600
C       -4.92776819       9.94673800       3.70145303       0.00931210      -0.00714340      -0.00257814
C        2.47713362       1.36437537       3.79685324      -0.00357326       0.00328433      -0.01379009
B        1.50002616       3.62123011       3.79393333       0.00620106       0.00027158       0.01225507
C        0.02015757       5.70483484       3.80318526       0.00239041       0.00041641      -0.00484237
C       -1.22111214       7.82142606       3.74293818      -0.00183860       0.00276862      -0.00404998
C       -2.45253811       9.94205372       3.74735131      -0.00207095      -0.00443891       0.00070686
C        4.92565213       1.42251207       3.76338785       0.00249531       0.00128616       0.00521227
B        3.44924328       3.61673069       3.78137760       0.00526706      -0.00217721       0.00749653
C        1.25344069       7.79092126       3.96356418      -0.00440085      -0.00789856       0.00759905
C        0.00805502       9.95737471       3.80551207      -0.00194061       0.00729811      -0.00920997
C        7.39843656       1.42491007       3.72172019       0.00098424       0.00411119       0.00208888
C        6.11103198       3.57641413       3.65563923      -0.00589884      -0.00289328       0.00494535
C        4.91963716       5.74007925       3.69487318       0.00383652      -0.01086079       0.00706390
C        3.73670446       7.80554541       3.85041724       0.00662006      -0.00747433      -0.00623716
C        2.48091890       9.94900906       3.81224421       0.00025305       0.00625949       0.01182750
C        9.88310700       1.42495391       3.70337268      -0.00101361       0.00382814      -0.00398720
C        8.63786591       3.55941202       3.62996340      -0.00160311      -0.00896620      -0.00294895
C        7.40155911       5.68547935       3.57940489       0.00064085       0.00298373      -0.00616062
C        6.17922115       7.82796709       3.62752283       0.00107843       0.00552290       0.01063028
C        4.94841338       9.96803488       3.71830438       0.00241969       0.00947326       0.00379095
Ag       2.43610071       5.17416636       5.26748510      -0.01891434       0.00156570       0.00329037
O        2.71109436       4.39919411       7.21553693      -0.00633938       0.00857291       0.00381107
O        2.06706589       5.31483470       8.10769696      -0.00865257       0.01420465      -0.00358943
H        2.80190673       5.49686841       8.72347683      -0.00498277       0.00152984      -0.00429827
