52
Lattice="12.336457 0.0 0.0 -6.168228499999997 10.683685154694365 0.0 0.0 0.0 15.0" Properties=species:S:1:pos:R:3:initial_magmoms:R:1:forces:R:3 energy=-452.3939108093945 free_energy=-452.3939108093945 stress="-0.00021450168890185838 -5.636226335918044e-05 1.3832780728438625e-05 -5.636226335918044e-05 -0.00020934071003128778 -3.078628406943365e-05 1.3832780728438625e-05 -3.078628406943365e-05 -3.212788023512021e-05" pbc="T T T"
C        0.01155885      -0.00407002       3.67608402       0.00000000       0.00188635       0.00386277      -0.00931187
C       -1.22199585       2.12627633       3.65176341       0.00000000      -0.00715045       0.00340106      -0.01735593
C       -2.45822988       4.26733821       3.64126829       0.00000000       0.00321666      -0.00200697       0.00864064
C       -3.68591955       6.40104960       3.66389669       0.00000000       0.00113455      -0.00339932      -0.00116410
C       -4.92490985       8.53848932       3.68689947       0.00000000       0.00420572      -0.00779885      -0.01223635
C        2.48232831       0.00027738       3.66683940       0.00000000       0.00095982       0.00147585      -0.00549672
C        1.25245532       2.15249422       3.67910959       0.00000000      -0.00145873       0.00852110      -0.00187253
C       -0.00910899       4.25388777       3.68620377       0.00000000       0.00565695       0.00222560      -0.00684788
C       -1.19719848       6.39666529       3.67795455       0.00000000       0.00341986      -0.00045772      -0.00877807
C       -2.44679553       8.53785849       3.66480339       0.00000000       0.00510680       0.00452154       0.00278652
C        4.95265488      -0.00380997       3.63900756       0.00000000       0.00218156      -0.00412675       0.00349439
C        3.71171886       2.15331445       3.66009181       0.00000000      -0.00130115       0.00585384      -0.01436261
B        2.48082134       4.51193806       3.73908147       0.00000000       0.01278850      -0.01023194      -0.00861758
B        1.46082278       6.28143489       3.75117631       0.00000000      -0.00445923       0.00628324       0.00382588
C        0.03285939       8.52655091       3.67112571       0.00000000      -0.00120209      -0.00428473      -0.00631992
C        7.41455033      -0.00053444       3.63215465       0.00000000       0.00110701      -0.00183111      -0.00644492
C        6.18619650       2.12680997       3.61758042       0.00000000      -0.00173601       0.00091105       0.00837566
C        4.97241423       4.25439811       3.67110408       0.00000000      -0.00228625       0.00527710       0.00152779
B        3.50478843       6.28376363       3.75292857       0.00000000       0.00878384      -0.01267293       0.00648454
C        2.48248746       8.56840456       3.69005748       0.00000000      -0.00287643      -0.00194819      -0.00124210
C        9.88616675      -0.00064657       3.65036815       0.00000000       0.00099756      -0.00025839       0.00411613
C        8.65023288       2.13127153       3.62075654       0.00000000       0.00336135      -0.00336723      -0.01064624
C        7.42195953       4.26742162       3.63385057       0.00000000      -0.00026012      -0.00083997      -0.00182287
C        6.16252772       6.39679378       3.68979252       0.00000000      -0.01055556       0.00157920      -0.01341171
C        4.93299915       8.52708029       3.69937362       0.00000000      -0.00986505      -0.00235435      -0.01593504
C        0.01595846       1.42297198       3.66823654       0.00000000      -0.00565265       0.00947595      -0.00184225
C       -1.23788123       3.54454011       3.65207237       0.00000000       0.00298815       0.00217682       0.01078745
C       -2.44772397       5.69097415       3.65875543       0.00000000       0.00351887      -0.00281851      -0.00502657
C       -3.68606048       7.82757759       3.67486974       0.00000000       0.00919765      -0.00243202      -0.00694055
C       -4.92106870       9.96671704       3.67955598       0.00000000       0.00322959      -0.00488059       0.00079174
C        2.48237062       1.42646057       3.66947422       0.00000000      -0.00165190       0.00503816       0.00303226
C        1.23066561       3.57931625       3.69575411       0.00000000       0.00752498       0.00655726       0.00417456
C        0.02791991       5.66480382       3.69779316       0.00000000       0.00413984       0.00148721       0.00776044
C       -1.21130876       7.82488678       3.67091063       0.00000000      -0.00016574      -0.00037818       0.00959770
C       -2.45089078       9.96625939       3.65420924       0.00000000       0.00210075       0.00295032       0.01900334
C        4.94823479       1.42370283       3.63257065       0.00000000      -0.00187391      -0.00092474       0.00972335
C        3.73207076       3.58049069       3.68032136       0.00000000       0.00139316       0.00367978       0.00792976
C        1.27906189       7.83088945       3.69752493       0.00000000      -0.00172296       0.00059238      -0.00230059
C        0.01861127       9.96246697       3.64371397       0.00000000       0.00125539      -0.00632080      -0.00253800
C        7.41731054       1.41933431       3.61439396       0.00000000       0.00199481      -0.00013933       0.01443585
C        6.20133353       3.54504335       3.63064704       0.00000000      -0.00515656       0.00380436       0.00881330
C        4.93688934       5.66531521       3.70097687       0.00000000      -0.00385905       0.00111747      -0.00705247
C        3.68669077       7.83247671       3.70987618       0.00000000      -0.00768548      -0.01036935       0.01060394
C        2.48210883       9.98728979       3.65094848       0.00000000       0.00120340       0.00021573       0.00444581
C        9.88331267       1.41922820       3.63541216       0.00000000      -0.00182078      -0.00299827       0.00783809
C        8.65004226       3.55504753       3.62586675       0.00000000       0.00342123      -0.00388996      -0.00002699
C        7.41238056       5.69093468       3.65929042       0.00000000      -0.00646985       0.00030050       0.01186096
C        6.17683608       7.82501753       3.69878637       0.00000000      -0.00693608       0.00030325      -0.01376837
C        4.94587197       9.96249413       3.67548328       0.00000000      -0.00001687       0.00149871       0.00049033
Ag       2.49328756       5.67425898       5.72424794       0.00000000      -0.00935274      -0.01313495      -0.00680093
O        1.53097426       5.95830051       8.48626088       1.00000000      -0.00513021       0.00322814       0.01038306
O        2.54919330       5.53200749       7.84890629       1.00000000       0.00387150       0.01752672       0.00723969
