53
Lattice="12.336457 0.0 0.0 -6.168228499999997 10.683685154694365 0.0 0.0 0.0 15.0" Properties=species:S:1:pos:R:3:forces:R:3 energy=-456.46665247426307 free_energy=-456.46665247426307 stress="-0.0002896916954802799 2.7143994660213035e-06 -3.517780932459159e-06 2.7143994660213035e-06 -0.0002715442299217906 -8.749875706017122e-06 -3.517780932459159e-06 -8.749875706017122e-06 1.6548735204598933e-05" pbc="T T T"
C        0.04823558       0.00154167       3.71515108      -0.00166506       0.01091885       0.00607470
C       -1.18533719       2.13242877       3.70921567       0.00037614       0.00788970      -0.00273295
C       -2.42070737       4.27386444       3.70805518      -0.00089849      -0.00707787       0.00184289
C       -3.64897418       6.40760390       3.71826525       0.00212595      -0.00735681      -0.00671537
C       -4.88834627       8.54442179       3.72092251       0.00025070      -0.00255430       0.00365054
C        2.51881804       0.00659887       3.72112170       0.00067863       0.00100815       0.00668600
C        1.28882910       2.15851049       3.73744651       0.00378829       0.00557500       0.00055413
C        0.02814146       4.26058774       3.75389708       0.00012453      -0.00408756       0.00558347
C       -1.16101647       6.40353693       3.74343665       0.00165784      -0.00354559      -0.00064046
C       -2.41004108       8.54448037       3.72394852      -0.00586767       0.00167157       0.00517285
C        4.98923474       0.00239333       3.71980079       0.00636404       0.00454859       0.00285768
C        3.74851269       2.15889215       3.73494390      -0.00036222       0.00129925       0.01074596
B        2.51880668       4.51719791       3.81010444      -0.00266556      -0.00751344       0.01571527
B        1.49602913       6.28899861       3.82250652      -0.00777562      -0.00149992       0.00326582
C        0.06825646       8.53338114       3.74719251       0.00459000      -0.00270261      -0.00643234
C        7.45140043       0.00534604       3.71520879      -0.00218294       0.00614621      -0.01127975
C        6.22329929       2.13292907       3.70489228      -0.00061383      -0.00185578       0.00713256
C        5.01008522       4.26012077       3.74856232      -0.00160926       0.00346289      -0.00446979
B        3.54240220       6.28885463       3.81479824       0.00702991       0.00322651      -0.00497444
C        2.51825295       8.57427478       3.75599198       0.00723034      -0.00019205      -0.00274648
C        9.92285453       0.00508784       3.71042625      -0.00504754       0.00367744       0.00231537
C        8.68727711       2.13755304       3.69575418      -0.00100578      -0.00452838       0.00123658
C        7.45920690       4.27382716       3.70516841       0.00065130      -0.00480273       0.00553557
C        6.19974632       6.40349676       3.73910792      -0.00889261      -0.00209542      -0.00307439
C        4.96884101       8.53283370       3.73704068       0.00321047      -0.00419533       0.00338466
C        0.05243524       1.42883477       3.71725547       0.00195448       0.01353597       0.00521569
C       -1.20065788       3.55082180       3.71774189      -0.00053804       0.00175149      -0.00138342
C       -2.41078684       5.69759998       3.71960877       0.00379870      -0.00755049       0.00634847
C       -3.64908911       7.83404046       3.71912252      -0.00349453      -0.00526865       0.01273530
C       -4.88434226       9.97249784       3.71899172      -0.00238550       0.00242187      -0.00429854
C        2.51873257       1.43277222       3.73268402       0.00038781       0.00219936      -0.00843338
C        1.26781117       3.58566198       3.76285818       0.00076213       0.00122045      -0.01293105
C        0.06398892       5.67155351       3.76972980       0.00005857      -0.00626536      -0.01267202
C       -1.17504140       7.83144197       3.73983547      -0.00303001      -0.00032901      -0.00247772
C       -2.41440569       9.97273399       3.72133342       0.00390763       0.00387244       0.00006922
C        4.98515479       1.42975476       3.71730979      -0.00015002       0.00191017      -0.00435474
C        3.76982563       3.58583307       3.75920872       0.00087196       0.00117060      -0.00648348
C        1.31431206       7.83801083       3.76969346       0.00772094      -0.00137538       0.00612868
C        0.05500124       9.96879153       3.72645541       0.00483354       0.00154937      -0.00677731
C        7.45437378       1.42536009       3.70010418      -0.00194099       0.00172498       0.00177931
C        6.23890836       3.55104869       3.71154948      -0.00109419      -0.00206967       0.00594960
C        4.97469619       5.67118533       3.76264677      -0.01278194       0.00516153      -0.00143151
C        3.72236047       7.83774664       3.76211355       0.00515167      -0.00549798       0.00985917
C        2.51882818       9.99320968       3.72164756      -0.00466551       0.00357645       0.00119412
C        9.92000300       1.42509806       3.70173797       0.00125717       0.00334393      -0.00954769
C        8.68741606       3.56154611       3.69724873       0.00074607      -0.00798386       0.00127551
C        7.44941929       5.69748287       3.71949088      -0.00375564      -0.00200089      -0.01061522
C        6.21284962       7.83139185       3.73318467       0.00214677      -0.00485597      -0.00147564
C        4.98241480       9.96811996       3.71828599      -0.00184379       0.00111108      -0.00359559
Ag       2.52418909       5.68916031       5.76123264       0.00699354      -0.00365769       0.00400687
O        2.68079350       5.63617029       7.85428292      -0.00186500       0.00833800       0.00202614
O        1.33882699       5.64876966       8.35958950      -0.01508247       0.00076392       0.00016241
H        1.52710972       5.59582051       9.31568608       0.01254510      -0.00221308      -0.00896129
