50
Lattice="12.336457 0.0 0.0 -6.168228499999997 10.683685154694365 0.0 0.0 0.0 15.0" Properties=species:S:1:pos:R:3:forces:R:3 energy=-426.1784601159361 free_energy=-426.1784601159361 stress="0.0018873233227202364 0.0003410588832158043 4.097287736879107e-06 0.0003410588832158043 -0.011416791286280191 2.13911254106504e-06 4.097287736879107e-06 2.13911254106504e-06 1.4691109622257207e-05" pbc="T T T"
C        0.01654129      -0.04803054       3.63265899       0.00368933       0.00160798       0.00324396
C       -1.20107123       2.12217292       3.53884859       0.00219357       0.00224921      -0.00559177
C       -2.43242008       4.25271918       3.58938304       0.00415878       0.00745809      -0.00831389
C       -3.67235692       6.37138565       3.61780117      -0.00487490       0.00305403      -0.00206837
C       -4.93306512       8.48303844       3.61169703      -0.00106604      -0.00028609       0.00233799
C        2.47781709      -0.11071782       3.87079098      -0.00477479       0.00401307      -0.00284340
C        1.28842560       2.00544082       3.54812575       0.00088511      -0.00427148      -0.00465238
C        0.02240851       4.28048632       3.32684160       0.00454027      -0.00022893       0.00670813
C       -1.17543678       6.38092712       3.63960402      -0.00064911      -0.00200193       0.00080959
C       -2.43861130       8.48633371       3.80553022       0.00166113      -0.00210760       0.00837334
C        4.94701218      -0.03968628       4.03511783       0.00037989      -0.00395508      -0.00559258
C        3.67263115       2.01076591       4.18415547       0.00329569      -0.00292697       0.00646878
B        1.41134911       6.42431057       3.68512365       0.00339995      -0.00579563      -0.00043501
C        0.02948594       8.53987952       3.87822793      -0.00044270      -0.00276990       0.00416510
C        7.41068903       0.02670236       3.95523582       0.00687927      -0.00173933       0.00416390
C        6.17468236       2.13161039       4.04474682      -0.00401189       0.00095559      -0.00084198
C        4.96721161       4.29569128       3.86431644       0.00046748      -0.00002031      -0.00000582
S        3.34630155       6.29072280       2.99001387      -0.00929122      -0.00144408      -0.01128694
C        2.47871708       8.62755899       3.73330942      -0.00284034       0.00021602      -0.00509478
C        9.89732874       0.02048133       3.72712736       0.00723264       0.00388168       0.00506314
C        8.65813951       2.13987547       3.79592895      -0.00453128       0.00197143      -0.00157299
C        7.41944832       4.25570311       3.73696875       0.00307694      -0.00295481       0.00062716
C        6.16417799       6.37689879       3.46948414       0.00021552      -0.00316828       0.00200576
C        4.93212284       8.52898382       3.50880539      -0.00033860       0.00500720       0.00142227
C        0.02627930       1.37873275       3.55693209       0.00235510      -0.00072361       0.00408209
C       -1.19353485       3.54124335       3.47033687       0.00482840       0.00334069      -0.00771945
C       -2.42676912       5.67010626       3.61459317      -0.00320425       0.00620106      -0.00301038
C       -3.68024227       7.78472603       3.66987142       0.00012729       0.00174916      -0.00148507
C       -4.92885229       9.89724507       3.69780053      -0.00254094       0.00005067       0.00866844
C        2.47384120       1.29566207       3.90684293       0.00313078       0.00316728      -0.00684068
P        1.58390362       3.57210772       2.81723430      -0.01119970      -0.00291553       0.00523374
C        0.06820839       5.67250015       3.50433716      -0.00105846       0.00003461      -0.00203877
C       -1.19599822       7.79419631       3.79366758       0.00183819      -0.00392229       0.00239803
C       -2.44407109       9.89864175       3.93107974      -0.00525784      -0.00038162       0.00276094
C        4.93922987       1.39015402       4.12841493       0.00058721      -0.00355381       0.00189879
P        3.40143785       3.71964931       4.48852251       0.00189459      -0.00693056      -0.00042033
C        1.28064172       7.90341673       3.78611609      -0.00252705      -0.00266300      -0.00178379
C        0.01652876       9.97217501       3.98069234       0.00406578      -0.00239783      -0.00092086
C        7.41282606       1.44210954       3.95318724      -0.00477344      -0.00056140      -0.00025446
C        6.18242005       3.54955101       3.90832849       0.00067374       0.00092952       0.00321925
C        4.96211732       5.62880365       3.46303460      -0.00058071      -0.00275220      -0.00694763
C        3.66616032       7.92825262       3.46473917      -0.00219398       0.00419541      -0.00242645
C        2.48785012      10.03633020       3.83936532       0.00856778      -0.00065950       0.00523754
C        9.89995204       1.43719265       3.69401810      -0.00053843       0.00436654       0.00682630
C        8.66265616       3.55238361       3.71325712       0.00468081       0.00243121      -0.00601767
C        7.41695430       5.66837343       3.59229780      -0.00015904      -0.00351510       0.00455804
C        6.16492224       7.79456925       3.48326935      -0.00076922      -0.00112346       0.00551964
C        4.94613454       9.95974935       3.62341954       0.00515960       0.00544300      -0.00048481
Ag       2.24698969       5.43867908       5.68833845      -0.01196090       0.00449161       0.00468084
O        1.84607057       5.83961318       7.66848404      -0.00040001      -0.00104471      -0.01182253
