51
Lattice="12.336457 0.0 0.0 -6.168228499999997 10.683685154694365 0.0 0.0 0.0 15.0" Properties=species:S:1:pos:R:3:initial_magmoms:R:1:forces:R:3 energy=-432.62742147588733 free_energy=-432.62742147588733 stress="0.002298258931059332 8.71204981411048e-05 3.5550719771855755e-05 8.71204981411048e-05 -0.011257882712257658 -2.19864023926591e-05 3.5550719771855755e-05 -2.19864023926591e-05 -3.3448057239144854e-06" pbc="T T T"
C        0.02455288      -0.05377352       3.60468039       0.00000000       0.00873599       0.00257995       0.00273021
C       -1.19208784       2.11787437       3.50910363       0.00000000      -0.00628536       0.00405928       0.00027636
C       -2.42271862       4.24912928       3.55911180       0.00000000      -0.00588951      -0.00167005      -0.01179857
C       -3.66432733       6.36639327       3.58921925       0.00000000       0.01455141       0.00343816      -0.00920705
C       -4.92501204       8.47763829       3.58394020       0.00000000       0.00227912      -0.00004854       0.00003359
C        2.48617578      -0.11695053       3.84044561       0.00000000       0.00515077      -0.00484969       0.00795137
C        1.29589203       1.99814707       3.51447750       0.00000000      -0.00071691       0.00092626      -0.00220178
C        0.03190083       4.27553045       3.28959625       0.00000000      -0.00942620       0.00092033       0.00608090
C       -1.16306896       6.37597322       3.60120536       0.00000000       0.00173297      -0.00391590       0.00144884
C       -2.42900991       8.48016964       3.77539408       0.00000000      -0.00177606       0.00298642      -0.00121221
C        4.95690654      -0.04576008       3.99651615       0.00000000      -0.00408182      -0.00537864      -0.00497968
C        3.68170049       2.00496121       4.13761819       0.00000000      -0.00760336      -0.00337576      -0.00348487
B        1.43153372       6.42088605       3.60707770       0.00000000       0.00032613      -0.00405476       0.00961534
C        0.04079431       8.53300833       3.83413599       0.00000000      -0.00606072      -0.00438008       0.00254730
C        7.41993312       0.02119640       3.91405633       0.00000000      -0.00330349       0.00769920      -0.00328534
C        6.18221473       2.12739838       3.99293629       0.00000000      -0.00118648      -0.00324447       0.00696381
C        4.97270560       4.29263210       3.79459573       0.00000000      -0.00058608       0.00339459      -0.00491655
S        3.34715864       6.29301264       2.91018114       0.00000000      -0.00073009      -0.01772834      -0.00326974
C        2.48750998       8.62448284       3.67443251       0.00000000       0.00621257      -0.00447552       0.00957966
C        9.90648159       0.01636743       3.68880110       0.00000000      -0.00062741       0.00566861       0.00338421
C        8.66586387       2.13584162       3.75661274       0.00000000       0.00595113       0.00326210       0.00258421
C        7.42633658       4.25115464       3.69301534       0.00000000       0.01345734      -0.00126103       0.00237956
C        6.17148087       6.37298433       3.42324637       0.00000000      -0.00566291       0.00023251       0.00313623
C        4.94043168       8.52512223       3.46056715       0.00000000       0.00028505       0.00633520       0.00329844
C        0.03422805       1.37270646       3.52985166       0.00000000      -0.00097699       0.00387727      -0.00540701
C       -1.18335048       3.53740896       3.43978259       0.00000000      -0.01532119       0.00230913      -0.00760268
C       -2.41670256       5.66627786       3.58486994       0.00000000       0.00797475      -0.00333052      -0.01398238
C       -3.67175295       7.77924872       3.64321904       0.00000000       0.00418768       0.00503829      -0.00525691
C       -4.92111913       9.89140662       3.67239953       0.00000000       0.00940397      -0.00145858      -0.00220269
C        2.48260682       1.28971613       3.87122874       0.00000000      -0.00220713      -0.00691124      -0.00189186
P        1.58423040       3.55734124       2.76453213       0.00000000       0.01226592       0.00126538      -0.01154338
C        0.08281635       5.66893484       3.45888517       0.00000000       0.00063442      -0.00441286       0.00190749
C       -1.18494642       7.78861843       3.75462959       0.00000000      -0.00742083      -0.00568780       0.00370614
C       -2.43490054       9.89260345       3.89778916       0.00000000      -0.00028504      -0.00261200       0.01119801
C        4.94826772       1.38488564       4.08257215       0.00000000      -0.00717093      -0.00823499      -0.00185015
P        3.40272831       3.71661518       4.40061592       0.00000000      -0.00793214       0.01144009       0.00716191
C        1.29169839       7.89550030       3.72994359       0.00000000      -0.00052211       0.00004299       0.00446313
C        0.02676982       9.96539801       3.94072895       0.00000000      -0.00364154      -0.00102886      -0.00510181
C        7.42039200       1.43712809       3.90841995       0.00000000       0.00423076       0.00835563       0.00720849
C        6.18834722       3.54511784       3.85131830       0.00000000       0.00613708       0.00213066       0.01085930
C        4.96728809       5.62712428       3.39912100       0.00000000      -0.01627864       0.00495020      -0.00583290
C        3.67390125       7.92691593       3.39900600       0.00000000       0.00560910      -0.00702877      -0.00566564
C        2.49693269      10.03178005       3.79442341       0.00000000      -0.00056723       0.00199634       0.00850284
C        9.90868059       1.43330337       3.66106586       0.00000000      -0.00059503       0.00429106      -0.00269798
C        8.67083730       3.54860825       3.67591864       0.00000000       0.00682209      -0.00317209      -0.00308886
C        7.42404999       5.66427692       3.55531090       0.00000000       0.01006206       0.00100894      -0.00745137
C        6.17353837       7.79042508       3.44469071       0.00000000      -0.00105385       0.00042049      -0.00428222
C        4.95442494       9.95488559       3.58483611       0.00000000       0.00418804       0.00835505       0.01275361
Ag       2.26224779       5.23427968       5.73411094       0.00000000      -0.00108675      -0.01040554       0.00312772
O        2.22251490       5.61465771       8.62207523       1.00000000      -0.00785831       0.00735144      -0.00932842
O        1.55846285       5.99743738       7.60011943       1.00000000      -0.00334424       0.00433048       0.00464339
