49
Lattice="12.336457 0.0 0.0 -6.168228499999997 10.683685154694365 0.0 0.0 0.0 15.0" Properties=species:S:1:pos:R:3:forces:R:3 energy=-426.52349700347503 free_energy=-426.52349700347503 stress="0.008173387990882486 -0.0007539322001594275 -6.971973969179446e-06 -0.0007539322001594275 -0.007466569385281032 5.389009969263684e-06 -6.971973969179446e-06 5.389009969263684e-06 -1.3974271603994408e-06" pbc="T T T"
C        0.00140214      -0.02643204       3.89748603      -0.00330875       0.00073639       0.00268167
C       -1.20677333       2.15438586       3.71724161       0.00363537       0.00027933      -0.00237613
C       -2.43792292       4.27808356       3.61150469      -0.00185698       0.00187238      -0.00614329
C       -3.69253610       6.38578014       3.73602411      -0.00058330      -0.00593075      -0.00145794
C       -4.94196137       8.49893791       3.89848844       0.00064364      -0.00626368      -0.00197877
C        2.47533450      -0.09531434       3.85606982      -0.00759836       0.00450874      -0.00374506
C        1.27171144       2.04847686       3.75833840       0.00724418      -0.00242160       0.00857917
C        0.08136692       4.28411102       3.58568433       0.00006663       0.00288438       0.00235331
C       -1.16773097       6.39332371       3.69179275      -0.00124628      -0.00540120      -0.00177937
C       -2.44581112       8.49786857       3.80536357       0.00335137       0.00541345      -0.00217770
C        4.93811717      -0.02368776       3.69238460       0.00234511      -0.00128513       0.00357572
C        3.65283346       2.01353278       3.47337661       0.00035024       0.00703395      -0.00953276
B        1.50252080       6.38729812       3.85200728      -0.00459997       0.01111814       0.00010455
C        0.02501018       8.54708537       3.78822843      -0.00138943      -0.00341343       0.00446744
C        7.39406570       0.04539375       3.72004003       0.00444978       0.00466804      -0.00006648
C        6.13978183       2.15604244       3.50505702      -0.01189700      -0.00474007      -0.00233959
C        4.90109042       4.32558260       3.44229556       0.01232889      -0.00129933       0.00485637
B        3.44903469       6.38806081       3.92711770       0.00328614       0.00924153       0.01212326
C        2.47025899       8.63419123       3.89982501       0.00260775      -0.00211541      -0.00189905
C        9.87830620       0.04684996       3.82695742       0.00257906      -0.01267163      -0.00069362
C        8.63702118       2.16523672       3.62531322       0.00390305       0.00332450       0.00858779
C        7.38381736       4.28073032       3.58276283      -0.00528748       0.00084701      -0.00203634
C        6.12139129       6.39555164       3.79510062      -0.00662998       0.00379068      -0.00338418
C        4.92131015       8.54938471       3.94106234       0.00258042       0.00339807      -0.00650102
C        0.01695005       1.40930105       3.81553283       0.00552372       0.00088935       0.00005261
C       -1.17499573       3.57336920       3.61446351      -0.00121084       0.00383470       0.00048024
C       -2.43292343       5.69145316       3.66540147      -0.00098365      -0.00270267      -0.00254600
C       -3.69328908       7.79694890       3.82615162       0.00632949      -0.00473830      -0.00221821
C       -4.94201109       9.91435047       3.91579555      -0.00858358      -0.00382561      -0.00570153
C        2.46550040       1.31431955       3.73639585       0.00760120       0.00512721       0.00437083
B        1.42883088       3.52605308       3.64754286      -0.00374373      -0.00570193      -0.00242018
C        0.10107454       5.68876373       3.66563085       0.00202774       0.00354905       0.00143227
C       -1.19971555       7.80830262       3.76214373      -0.00131505      -0.00586893       0.00482301
C       -2.44809131       9.91538827       3.79745588      -0.00336200       0.00844732      -0.00097142
C        4.91727096       1.40925525       3.53894711      -0.00702127      -0.00289107       0.00175516
S        3.31150306       3.64076238       2.94370969      -0.00257260      -0.00251732      -0.00612879
C        1.27461733       7.89097375       3.85302392      -0.00073455       0.00452045       0.00887040
C        0.00830255       9.98132395       3.73548100       0.00560954      -0.00114022      -0.00028026
C        7.38373573       1.46440851       3.60831254      -0.00405790       0.00807272       0.00442837
C        6.12020556       3.57790397       3.48064911      -0.00480995      -0.00341943      -0.00534235
C        4.84634530       5.69616630       3.71956639      -0.00119039      -0.00086064       0.00225265
C        3.66862077       7.89706926       3.95006447       0.00502349       0.00469507      -0.00720179
C        2.46750821      10.05104514       3.82800453       0.00149595      -0.00616334      -0.00156183
C        9.88300825       1.46282607       3.72218569       0.00517071      -0.00969527       0.00731074
C        8.64224186       3.58015007       3.59283569      -0.00082681       0.00452927       0.00040767
C        7.38152256       5.69136144       3.70415892      -0.00695735       0.00128983      -0.00146982
C        6.14851675       7.81038288       3.90142032      -0.00304664       0.00257840       0.00084039
C        4.93238653       9.98337287       3.90458703       0.00154358      -0.00339729      -0.00087014
Ag       2.41863962       5.07282328       5.39573662       0.00511678      -0.00818573      -0.00152998
