50
Lattice="12.336457 0.0 0.0 -6.168228499999997 10.683685154694365 0.0 0.0 0.0 15.0" Properties=species:S:1:pos:R:3:forces:R:3 energy=-434.1166401657378 free_energy=-434.1166401657378 stress="0.006574369223222587 0.0017548868691793851 -1.9931545065230584e-05 0.0017548868691793851 -0.0028854530771220007 -2.401218040810625e-05 -1.9931545065230584e-05 -2.401218040810625e-05 -1.7769845533410297e-06" pbc="T T T"
C        0.00172135      -0.00922611       3.78510288      -0.00374673      -0.00347013       0.00513654
C       -1.20711520       2.15540943       3.75105593      -0.00286105       0.00392935       0.00320011
C       -2.46429615       4.28410155       3.59142275      -0.00289459       0.00210265       0.01359010
C       -3.71472626       6.39899034       3.58948623      -0.00040873       0.00331230       0.00405830
C       -4.95155256       8.52109689       3.69636957      -0.00465336       0.00020779      -0.00283736
C        2.47797541      -0.02474474       3.77996840      -0.00296050       0.00395088      -0.00464521
C        1.27192289       2.09670953       3.96544680      -0.00123079      -0.00997305       0.00037355
C       -0.00091123       4.30444725       3.77046335      -0.00594957       0.00455171       0.00000708
C       -1.18732356       6.40974945       3.60074612       0.00119176      -0.00676642      -0.00107925
C       -2.46239741       8.52925062       3.65835096       0.00636402      -0.00328781      -0.00742734
C        4.94162410      -0.00318148       3.69233077      -0.00347194      -0.00664658      -0.00238874
C        3.71914743       2.15385504       3.79131307       0.01609126       0.00171633      -0.00068592
B        1.51433034       6.36304530       3.74512223      -0.00301233      -0.00851259      -0.00303294
C        0.01979398       8.54691838       3.68339203      -0.00325946      -0.00127911       0.00140878
C        7.40408087       0.02940840       3.68352945       0.00361249       0.00546167      -0.00727066
C        6.16782623       2.14097116       3.62281835      -0.00622218       0.00333982      -0.00200439
C        4.87311764       4.22017469       3.64550465       0.00750574      -0.00431561       0.00315292
B        3.41000806       6.34774941       3.76448632       0.01419619      -0.00257178       0.00166088
C        2.47066347       8.61493475       3.75582728      -0.00471081      -0.00203809      -0.00053821
C        9.88325561       0.03396925       3.72949184       0.00778910       0.00229906       0.00360560
C        8.64700462       2.15789980       3.63253601      -0.00277282      -0.00024569      -0.00613874
C        7.37945463       4.27530894       3.56611672       0.00223131       0.00236218       0.00470863
C        6.08536516       6.37838301       3.63691907      -0.01077081      -0.00160181      -0.00430518
C        4.91283105       8.53777025       3.74511502      -0.00474568       0.00440583      -0.00153840
C        0.01626471       1.42425006       3.84195019      -0.00582626      -0.00460327       0.00027301
C       -1.21897122       3.57566018       3.69071628      -0.00353569       0.00489098       0.00553742
C       -2.45539685       5.70378049       3.57521978      -0.00155988      -0.00143711       0.00937954
C       -3.70816494       7.81908976       3.64367149       0.00274837       0.00372549      -0.00405145
C       -4.93668195       9.94807921       3.76233588      -0.00546588       0.00033935       0.00016925
C        2.49086440       1.39645468       3.87333844       0.00953229       0.00517661      -0.00384859
B        1.23625668       3.56153434       4.15971752       0.00437540       0.00300243       0.00340442
C        0.07541067       5.70468844       3.65913659      -0.00117762      -0.00075614      -0.00135652
C       -1.21918142       7.82921041       3.63830608       0.00317459      -0.00823865      -0.00560769
C       -2.45883821       9.95158572       3.71048878      -0.00461877      -0.00287914      -0.00796706
C        4.94539103       1.42116034       3.68966015       0.00447526      -0.00634837       0.00095993
N        3.71650256       3.50623014       3.78302741       0.01077696      -0.00094731       0.00410580
C        1.26752347       7.87872944       3.72920255      -0.00569800      -0.00414347       0.00138370
C        0.01061885       9.98060517       3.68164498       0.00018868       0.00112978      -0.00007061
C        7.40907526       1.44630420       3.63804394      -0.00684192       0.00672731      -0.00910741
C        6.14862123       3.55311546       3.58636088       0.00212776       0.00194121      -0.00080768
C        4.82160390       5.66092397       3.65037060       0.00011993      -0.00972879       0.00004546
C        3.66651852       7.87048318       3.76832817      -0.00272858       0.00141782      -0.00180950
C        2.47493930      10.03065108       3.72457000       0.00620152       0.00304649      -0.00107870
C        9.88886641       1.45353097       3.69714568       0.00063190       0.00257992      -0.00105925
C        8.63406799       3.57610443       3.58342349       0.00096990      -0.00099792       0.00162340
C        7.36365304       5.69234387       3.58525953      -0.00418029       0.00267675       0.00454794
C        6.13797433       7.80986275       3.69327519      -0.00998603       0.00070636      -0.00329746
C        4.93365391       9.97875687       3.75403325       0.00149041       0.00003242       0.00533038
Ag       2.41383462       4.90326276       5.44002373       0.00077772       0.00572022       0.00972782
O        2.44462744       4.98450626       7.50126738       0.00871769       0.01003614      -0.00343630
