49
Lattice="12.336457 0.0 0.0 -6.168228499999997 10.683685154694365 0.0 0.0 0.0 15.0" Properties=species:S:1:pos:R:3:forces:R:3 energy=-427.6732281442276 free_energy=-427.6732281442276 stress="-0.0038901439850395516 -0.005080167367705135 -2.9372033304234902e-06 -0.005080167367705135 -0.00098529539071861 1.0562275721912854e-05 -2.9372033304234902e-06 1.0562275721912854e-05 5.868388743914055e-07" pbc="T T T"
C        0.00114543      -0.01799698       3.74549560      -0.00551553      -0.00008942      -0.00042143
C       -1.26551331       2.10383792       3.73700251      -0.00332673      -0.00737822      -0.00124811
C       -2.47546293       4.25865178       3.73366229       0.00289591       0.00692312       0.00360138
C       -3.67194109       6.40782628       3.72849615       0.00355643      -0.00123417      -0.00677609
C       -4.90325965       8.55227605       3.75332083       0.00392812      -0.00139026       0.00059477
C        2.46571898       0.01055781       3.79060000      -0.00135407      -0.00517694       0.00149829
C        1.17071852       2.10197036       3.80545813       0.00187302       0.00394048      -0.00076445
C       -0.05613422       4.18441450       3.97061234      -0.00395956       0.00261945      -0.00108267
C       -1.21162290       6.37303182       3.91291765       0.00070420       0.00239835      -0.00202978
C       -2.44272182       8.53666916       3.83461483       0.00671638      -0.00677064      -0.00812767
C        4.92776685       0.00196632       3.72145689       0.00149421       0.00512299       0.00440771
C        3.65656254       2.10217206       3.43492081      -0.00157470       0.00506461      -0.01283470
B        1.16919446       6.41253289       4.31709461      -0.00297094       0.00085047      -0.00866129
C        0.01089953       8.53840710       3.91706546      -0.00143174      -0.01109309      -0.00859669
C        7.39356445      -0.01011179       3.71073348       0.00124298      -0.00880135      -0.00252133
C        6.14178012       2.14552802       3.49942336       0.00296649      -0.00276469      -0.00408762
C        5.00231007       4.35482255       3.29471526      -0.00222423       0.00396862       0.00404835
N        3.80785953       6.42840530       3.76292380      -0.00134604      -0.00072195       0.00018449
C        2.49072494       8.51958124       3.86647868       0.00117158       0.00418953       0.00254144
C        9.85960962      -0.02372692       3.70602119       0.00153228      -0.00127578       0.00073454
C        8.61465171       2.12495586       3.63147876      -0.00046496       0.00297427       0.00123887
C        7.41289353       4.28090097       3.56733240      -0.01044508       0.00081713      -0.00575900
C        6.22253930       6.44368645       3.58766513       0.00089856       0.00720447      -0.00066284
C        4.96051175       8.53735668       3.71179967      -0.00259841       0.00103337      -0.00353344
C       -0.02262534       1.40573348       3.75809317       0.00119964      -0.00006664       0.00026813
C       -1.26012995       3.51597874       3.79412319      -0.00237742      -0.00477225       0.00348503
C       -2.45280755       5.67958970       3.78526410       0.00659021       0.00644232      -0.00748690
C       -3.67130963       7.83211983       3.77867000       0.00600839      -0.00426784      -0.00148533
C       -4.92498312       9.97500853       3.78468507      -0.00513941      -0.00279807       0.00205002
C        2.43059028       1.44079899       3.71636024       0.00200119      -0.00039818       0.00721848
O        1.10305739       3.44860867       4.10269601      -0.00344725       0.00501779       0.01095132
C       -0.01767097       5.59975629       4.03944269      -0.00431629       0.00315940       0.00275586
C       -1.20524208       7.80694767       3.90281873       0.00084410      -0.00667839       0.00465831
C       -2.46177045       9.97081249       3.79492609       0.00428437      -0.00360526      -0.00141181
C        4.90502434       1.43709847       3.54363217       0.00106620       0.00982445       0.00159705
S        3.52577873       3.68768383       2.75962777       0.00546959       0.00562184       0.01415141
C        1.26003783       7.84405142       4.01994851       0.00276419       0.00036979       0.00305416
C       -0.00463540       9.96940196       3.78205837      -0.00189613      -0.00996270      -0.00445469
C        7.37391008       1.42180028       3.60531729       0.00419140      -0.00631426       0.00287804
C        6.16510586       3.57848162       3.44457695      -0.00685653      -0.00392513      -0.00457027
C        4.98181522       5.77157364       3.49870113       0.00137715       0.00564302      -0.00266232
C        3.74027184       7.78557608       3.77657067      -0.00216263      -0.00046026       0.00419476
C        2.46761416       9.94680337       3.74928974       0.00426464       0.00080144       0.00347029
C        9.84917447       1.40319917       3.68280598      -0.00309156      -0.00432179       0.00028455
C        8.62868514       3.55156281       3.63556651      -0.00393732       0.00854047       0.00489175
C        7.43449111       5.70332739       3.61607016      -0.00300698       0.00193383      -0.00100970
C        6.20487257       7.85325102       3.68535512       0.00079436       0.00624169      -0.00071100
C        4.93337270       9.95322805       3.72241663      -0.00321279      -0.00032463       0.00005939
Ag       2.61297067       5.22844020       5.23441348       0.00682073      -0.00611097       0.00608072
