50
Lattice="12.336457 0.0 0.0 -6.168228499999997 10.683685154694365 0.0 0.0 0.0 15.0" Properties=species:S:1:pos:R:3:forces:R:3 energy=-436.1818176375108 free_energy=-436.1818176375108 stress="0.005510540178002431 -0.00040860900661682893 1.0613385251823315e-05 -0.00040860900661682893 -0.0012331690433776347 1.3936291333235888e-06 1.0613385251823315e-05 1.3936291333235888e-06 1.293931940590849e-05" pbc="T T T"
C        0.02694827      -0.00701615       3.68710496      -0.00138908      -0.00244921      -0.00568680
C       -1.19605830       2.14630434       3.65111187       0.00223823       0.00123271       0.00368750
C       -2.42976626       4.26894289       3.59242519       0.00294261       0.00563406       0.00055870
C       -3.68399200       6.39614398       3.56873752      -0.00302375       0.00590932       0.00663518
C       -4.91650968       8.52772590       3.62751254       0.00087566      -0.00227581       0.00037061
C        2.48815830      -0.05262849       3.69684292      -0.00511454      -0.01009720      -0.01569457
C        1.28665871       2.09908271       3.70541935       0.00048835       0.00681525      -0.00346834
C        0.10594177       4.28761000       3.67027029      -0.00367031       0.00008906       0.01385231
C       -1.21688800       6.41023825       3.65932389       0.00730328       0.00646926       0.00065829
C       -2.44707393       8.52761378       3.65065281      -0.00190916      -0.00210910       0.00692341
C        4.94948253      -0.00947620       3.72072513      -0.00599619       0.00456708      -0.00120686
C        3.68850820       2.10194426       3.73152277       0.00214728      -0.00536006       0.01141609
C        1.17076808       6.44581300       4.12156765       0.00059850      -0.00935229      -0.00844572
C        0.01532924       8.54539845       3.80333795      -0.00110619      -0.00034336       0.00260621
C        7.42002498       0.00631695       3.76274605      -0.01054729       0.00254090       0.00142210
C        6.16333996       2.15168590       3.68294265       0.00168739       0.00517311      -0.00556121
C        4.85194574       4.30469054       3.68713920      -0.00657549       0.00180227       0.00483958
N        3.80798906       6.46520050       4.04694222       0.00051699      -0.00579264      -0.01819539
C        2.50240430       8.54410689       3.93297075       0.00511351       0.00086506      -0.00857377
C        9.89259940       0.00710470       3.73800951       0.00282827       0.00656513       0.00842369
C        8.65192405       2.14440069       3.65283288       0.00262976      -0.01209406       0.00358834
C        7.39178917       4.27241647       3.59721213      -0.00190847      -0.00611558       0.00430841
C        6.18096645       6.41356359       3.62730414      -0.00083913       0.00682411      -0.00086727
C        4.96322145       8.54893210       3.74737604       0.00677758       0.00357198      -0.00340147
C        0.03925098       1.42848445       3.68335737      -0.00029720       0.00095396      -0.01006122
C       -1.15305578       3.57527598       3.62219100       0.00050369       0.00151056       0.00480298
C       -2.44294208       5.68994418       3.58551469       0.00393419       0.01159673      -0.00052980
C       -3.68052016       7.81600576       3.60192782      -0.00178832       0.00274857       0.00253100
C       -4.91874240       9.94583494       3.66920556      -0.00461079      -0.00875562       0.00324262
C        2.48869556       1.36137585       3.72371275      -0.00144183      -0.00494755      -0.00742093
B        1.53604117       3.61710876       3.70742348       0.00044421       0.00429472       0.00466295
C        0.04460289       5.71308918       3.77417664      -0.00190558      -0.00183567      -0.00208707
C       -1.21051731       7.82669103       3.69799626       0.00130511       0.00466026       0.00038698
C       -2.44131089       9.94372756       3.69104379      -0.00287364      -0.00490089      -0.00262211
C        4.93401170       1.42924086       3.71587470       0.00590932       0.00375471       0.00604165
B        3.43372354       3.61929107       3.73341552       0.00886268      -0.01011654      -0.00125151
C        1.25844773       7.81015647       3.95546126       0.00396699      -0.01299976      -0.00850862
C        0.01773574       9.96902838       3.76198585      -0.01038370       0.00130214      -0.00288742
C        7.40907903       1.43588793       3.69443613      -0.00330418      -0.00107974       0.00423356
C        6.11364401       3.58497187       3.64662175      -0.00840832       0.00287222       0.00401858
C        4.92231120       5.74187181       3.75857919       0.00498357       0.00197523      -0.00582084
C        3.74612718       7.81554364       3.91538266       0.01032048      -0.00223551      -0.00265198
C        2.49214808       9.96218860       3.81082837      -0.00257773       0.00816491      -0.00308262
C        9.89605403       1.43557138       3.67292525       0.00554322       0.00017813       0.01313431
C        8.64983962       3.56782629       3.60162621       0.00451799      -0.01100375       0.01129853
C        7.40784507       5.69018647       3.57444823      -0.00405377      -0.00041449       0.01137556
C        6.18456289       7.82846567       3.65452289       0.00376601       0.00643796      -0.00867473
C        4.95781087       9.97275962       3.72162227       0.00019207       0.00305758      -0.00368225
Ag       2.47029555       5.35772383       5.41261732       0.00170406       0.00118251      -0.00637726
O        1.46667566       4.60650233       7.04824119      -0.00837635       0.00152938       0.00174060
