52
Lattice="12.336457 0.0 0.0 -6.168228499999997 10.683685154694365 0.0 0.0 0.0 15.0" Properties=species:S:1:pos:R:3:initial_magmoms:R:1:forces:R:3 energy=-454.81447463697896 free_energy=-454.81447463697896 stress="-0.0040951241348967165 -3.405929452260109e-05 -3.4499764922209066e-05 -3.405929452260109e-05 0.0012239776934597952 -2.2176197756351553e-06 -3.4499764922209066e-05 -2.2176197756351553e-06 -2.2563261621239884e-05" pbc="T T T"
C       -0.00350581       0.01563258       3.58155729       0.00000000       0.00092940       0.00272957       0.00245245
C       -1.24229685       2.14686222       3.60700554       0.00000000       0.00163580      -0.00157580      -0.00122496
C       -2.47566562       4.28687437       3.56689456       0.00000000      -0.00113286      -0.00223780      -0.00425235
C       -3.70271379       6.43009659       3.52662691       0.00000000       0.00184991       0.00167024      -0.00684594
C       -4.93045718       8.57374316       3.54147941       0.00000000      -0.00924524       0.00022593      -0.01065046
C        2.46743121       0.03525661       3.59326072       0.00000000      -0.00522521       0.01128995       0.00173690
C        1.22336257       2.15868284       3.72889806       0.00000000      -0.00554101       0.00011817       0.00444565
C       -0.02451483       4.30324048       3.75931750       0.00000000       0.00606035       0.00982325       0.00411276
C       -1.25124383       6.43637895       3.57803418       0.00000000      -0.00102281      -0.00546577      -0.00400902
C       -2.47216469       8.57415379       3.52540823       0.00000000       0.00382177      -0.00114795      -0.00329599
C        4.93765837       0.01632731       3.58748339       0.00000000       0.00160930       0.00116043      -0.00118455
C        3.71057394       2.15874923       3.75146188       0.00000000       0.00528674       0.00325483       0.00547006
B        2.46133449       4.18703998       4.24651182       0.00000000       0.00111353      -0.01063857      -0.00096482
N        1.13212108       6.44938098       3.89929098       0.00000000      -0.00761246       0.00561856       0.01131257
C       -0.00548450       8.55127123       3.59907055       0.00000000       0.00214013      -0.00072783      -0.00489051
C        7.40635681      -0.00769431       3.60468215       0.00000000       0.00087592       0.00324057       0.00684220
C        6.17566829       2.14792690       3.63950132       0.00000000      -0.00189398       0.00203586      -0.00562401
C        4.95821323       4.30526420       3.83108461       0.00000000       0.00299075      -0.00279883      -0.00086854
N        3.81699280       6.46423291       4.05291022       0.00000000      -0.00404937      -0.00403324      -0.01004500
C        2.46862238       8.50746238       3.73346142       0.00000000      -0.00223543      -0.00346667       0.00691658
C        9.86431111      -0.00747090       3.60613664       0.00000000      -0.00108467      -0.00568240       0.00032760
C        8.63459659       2.14073317       3.57834562       0.00000000      -0.00076960      -0.00396124       0.00689324
C        7.40744249       4.28760284       3.59682530       0.00000000      -0.00483032      -0.00499420       0.00230618
C        6.18348881       6.43714779       3.63798235       0.00000000       0.00389817      -0.00855679      -0.00667472
C        4.94024181       8.55105606       3.63568907       0.00000000       0.00132921       0.00902869       0.00677481
C       -0.00804474       1.43720002       3.62349778       0.00000000      -0.00147871      -0.00256286       0.00110949
C       -1.24457712       3.58079549       3.62674848       0.00000000       0.00689813       0.00582364       0.00425230
C       -2.47396663       5.71400435       3.54418773       0.00000000      -0.00160965      -0.00316290      -0.00564058
C       -3.70151386       7.85727843       3.51933134       0.00000000      -0.00224729       0.00330180       0.00200425
C       -4.93262242       9.99987440       3.56318795       0.00000000      -0.00453069       0.00239584       0.00275604
C        2.46729338       1.46282367       3.69954419       0.00000000      -0.00100332       0.01064250       0.01046707
C        1.17514481       3.57661940       3.87426682       0.00000000      -0.00262807      -0.00237805      -0.00158960
C       -0.00940402       5.74733367       3.73539517       0.00000000      -0.00082160       0.00548362      -0.00910463
C       -1.24368833       7.85563149       3.55036837       0.00000000       0.00549541      -0.00661871       0.00423043
C       -2.46916627      10.00002912       3.56226294       0.00000000      -0.00261971       0.00518750      -0.00854185
C        4.94205927       1.43757141       3.64905342       0.00000000       0.00232980       0.00114179      -0.00409383
C        3.75747806       3.57574989       3.91441493       0.00000000       0.00527369      -0.00158658      -0.00091374
C        1.21087409       7.79860484       3.73072802       0.00000000      -0.00431261       0.00012240      -0.00377148
C        0.00369641       9.97543458       3.58565276       0.00000000       0.00265373       0.00201810       0.00936205
C        7.40508003       1.42417537       3.59748219       0.00000000      -0.00204798       0.00224976      -0.00140995
C        6.17718947       3.58247536       3.67792212       0.00000000      -0.00412499      -0.00247686      -0.00053654
C        4.94556532       5.75105583       3.83303670       0.00000000       0.00193712      -0.00621915      -0.00836951
C        3.72711263       7.80207840       3.79545838       0.00000000       0.00253070       0.00352612       0.00198375
C        2.46754054       9.93480465       3.64037065       0.00000000      -0.00237144      -0.00473716       0.00263316
C        9.86442087       1.42406516       3.58491880       0.00000000       0.00050065      -0.00693710      -0.00064611
C        8.63406086       3.56950472       3.56502994       0.00000000      -0.00581180      -0.00290098       0.00462502
C        7.40513188       5.71454242       3.57526740       0.00000000       0.00536171      -0.00486383      -0.00455252
C        6.17780022       7.85532788       3.59229443       0.00000000      -0.00672757      -0.00399440      -0.00295569
C        4.93032019       9.97493840       3.59448866       0.00000000       0.00369225       0.00841369       0.00100392
Ag       2.44980187       5.70390369       5.71940034       0.00000000       0.00137171       0.00035123      -0.00320823
O        2.89062600       5.01177530       8.62311561       1.00000000      -0.00028478      -0.00354154       0.00201140
O        1.98382578       5.49135105       7.87735670       1.00000000       0.01567734       0.00641319       0.00983528
