50
Lattice="12.336457 0.0 0.0 -6.168228499999997 10.683685154694365 0.0 0.0 0.0 15.0" Properties=species:S:1:pos:R:3:forces:R:3 energy=-428.39242875485195 free_energy=-428.39242875485195 stress="0.0002043199751089649 -0.0030987890854812334 2.7413596109822203e-05 -0.0030987890854812334 -0.008142681978211533 9.889245674675087e-06 2.7413596109822203e-05 9.889245674675087e-06 1.229099403540966e-05" pbc="T T T"
C       -0.00085194      -0.01834011       3.91423053       0.01099780      -0.00098893       0.01170831
C       -1.25426554       2.12579180       4.04636775      -0.00398727       0.00159988      -0.00340904
C       -2.49307550       4.26176397       3.81372475      -0.00174239      -0.00346727       0.00542485
C       -3.70397789       6.39083250       3.64822256       0.00788438       0.00557357       0.00435571
C       -4.92666421       8.52257727       3.74190028      -0.00508179      -0.00296337       0.00015779
C        2.47456087      -0.06257438       3.82884743      -0.00082597      -0.00134361      -0.00833768
C        1.24907477       2.05276161       4.19852980      -0.00465953       0.00451557      -0.00295025
C       -0.06858159       4.27888258       4.16976850       0.00449947       0.00745403       0.00111225
C       -1.21430466       6.37502849       3.63736267       0.00362026       0.00150462      -0.00171982
C       -2.44742451       8.50529096       3.63228183      -0.00218783      -0.00233037       0.00013389
C        4.93579832      -0.03269428       3.61350356      -0.00945309      -0.00551633      -0.00097411
C        3.65557280       2.03472200       3.54756583       0.00377014      -0.00612914      -0.00421598
P        1.64229359       6.17857318       3.24188424      -0.00448325      -0.01525422      -0.00267379
C        0.02341420       8.52224045       3.52971410       0.00245299       0.00642818       0.00886435
C        7.38657098       0.01812302       3.62533820      -0.00207137       0.00487856      -0.00007421
C        6.13082968       2.14516022       3.51066466       0.00653046      -0.00148762      -0.00633343
C        4.94118496       4.32297340       3.31253189      -0.00163904       0.00147502       0.00051610
C        3.64053289       6.46004507       3.63518482      -0.00556436       0.00108441      -0.00560144
C        2.48632169       8.60954582       3.61441929       0.00423947       0.00066371       0.00157048
C        9.86737115       0.02257419       3.79612609      -0.00082468      -0.00017738       0.00056937
C        8.61093640       2.14423930       3.74038673       0.00374322      -0.00548032       0.00118976
C        7.37533723       4.27547886       3.58995279       0.00568166      -0.00297954      -0.00196831
C        6.14752065       6.41540916       3.59875917      -0.00519740      -0.00157211      -0.00469425
C        4.94784697       8.56257557       3.73006401      -0.00475134       0.00733215      -0.00057190
C       -0.00655784       1.40174817       4.08006978      -0.00253227       0.00034293       0.00281093
C       -1.27578564       3.54416838       4.04009962       0.00136124       0.00504149       0.01174275
C       -2.46953511       5.67932415       3.69369896       0.00462450      -0.00237614      -0.00328881
C       -3.69197634       7.80885243       3.66911231      -0.00229932       0.00470838       0.00455176
C       -4.93648575       9.93478035       3.84532530       0.00667941      -0.00603665       0.00562445
C        2.46343704       1.35126580       3.90698138      -0.00337207       0.00084965      -0.00530346
P        1.31252208       3.60328896       5.02822957       0.00435159       0.00256751      -0.00001129
C       -0.00380919       5.62328707       3.74420074       0.00395738       0.00832060       0.00256598
C       -1.21065572       7.79821524       3.56202493       0.00075449       0.00049120       0.00652549
C       -2.45718953       9.92644643       3.68246787      -0.00718189      -0.00596674       0.00273960
C        4.91474769       1.40401695       3.54889755       0.00370709      -0.00717946      -0.00453072
S        3.45275502       3.59067096       2.85260226       0.00680545       0.00007518      -0.00254803
C        1.28986730       7.87711431       3.49021665       0.00388491       0.00325746      -0.00128898
C        0.00513506       9.95551474       3.57784469      -0.00508373       0.00754121       0.00407148
C        7.36890270       1.44331683       3.62408997       0.00559164       0.00192477      -0.00158888
C        6.12888454       3.57039527       3.46371279       0.00238855       0.00057887      -0.00290200
C        4.88996440       5.73115171       3.48296238      -0.01217280       0.00255160      -0.00248614
C        3.71182780       7.87667927       3.65109849       0.00174476      -0.00035478      -0.00332593
C        2.46543590      10.01782078       3.67995672      -0.00172024       0.00069966       0.00113763
C        9.85375227       1.43544787       3.86890947      -0.00148652      -0.00289714      -0.00095927
C        8.60782606       3.56183447       3.71722358       0.00146996      -0.00926340       0.00553817
C        7.38185279       5.69420514       3.60968200       0.00615087       0.00119798      -0.00127557
C        6.17169364       7.83233397       3.70681445      -0.00868583       0.00019455      -0.00370876
C        4.93494976       9.98168660       3.81764329       0.00513376       0.00879032       0.00689851
Ag       2.74634067       5.69874975       5.48962206      -0.00050493       0.00280012      -0.00709640
O        2.58436084       5.23809610       7.48538505      -0.01451653      -0.01067867      -0.00597120
