52
Lattice="12.336457 0.0 0.0 -6.168228499999997 10.683685154694365 0.0 0.0 0.0 15.0" Properties=species:S:1:pos:R:3:forces:R:3 energy=-438.6218971110073 free_energy=-438.6218971110073 stress="-0.0030518842617153125 0.0004126246034110972 4.8015369033106536e-05 0.0004126246034110972 -0.007487368315894493 -2.124295655336049e-05 4.8015369033106536e-05 -2.124295655336049e-05 -8.037396686370107e-06" pbc="T T T"
C       -0.00608664      -0.04468445       3.69280631       0.00539887      -0.00072873      -0.00500588
C       -1.22838430       2.11481188       3.66255570      -0.00052245       0.00154178       0.00627005
C       -2.45704818       4.25031510       3.76612484      -0.00916560      -0.00227136      -0.00107167
C       -3.69498869       6.37932191       3.72850173       0.00062794       0.00095802      -0.00247888
C       -4.95053510       8.49760926       3.65955995       0.00535694      -0.00267568       0.00526640
C        2.45548751      -0.08587497       3.88610447      -0.00688411       0.00183195       0.00703156
C        1.25344726       2.02849102       3.59154657       0.00168158      -0.00624779      -0.01292687
C       -0.01010607       4.29694109       3.63402513       0.00780549       0.00579607      -0.00358427
C       -1.24391474       6.39511889       3.88887834       0.00029623       0.00203763      -0.00104140
C       -2.47782466       8.50643033       3.90073939      -0.00356565       0.00579666       0.00113083
C        4.92930611      -0.03782706       4.01779300       0.00262422      -0.00724160      -0.00759757
C        3.66862246       2.03803141       4.07704643       0.00134046      -0.00003532       0.00520428
C        1.21683030       6.41401769       4.03280624      -0.00269278      -0.00383478       0.01237384
C       -0.00474819       8.52186813       3.95336880       0.00435430      -0.00469564       0.00138102
C        7.39784765      -0.01515177       3.94266919      -0.00017956       0.01635276      -0.00938401
C        6.16491744       2.11766741       3.95567201      -0.00783370      -0.00719567      -0.00699007
C        4.97894533       4.28484250       3.57929377       0.01046744      -0.00766895       0.00230882
S        3.56720877       6.36331901       2.58782856      -0.00968233       0.00113114       0.00608387
C        2.46264708       8.54342886       3.72599241       0.00104873       0.00093651       0.01010348
C        9.86795151      -0.01641415       3.75187825       0.00514762      -0.00649943       0.00192870
C        8.63872844       2.11622503       3.83030084       0.00017031      -0.00706017      -0.00157554
C        7.41486390       4.24638102       3.71345544      -0.00673500      -0.00176465      -0.00567800
C        6.19922462       6.38844888       3.38021844      -0.00452064       0.00668805       0.00108728
C        4.92739974       8.52456669       3.49182137       0.00883073       0.00705726       0.00371690
C       -0.00114087       1.38380492       3.64107514       0.00154440      -0.00221380       0.00171438
C       -1.21224445       3.54642530       3.68661828       0.00020896       0.00748590      -0.00299955
C       -2.46256328       5.67217933       3.80745060      -0.00052106      -0.00137681      -0.00445245
C       -3.70694426       7.79653325       3.76260926       0.00438151      -0.00107093      -0.00601149
C       -4.94972546       9.91313020       3.74743530       0.00161213      -0.00590554       0.00083360
C        2.45544501       1.32230041       3.87951465      -0.00123461       0.00051936       0.00317127
P        1.48227481       3.64322615       2.92780721       0.00539047      -0.00909247      -0.00245703
C        0.01078717       5.70583485       3.85326653       0.00322310       0.00526503      -0.00631369
C       -1.24080095       7.80824865       3.94049954      -0.00207407       0.00423590      -0.00218913
C       -2.47025117       9.91886023       3.95573552      -0.00602217       0.00376419       0.01243816
C        4.92858410       1.39257921       4.04675146      -0.00426102      -0.00855218      -0.00679388
P        3.42367533       3.76680192       4.24821616       0.00887414       0.00317818       0.00214111
C        1.23566857       7.79690956       3.88399664       0.00251326      -0.00799755       0.00461814
C       -0.00335299       9.94615826       3.98179320       0.00845605      -0.00137494       0.00255901
C        7.39798630       1.40871901       3.92686178      -0.00359291       0.00939076      -0.00145938
C        6.17658388       3.53600538       3.76672703       0.00172249      -0.01210477       0.00659020
C        5.02588557       5.64060590       3.19687605       0.00271944      -0.00809122      -0.00539438
C        3.66748433       7.89243647       3.36755813       0.00569224       0.00497381       0.00646780
C        2.46512193       9.96028379       3.82943386      -0.00334347       0.00614100      -0.00816466
C        9.87540048       1.41029686       3.75994835       0.00157397      -0.00677306      -0.00550647
C        8.64751463       3.53819364       3.78167268      -0.00968014      -0.00779311      -0.00579987
C        7.42114444       5.66657980       3.60049717      -0.00673587       0.00490406      -0.00083906
C        6.16210437       7.80433375       3.46246314       0.00393854       0.00726251       0.00870896
C        4.92693680       9.94536776       3.65934771       0.00751295       0.00285355       0.00021457
Ag       2.51727299       5.59169099       5.49560806      -0.00703991       0.01097593      -0.00395176
O        3.29279036       5.89988870       7.42439702      -0.00877497       0.01077130       0.00147145
O        2.23580486       5.46568830       8.30624881      -0.00184858       0.01333207       0.00438522
H        2.75090594       5.38353829       9.13246090      -0.00760393      -0.01491528       0.00046607
