52
Lattice="12.336457 0.0 0.0 -6.168228499999997 10.683685154694365 0.0 0.0 0.0 15.0" Properties=species:S:1:pos:R:3:forces:R:3 energy=-436.79053580774035 free_energy=-436.79053580774035 stress="-0.0018171909516203136 0.0026537595334594714 -6.102867448034004e-05 0.0026537595334594714 -0.006397529087058206 -7.201502630668815e-06 -6.102867448034004e-05 -7.201502630668815e-06 1.488362312118362e-06" pbc="T T T"
C       -0.05146359      -0.04113022       3.77333215      -0.00355455       0.00041307       0.00059828
C       -1.25393230       2.12200319       3.98973898      -0.00227094      -0.00300994       0.00871491
C       -2.51309305       4.25185032       3.95943903      -0.00363422       0.00630933      -0.00614492
C       -3.75694797       6.37391146       3.77980359      -0.01072280      -0.00116645       0.00321287
C       -5.01244114       8.49176817       3.67228894       0.00079940      -0.00111848       0.00700914
C        2.41152360      -0.07533799       3.63709477      -0.00524308       0.00355489       0.01171268
C        1.22792462       2.03406193       3.88134368       0.00350016       0.00701168       0.00606187
C       -0.10121576       4.30817257       4.31142873       0.00775933       0.00424828      -0.00912455
C       -1.31798527       6.40852642       4.07183158       0.00523218      -0.00276502      -0.00288181
C       -2.53916341       8.50814739       3.80385987       0.00209762      -0.01372294      -0.01211473
C        4.88446293      -0.04931611       3.66557418       0.00403124       0.00054879      -0.00296582
C        3.65586574       2.00182372       3.25069138      -0.00409203       0.00258163      -0.00068713
C        1.12568101       6.45335610       4.42319509      -0.00176701      -0.00114583       0.01205213
C       -0.07266542       8.52865120       3.97142111       0.00740375      -0.00741759      -0.01252232
C        7.34865906      -0.01934561       3.82372818       0.00436455       0.00383365       0.00136212
C        6.13844122       2.08641261       3.47638400      -0.00147052       0.00179793       0.00582705
C        5.01404754       4.23238586       3.03457684       0.00686489      -0.00079142       0.00322325
S        3.41470546       6.30816390       2.85748376       0.00281221       0.00034202      -0.00690395
C        2.40287279       8.53891793       3.89006133      -0.00584462       0.00395119      -0.00080796
C        9.82702556      -0.01872163       3.84979951       0.00096754      -0.00030464       0.00397452
C        8.60240715       2.11292487       3.80846555      -0.01079661      -0.00127333      -0.00003542
C        7.37981066       4.23485635       3.60251348      -0.00403008       0.00352092       0.00595553
C        6.12862561       6.37239531       3.45405529       0.00140653       0.00275067      -0.00343121
C        4.86531781       8.51256096       3.61711141       0.00421463      -0.00188528       0.00155856
C       -0.03126051       1.39436560       3.89879799       0.00261285      -0.00045761       0.00414430
C       -1.26843364       3.54654034       4.09522162       0.00274665       0.00427410      -0.00296246
C       -2.52546843       5.67371129       3.94588410      -0.00397322       0.00641129      -0.00407347
C       -3.76928062       7.79212669       3.75019000      -0.00317982      -0.00688079       0.00343333
C       -5.00143156       9.91600458       3.70029271      -0.00432385      -0.00066534       0.00343851
C        2.42730970       1.33639258       3.56227145      -0.00159415       0.00539286       0.00855190
S        1.41321936       3.59012830       4.57400104       0.00039570      -0.00441316      -0.00514193
C       -0.06527719       5.73103469       4.28782801       0.00716843       0.00134749      -0.00698238
C       -1.30874170       7.81820058       3.95599483       0.00771485      -0.00491130       0.01003248
C       -2.51903911       9.91707043       3.68613178      -0.00158061      -0.00755827      -0.00360254
C        4.89981149       1.36712263       3.44828211      -0.00095188       0.00567677      -0.00327726
S        3.58326084       3.48299992       2.38929673      -0.01049872      -0.01164540      -0.00147252
C        1.16587405       7.80389209       4.08574548       0.00024906      -0.00777684       0.00033868
C       -0.05398417       9.94285626       3.82020923       0.00823803      -0.00244088       0.00284064
C        7.35877755       1.39834460       3.70791204      -0.00522011      -0.00088214       0.00044621
C        6.16916153       3.50122287       3.36824310       0.00598763       0.00128266      -0.00069297
C        4.98034169       5.62538874       3.13813293       0.00250590      -0.00203258      -0.00019185
C        3.60225733       7.86817155       3.55658570      -0.00464086       0.00683091      -0.00030664
C        2.41710638       9.95841634       3.88038799       0.00125401       0.00442897       0.00417229
C        9.84506708       1.41229533       3.89662095      -0.00897108       0.00006945      -0.00094352
C        8.60465592       3.53258025       3.79713709      -0.00649051       0.00114711      -0.00436249
C        7.36377227       5.65598284       3.61698675      -0.00999567       0.00106392      -0.00162948
C        6.09211915       7.79073462       3.56943958       0.00605496       0.00003924      -0.00698223
C        4.87809020       9.94001698       3.76803696      -0.00089832      -0.00220363      -0.00022036
Ag       2.70765106       5.78483530       5.57832293      -0.00720546       0.00868777      -0.00793802
O        4.24396003       5.50589694       6.96293816       0.00809810       0.00022950      -0.00723448
O        3.75291934       6.13350042       8.18268126       0.00391530       0.00527483      -0.00245689
H        3.77805736       5.35439972       8.76938510       0.01455522      -0.00655208       0.00943004
