52
Lattice="12.336457 0.0 0.0 -6.168228499999997 10.683685154694365 0.0 0.0 0.0 15.0" Properties=species:S:1:pos:R:3:initial_magmoms:R:1:forces:R:3 energy=-452.75403497084113 free_energy=-452.75403497084113 stress="-0.0006243509456532654 0.004600064309478175 -1.1368925153961915e-06 0.004600064309478175 -0.005948801851352208 2.1078554218427384e-05 -1.1368925153961915e-06 2.1078554218427384e-05 -1.265432143185608e-06" pbc="T T T"
C       -0.02120773      -0.00959086       3.62783445       0.00000000      -0.00166216       0.00519143       0.00311264
C       -1.22070216       2.15134119       3.65700237       0.00000000      -0.00162013       0.00893961      -0.00391634
C       -2.44954749       4.27904983       3.67630951       0.00000000       0.00127536      -0.00683397      -0.00098474
C       -3.72181833       6.39773788       3.66154598       0.00000000       0.00299496       0.00225075      -0.00580185
C       -4.98660694       8.51806765       3.61958658       0.00000000       0.00130932      -0.00125674      -0.00931162
C        2.43737984      -0.02639767       3.67760520       0.00000000      -0.00275410      -0.00004772      -0.00134312
C        1.23618962       2.13262694       3.69692622       0.00000000      -0.00486872       0.00403621       0.01131031
C        0.03317703       4.29363252       3.70051856       0.00000000      -0.00416440      -0.00147708       0.01055045
C       -1.23699063       6.41602158       3.68285665       0.00000000       0.00154492      -0.00098982       0.00551341
C       -2.50660991       8.53564992       3.66931499       0.00000000       0.00563101       0.00586804       0.00236037
C        4.91293619      -0.01043751       3.69262901       0.00000000      -0.00509863      -0.00740760       0.01172937
C        3.69411508       2.09696427       3.75390325       0.00000000       0.00261373      -0.00184716      -0.00169414
C        2.52756886       4.22816543       3.88499151       0.00000000       0.00233830       0.00659529      -0.00253377
C        1.22545571       6.49286710       3.81745996       0.00000000       0.00143965      -0.01008009      -0.00632505
C       -0.03898411       8.56412575       3.68262937       0.00000000      -0.00236829       0.00230331       0.01023629
C        7.38500614       0.01613770       3.67570288       0.00000000      -0.00729132       0.00462392       0.00731408
C        6.17205793       2.11627069       3.72916724       0.00000000      -0.00376890       0.00029784       0.00968280
C        4.95411875       4.21892480       3.74265413       0.00000000       0.00840818      -0.00130491      -0.00536687
S        3.26928076       6.15468400       3.26304132       0.00000000       0.00523729      -0.00824134       0.00376025
C        2.42916757       8.59567777       3.63573662       0.00000000      -0.00609248       0.00062346       0.01215412
C        9.86556033       0.01813648       3.63327929       0.00000000       0.00378156       0.00288000      -0.00213233
C        8.64530234       2.14390148       3.68152533       0.00000000       0.00111567      -0.00074736       0.00804003
C        7.41324052       4.26308134       3.70339343       0.00000000       0.00404391       0.00441045      -0.00600471
C        6.11164750       6.37561495       3.60890277       0.00000000      -0.00280894      -0.00194539      -0.01384577
C        4.87624519       8.51758768       3.56045414       0.00000000       0.00338923      -0.00233464       0.00121593
C        0.00022870       1.42442953       3.65501978       0.00000000      -0.00637913       0.00711035       0.00159162
C       -1.20314806       3.58001914       3.67295727       0.00000000       0.00070869       0.00291758      -0.01385763
C       -2.46882134       5.69961622       3.67547462       0.00000000       0.00278971      -0.00704210      -0.01702543
C       -3.73999474       7.81880454       3.64924447       0.00000000       0.00762095       0.00437041      -0.00536878
C       -4.96792151       9.94767971       3.63801543       0.00000000      -0.00287411       0.00012622      -0.00494539
C        2.44965208       1.39810203       3.71447060       0.00000000      -0.00259932      -0.00072391       0.00738428
C        1.27277918       3.58156847       3.73269539       0.00000000      -0.00378812       0.00286179      -0.01206744
C        0.03671162       5.72379685       3.70462395       0.00000000      -0.00141269      -0.00530734      -0.00638292
C       -1.26629433       7.83434926       3.68379942       0.00000000       0.00247286       0.00382302      -0.00890292
C       -2.49696587       9.95547032       3.67976999       0.00000000      -0.00239158       0.00140218      -0.00152685
C        4.93143904       1.40249160       3.72638986       0.00000000      -0.00164184      -0.00822472      -0.00109946
C        3.71616059       3.51250755       3.78254382       0.00000000       0.00526404       0.00258778      -0.00574932
C        1.19880262       7.87662910       3.68593096       0.00000000      -0.00602562      -0.00766661       0.00165187
C       -0.02205820       9.98286557       3.67783199       0.00000000      -0.00535306       0.00047469       0.01297667
C        7.40467157       1.42769014       3.69565562       0.00000000      -0.00302854       0.00323204       0.00331001
C        6.19145864       3.53263001       3.74046381       0.00000000       0.00611504       0.00058994       0.00400996
C        4.92499369       5.60249824       3.61453356       0.00000000       0.00646346      -0.00542008      -0.00842085
C        3.61395944       7.87704483       3.54360194       0.00000000       0.00038758       0.00742016       0.00674409
C        2.45341214      10.00955093       3.64988430       0.00000000      -0.00451834       0.00527343       0.00659410
C        9.87914682       1.44199446       3.65494371       0.00000000       0.00404249       0.00477351       0.00033051
C        8.65394576       3.56329708       3.68965418       0.00000000       0.00044778      -0.00138437      -0.00371835
C        7.38185980       5.68092532       3.66248030       0.00000000      -0.00169862       0.00608163      -0.00124766
C        6.11167076       7.80283518       3.57974441       0.00000000       0.00053065      -0.00373072      -0.00328726
C        4.90973178       9.96549689       3.60261593       0.00000000       0.00365849      -0.00074642       0.00500054
Ag       2.44123053       5.72202164       5.54164395       0.00000000      -0.00378507      -0.01005897       0.00724989
O        3.51431024       5.87038682       8.34222715       1.00000000       0.00203211      -0.00000050      -0.00681757
O        2.41836875       5.82891821       7.67509604       1.00000000       0.00033716      -0.00624548       0.00585452
