52
Lattice="12.336457 0.0 0.0 -6.168228499999997 10.683685154694365 0.0 0.0 0.0 15.0" Properties=species:S:1:pos:R:3:forces:R:3 energy=-439.1945709899302 free_energy=-439.1945709899302 stress="0.004113288756340451 -0.0021710201809880974 1.4295959065295267e-05 -0.0021710201809880974 -0.007792792928109813 2.6996448185909643e-05 1.4295959065295267e-05 2.6996448185909643e-05 1.0130534589181304e-05" pbc="T T T"
C        0.08240138      -0.04268821       3.53465974      -0.00504050       0.00730284      -0.00194279
C       -1.15607674       2.11375623       3.37829439       0.00730524       0.00610928      -0.00006663
C       -2.40561515       4.24816478       3.53423110       0.00889903      -0.00653086      -0.00247811
C       -3.62827354       6.36904917       3.69337600      -0.00222805      -0.00123718       0.00901355
C       -4.85015155       8.49345170       3.66121111      -0.00322651      -0.00202989       0.00097060
C        2.55099369      -0.09350988       3.71625957       0.00258259       0.00208806       0.00335933
C        1.34104076       2.00407416       3.33511405       0.00434732       0.00420257      -0.00478628
C        0.02679962       4.27722639       3.23392514      -0.00047991      -0.00646042      -0.00343556
C       -1.12189869       6.35828770       3.74526286      -0.00351721      -0.00480486       0.00212560
C       -2.36324404       8.48001616       3.82144138       0.00747899       0.00178881       0.00089061
C        5.01951198      -0.05423797       3.91805747      -0.00306869      -0.00362960       0.01043562
C        3.73238361       2.02355692       4.02299274       0.00595214       0.00305504      -0.00608992
P        1.78644786       6.15036132       4.20617943       0.00222555       0.01657742       0.00274594
C        0.11334680       8.50259924       3.97923070      -0.00492651       0.00679154      -0.00812378
C        7.47265260       0.00695144       3.85490338      -0.00561761      -0.00087382      -0.00428671
C        6.22060947       2.12780155       3.94021734      -0.00222212      -0.00587350       0.00112487
C        5.00450000       4.30782695       4.05608596      -0.00233084       0.01601988       0.00498222
C        3.68396745       6.46309099       3.86916596       0.00939119       0.00301537      -0.01167748
C        2.56675240       8.60464463       3.87826767      -0.00073735      -0.00304769       0.00691042
C        9.95333323       0.00858444       3.63283618      -0.00109741       0.00770206      -0.00516972
C        8.69705370       2.13051204       3.65752129       0.00409947       0.00579126       0.00352126
C        7.44967472       4.25800174       3.74568086       0.00078148      -0.00072108       0.00602015
C        6.20515947       6.39184659       3.72339557       0.00168412      -0.00402432       0.00607636
C        5.02260539       8.54038122       3.66333814       0.00219745      -0.01021603       0.00234607
C        0.08207070       1.38206900       3.39491519       0.00276732       0.01038696      -0.00141359
C       -1.17103927       3.53160394       3.34618871       0.00648543      -0.00327342      -0.00166886
C       -2.38266086       5.66337882       3.65420340      -0.00249324      -0.00918148       0.00553726
C       -3.61199917       7.78440965       3.72608476       0.00381235       0.00204290      -0.00213434
C       -4.85568163       9.90820509       3.62161128      -0.00183413       0.00211000       0.00248970
C        2.53746635       1.31873574       3.70249979       0.00460751       0.00283682       0.00208709
S        1.51219531       3.57653311       2.64384888      -0.00589354      -0.01080997      -0.00189934
C        0.10750818       5.61952045       3.63371979      -0.00871685      -0.00739875      -0.00546968
C       -1.12233988       7.77797927       3.88447632       0.00450434       0.00215827       0.00535456
C       -2.37343779       9.89833207       3.83897979       0.00298699      -0.00060111      -0.00175310
C        4.99870457       1.37990381       3.98484205      -0.00011125      -0.00953148       0.00302164
P        3.54380495       3.60828023       4.70773219      -0.00785345       0.00102075      -0.00137735
C        1.38516428       7.86553096       4.06153962      -0.00729726       0.00379991       0.00075394
C        0.09099279       9.93895906       3.93261455      -0.00641706       0.00089214       0.00563123
C        7.45937649       1.42855075       3.81793405       0.00163350      -0.00119129      -0.00507157
C        6.20992463       3.55772244       3.91568688      -0.00619495       0.00269561       0.00136169
C        4.93180263       5.71654179       3.86684880       0.00457984       0.01041760      -0.00617587
C        3.78357831       7.85869426       3.78636204       0.00058956      -0.00492305      -0.00226162
C        2.54959941      10.00916607       3.78478188      -0.00307210      -0.00213027      -0.00063046
C        9.94744902       1.42432049       3.54538662       0.00389815       0.01222522      -0.00660674
C        8.68720135       3.54762508       3.63608503       0.00609741       0.00256083      -0.00179619
C        7.44853169       5.67698094       3.70618191      -0.00361143      -0.00303500       0.00724058
C        6.24187327       7.80467480       3.65759547      -0.00034200      -0.01126466      -0.00047067
C        5.01425598       9.95800579       3.59824660      -0.00314805      -0.00452708      -0.00256537
Ag       2.25135204       4.92782138       6.22010340      -0.00394240      -0.00055572       0.00512270
O        1.95385192       4.91088301       8.27556696      -0.00341735      -0.01135576      -0.00497304
O        0.77841620       5.69853778       8.48184746      -0.00930154      -0.00066336      -0.00821479
H        0.72522220       5.66119014       9.45765354       0.00923233      -0.00369952       0.00341659
