51
Lattice="12.336457 0.0 0.0 -6.168228499999997 10.683685154694365 0.0 0.0 0.0 15.0" Properties=species:S:1:pos:R:3:initial_magmoms:R:1:forces:R:3 energy=-434.4883717034046 free_energy=-434.4883717034046 stress="-0.0033852781127129278 0.0007071214020009085 1.4390109294855794e-05 0.0007071214020009085 -0.007928361613259506 6.073046723180156e-06 1.4390109294855794e-05 6.073046723180156e-06 -6.737667027336173e-06" pbc="T T T"
C       -0.01781132      -0.03260631       3.63253802       0.00000000       0.00149710       0.00317862       0.00079512
C       -1.23827504       2.12677450       3.58966702       0.00000000      -0.00074168       0.00898890      -0.00117993
C       -2.46906937       4.26209466       3.67833966       0.00000000       0.00305711      -0.00469669      -0.00289259
C       -3.70845006       6.39123630       3.65215382       0.00000000      -0.00644820      -0.00967389      -0.00018803
C       -4.96436385       8.50888838       3.60067405       0.00000000       0.00400614      -0.00297840       0.00047704
C        2.44150966      -0.07557967       3.83941076       0.00000000       0.00927348       0.00201077      -0.00230028
C        1.24519220       2.03947122       3.54836000       0.00000000      -0.00112075       0.00718827       0.00024803
C       -0.02019931       4.30933497       3.54612652       0.00000000      -0.00247221      -0.00566806      -0.00544800
C       -1.25783459       6.40897228       3.77963606       0.00000000       0.00137136       0.00104207       0.00126686
C       -2.49136888       8.51873551       3.81814571       0.00000000      -0.00112032       0.00283099      -0.00281928
C        4.91657087      -0.02763047       3.94892156       0.00000000       0.00332697       0.00127998       0.00024247
C        3.65776031       2.04556830       4.05449659       0.00000000      -0.00274811      -0.00395055       0.00018682
C        1.19749524       6.43218641       3.94141348       0.00000000       0.01035584      -0.01215233       0.01094791
C       -0.01888966       8.53571954       3.85358561       0.00000000       0.00425984       0.00432607       0.01194439
C        7.38550212      -0.00202840       3.85817186       0.00000000      -0.00356260      -0.00437196      -0.00085025
C        6.15348694       2.12746974       3.90567706       0.00000000      -0.00070053      -0.00186498       0.00311747
C        4.96397589       4.29679172       3.57367559       0.00000000      -0.00207083       0.00648921      -0.00509640
S        3.55585882       6.36435295       2.54700724       0.00000000       0.00731949      -0.00778228       0.00228003
C        2.45032251       8.55727885       3.64391488       0.00000000      -0.00128955       0.00637573       0.00686657
C        9.85636108      -0.00381943       3.67749246       0.00000000       0.00187618       0.00755936      -0.00529388
C        8.62779641       2.12786290       3.75537695       0.00000000      -0.00574398       0.00023102       0.00082710
C        7.40176491       4.25725960       3.66286982       0.00000000       0.00115885       0.00246303      -0.01069796
C        6.18165188       6.39826874       3.34502420       0.00000000      -0.00404741      -0.00009167      -0.01306047
C        4.91482471       8.53668037       3.43469938       0.00000000      -0.00029564      -0.01123892      -0.00915409
C       -0.01112456       1.39553642       3.58057850       0.00000000      -0.00150661       0.01110679       0.00658223
C       -1.22280341       3.55879922       3.60108990       0.00000000      -0.00051185      -0.00096136      -0.00059725
C       -2.47567460       5.68411416       3.71182436       0.00000000      -0.00117673      -0.00568567       0.00435720
C       -3.72029770       7.80831828       3.68779927       0.00000000      -0.00073950      -0.00786428       0.00710531
C       -4.96292457       9.92406807       3.69204123       0.00000000       0.00669638       0.00265349       0.00175550
C        2.44344916       1.33223101       3.84838646       0.00000000       0.00077143       0.00156193      -0.00572268
P        1.49180501       3.65059550       2.88735989       0.00000000       0.00020639       0.00923617       0.00542670
C       -0.00312420       5.72158535       3.74668722       0.00000000       0.00292562      -0.00865205       0.00300750
C       -1.25449671       7.82169582       3.83863670       0.00000000       0.00057755       0.00645930       0.00205916
C       -2.48374034       9.92972411       3.89116919       0.00000000       0.00672471       0.00243456       0.00480870
C        4.91701850       1.40162966       3.99986992       0.00000000       0.00010423      -0.00401045       0.00065767
P        3.41755958       3.77277582       4.25908003       0.00000000      -0.00695752       0.00995104      -0.00459646
C        1.22199099       7.81174466       3.78967569       0.00000000       0.00294618      -0.00469795       0.00763739
C       -0.01608600       9.95883466       3.89467726       0.00000000      -0.00017372       0.00259428       0.00456781
C        7.38672905       1.42092986       3.85533300       0.00000000      -0.00524731      -0.00678899       0.00427710
C        6.16413601       3.54694437       3.73530862       0.00000000       0.00043853       0.00420877      -0.00399413
C        5.00721666       5.64799040       3.17693789       0.00000000      -0.00429591       0.00544763      -0.00981783
C        3.65669111       7.90399307       3.30411655       0.00000000      -0.00556307      -0.00242916       0.00273071
C        2.45251962       9.97404862       3.74539086       0.00000000       0.00045426       0.00873957       0.00341118
C        9.86459467       1.42239311       3.68387713       0.00000000      -0.00035687       0.00912614      -0.00467038
C        8.63566975       3.54947066       3.70875056       0.00000000       0.00157008       0.00009745       0.00081367
C        7.40616620       5.67756196       3.54962849       0.00000000      -0.00902522      -0.00036915      -0.00586671
C        6.14746011       7.81482641       3.41373510       0.00000000       0.00290507      -0.00689951      -0.00168837
C        4.91523399       9.95827594       3.59398881       0.00000000       0.00145196      -0.00715485       0.00118053
Ag       2.41365843       5.59181942       5.47699230       0.00000000      -0.00048626      -0.00428947      -0.01070435
O        2.74450358       4.84326953       8.33084759       1.00000000       0.00002599       0.00660277      -0.00828293
O        2.92370730       5.85073138       7.57223888       1.00000000      -0.00689839      -0.00991130       0.01534408
