52
Lattice="12.336457 0.0 0.0 -6.168228499999997 10.683685154694365 0.0 0.0 0.0 15.0" Properties=species:S:1:pos:R:3:forces:R:3 energy=-439.9064211506843 free_energy=-439.9064211506843 stress="0.0008366473306281117 0.001905126796552595 1.653081837675662e-05 0.001905126796552595 -0.010130295099817442 -4.075363818597533e-06 1.653081837675662e-05 -4.075363818597533e-06 -1.6701477510222418e-05" pbc="T T T"
C        0.01176071      -0.05810261       3.67564095       0.00272516       0.00644333       0.00345417
C       -1.19253688       2.11999673       3.58483721       0.00245285      -0.00426504      -0.00593433
C       -2.42262858       4.25236030       3.63160587      -0.00023367      -0.00222940       0.01327686
C       -3.67633935       6.36670986       3.66316073       0.00009544       0.00036829      -0.00401665
C       -4.93619944       8.48150204       3.66302030      -0.00264896      -0.00375792       0.00177393
C        2.47311700      -0.11108210       3.92651212      -0.00305336       0.00124327      -0.00025147
C        1.28966436       2.00502360       3.63511414       0.00012927       0.00662350       0.00121053
C        0.03309705       4.29357415       3.40535230      -0.00012679       0.00343092      -0.00043444
C       -1.18663763       6.39009888       3.65943684      -0.00154947      -0.01231073       0.00193747
C       -2.45400233       8.48957303       3.83038416       0.00117970       0.00023044      -0.00071846
C        4.94794524      -0.04863810       4.04324914       0.00571826       0.00501515       0.00221761
C        3.68545958       1.99775852       4.25138458       0.00005586       0.00436550      -0.00689366
C        1.32169585       6.45243801       3.63335812      -0.00285873       0.01024471      -0.00917696
C        0.00801955       8.53975442       3.83175169      -0.00818695      -0.01073497       0.00942628
C        7.41384819       0.00570752       3.91462281      -0.00235784       0.00966620       0.00096458
C        6.18784727       2.11243192       4.06993583       0.00009040       0.00937012       0.00081251
C        4.99291635       4.27858132       3.95060502      -0.00271859      -0.00401133       0.00715901
P        3.30435716       6.21449183       3.05816373      -0.00779538       0.00099471       0.00403702
C        2.46564456       8.60150930       3.67405794       0.00089121      -0.00473712      -0.01050740
C        9.89484346       0.00419142       3.71187302      -0.00060104      -0.00581849      -0.00034181
C        8.66482852       2.12716070       3.80502299       0.00896784       0.00012198       0.00317992
C        7.43244189       4.24353700       3.78230245      -0.00616750      -0.00144996      -0.00168594
C        6.17373505       6.36508373       3.53449649       0.00728590      -0.00147505       0.00371344
C        4.92743984       8.51349138       3.53395470       0.00482320       0.00528892      -0.00389464
C        0.02834499       1.37276297       3.61805569       0.00487352       0.00246205      -0.00313935
C       -1.17414194       3.55024193       3.53018967       0.00268634      -0.00191618       0.00521858
C       -2.42471210       5.67075447       3.65144414      -0.00303757      -0.00435374      -0.00514414
C       -3.68955500       7.78235173       3.71385801       0.00187604      -0.00171749      -0.00301396
C       -4.93268960       9.89362629       3.75182462      -0.00097157      -0.00425515      -0.00342999
C        2.47643526       1.29315010       3.97952069      -0.00383900       0.00251591      -0.00050213
P        1.58477633       3.57131518       2.91182442      -0.01550291       0.00029157       0.00165540
C        0.07073842       5.70666341       3.53762167       0.00421640       0.00190363       0.00298212
C       -1.21348971       7.80213558       3.79091390      -0.00544922      -0.01297312       0.00623560
C       -2.44952027       9.89772798       3.96022296       0.00336990       0.00463348       0.00492687
C        4.94912852       1.37503486       4.16134235       0.00093611       0.00924477      -0.00596277
P        3.44050178       3.69842898       4.59147609       0.00046759       0.00085505      -0.00238370
C        1.24276621       7.86327806       3.70877366      -0.00420524       0.00174932       0.00437002
C        0.01418107       9.95779535       3.94673839      -0.00017014      -0.00490116      -0.00942749
C        7.42080540       1.42124654       3.94740362       0.00437097       0.01154115       0.00479170
C        6.19749297       3.53299820       3.96121776      -0.00454506      -0.00117038      -0.00339310
C        4.96000569       5.62279103       3.53823644       0.01607279      -0.01021126       0.00294942
C        3.65877773       7.88152507       3.47210213       0.00615456      -0.00573680      -0.00380419
C        2.48177143      10.00512240       3.78301612      -0.00476874      -0.00414840      -0.00229447
C        9.90528971       1.42474995       3.70488015       0.00470661      -0.00589419      -0.00269574
C        8.67389049       3.54401453       3.74480682      -0.00173724       0.00013904       0.00186575
C        7.42127211       5.65914268       3.64694811       0.00010031      -0.00221134      -0.00972174
C        6.16538477       7.78720347       3.53585936      -0.00142891       0.00268059      -0.00542441
C        4.94329477       9.94125966       3.63453005       0.00224235       0.00691130       0.00117414
Ag       2.45048944       5.69083483       5.46616799       0.01234150       0.01183501       0.00975741
O        2.23300004       6.50037401       7.39140841      -0.00709715      -0.01225885       0.00422380
O        1.98298357       5.35949167       8.23784344      -0.00467555      -0.00966859      -0.00447232
H        2.68896299       5.50455934       8.89871175      -0.00310348       0.01203674       0.00535110
