50
Lattice="12.336457 0.0 0.0 -6.168228499999997 10.683685154694365 0.0 0.0 0.0 15.0" Properties=species:S:1:pos:R:3:forces:R:3 energy=-426.19512776991814 free_energy=-426.19512776991814 stress="-0.0015160046250591972 0.0025309993189309575 1.4924660561012628e-05 0.0025309993189309575 -0.006426504548086468 -6.307159755366408e-06 1.4924660561012628e-05 -6.307159755366408e-06 3.2719798899566546e-05" pbc="T T T"
C       -0.02538647      -0.03488987       3.77530160       0.00352827       0.00648058      -0.00804050
C       -1.22878805       2.13110755       3.97753062       0.00466159       0.00150771      -0.00199940
C       -2.48112695       4.26173588       3.88921337      -0.00020867      -0.00713181       0.01303115
C       -3.72584403       6.38203499       3.69984369       0.00502883      -0.00228723      -0.00293093
C       -4.98560424       8.49996133       3.63438933       0.00178175      -0.01061574      -0.00227187
C        2.43759507      -0.06639681       3.63921952       0.00360546       0.00456424       0.00275823
C        1.25112758       2.04054655       3.91218033       0.01132028       0.00102169       0.00013688
C       -0.07228989       4.31654860       4.29428442      -0.00325857      -0.00816684      -0.00652567
C       -1.28355759       6.41519854       3.99977854      -0.01351421      -0.00736332       0.00853693
C       -2.50982378       8.51475569       3.74653338       0.00234231       0.00601285       0.00113433
C        4.91134099      -0.03929992       3.63333430      -0.00097338      -0.00422404       0.00848134
C        3.67568721       2.01491522       3.26153121      -0.00461545      -0.00119719      -0.00632533
C        1.14215155       6.47531525       4.43831939       0.00077995       0.00044518       0.00554370
C       -0.04315075       8.53671959       3.92107535       0.00301714       0.00831161       0.00052892
C        7.37539962      -0.00837608       3.78877575       0.00158118       0.00169039      -0.00310272
C        6.16375824       2.09749283       3.43819481      -0.00869194      -0.00969703       0.00254983
C        5.03771255       4.23997868       2.98885099       0.00121541       0.00534111       0.00179685
S        3.43027174       6.31126358       2.85802280       0.00097793       0.01432140       0.01150858
C        2.43090589       8.55114569       3.86870919      -0.00503648      -0.00524330      -0.01041088
C        9.85485896      -0.00865692       3.82853427      -0.01288388      -0.00685744       0.00782375
C        8.62920891       2.12285413       3.76263431       0.00417086       0.00828765      -0.00056209
C        7.41002095       4.24411565       3.52765163       0.00627152       0.00801613       0.00265110
C        6.15731955       6.38221673       3.38884981       0.00710188      -0.00019899       0.00344725
C        4.89187029       8.52025630       3.58926745       0.00043833       0.00035168      -0.00343368
C       -0.00682622       1.39979023       3.91213305       0.00956430       0.01060616      -0.00751720
C       -1.23900111       3.55751656       4.05948772      -0.00163649      -0.00457114      -0.00147526
C       -2.49224976       5.68273492       3.86374875      -0.00873457      -0.01315920       0.00332227
C       -3.74052526       7.80001071       3.68973112       0.00673788      -0.00315606      -0.00037361
C       -4.97501075       9.92330461       3.69376439       0.00436818      -0.00434059      -0.00431932
C        2.45182844       1.34653222       3.58874208       0.00414781       0.00221565      -0.00301807
S        1.43068729       3.59190337       4.62229852      -0.01130550      -0.00574014      -0.01149243
C       -0.03454488       5.74143181       4.25422635      -0.00528142      -0.00625723       0.00392978
C       -1.27779252       7.82481099       3.88974520      -0.00084926       0.00048808       0.00516176
C       -2.49176419       9.92574029       3.65809306       0.00097686       0.00482460      -0.01215442
C        4.92426969       1.37941446       3.42943019      -0.01180245      -0.01249650       0.00185500
S        3.58461337       3.49078381       2.39502929      -0.00195126      -0.00253655      -0.01218219
C        1.19319892       7.81496091       4.06063575      -0.00154672       0.00669196      -0.00299850
C       -0.02596019       9.95243462       3.77723524       0.00414265       0.00746179       0.00241598
C        7.38479406       1.40897258       3.66766201       0.00273442       0.00245984      -0.00340061
C        6.19621814       3.51061505       3.31206722       0.00217634      -0.00213135      -0.00001360
C        5.00597920       5.63451959       3.08533041       0.00264855       0.00624704       0.01185435
C        3.62790456       7.87876555       3.53132158       0.00290127      -0.00004091       0.00419507
C        2.44447106       9.97037830       3.85308237      -0.00988256      -0.01178796       0.00628089
C        9.87095639       1.42256406       3.87026042      -0.00067936      -0.00141625      -0.00291521
C        8.63486724       3.54213196       3.72838852       0.00339842       0.00843648       0.00685445
C        7.39407920       5.66495240       3.53672759       0.00711971       0.00603192       0.00899293
C        6.11897269       7.79891846       3.52353673      -0.00179021      -0.00575228      -0.00054038
C        4.90479315       9.94726781       3.75371557      -0.00459122       0.00277323      -0.00047790
Ag       2.59650744       5.91993762       5.81096215       0.00861054       0.00355083      -0.00287578
O        3.92272196       5.60465497       7.34556781      -0.00811600       0.00822927      -0.01343376
