49
Lattice="12.336457 0.0 0.0 -6.168228499999997 10.683685154694365 0.0 0.0 0.0 15.0" Properties=species:S:1:pos:R:3:forces:R:3 energy=-422.6030267353637 free_energy=-422.6030267353637 stress="-0.0019495594513643682 0.001020956769308052 7.650209981549523e-06 0.001020956769308052 -0.004591565738815819 -1.256848135079534e-05 7.650209981549523e-06 -1.256848135079534e-05 7.766202953575455e-07" pbc="T T T"
C       -0.01285774      -0.02376390       3.86376150      -0.00071886      -0.00125395      -0.00327233
C       -1.23390110       2.13036170       4.08845233       0.00212029      -0.00274580      -0.00497964
C       -2.47279593       4.26779844       3.91841814      -0.00362499      -0.00240487       0.00994553
C       -3.70266881       6.39729209       3.69239876      -0.00938723       0.00039640       0.00529387
C       -4.96029846       8.52095965       3.65724152       0.00138827       0.00232418      -0.00143300
C        2.45084502      -0.03950045       3.79528191       0.00077237      -0.00921038      -0.00209504
C        1.24432530       2.04738279       4.18876631      -0.00099771       0.01152543      -0.00969311
C       -0.07718760       4.30618860       4.42235422      -0.00500531       0.00765253       0.00134456
C       -1.26356582       6.41576278       3.98719392       0.00303067       0.00218374       0.00910138
C       -2.49002613       8.53107255       3.78459159       0.00320055      -0.00622392       0.00139546
C        4.92085952      -0.01814776       3.72406114       0.00246305       0.00296276       0.00021404
C        3.66870827       2.05218939       3.45937162       0.00419139       0.00013917       0.00255871
C        1.17539597       6.45120179       4.24601368       0.00660344      -0.00113115      -0.01187947
C       -0.02405642       8.54066202       3.89075329       0.00332945       0.00311347       0.00001611
C        7.38750829      -0.00253000       3.80161112      -0.00099134      -0.00276092       0.00246903
C        6.16400892       2.11755791       3.50516491       0.00499461       0.00991143       0.00049587
C        5.05780750       4.26471073       2.95630738      -0.00407000       0.01052256       0.00416150
S        3.55827300       6.43981079       2.45144893       0.00203734      -0.01062265       0.00329625
C        2.45398928       8.54535475       3.75630462      -0.00183413       0.00317725      -0.01086566
C        9.86291411      -0.00465896       3.84063437       0.00247864       0.00532196       0.01296346
C        8.63403598       2.13138240       3.79574140      -0.00699664      -0.00141854       0.01489962
C        7.42570199       4.25882198       3.52231125      -0.01021453      -0.00309537      -0.00006985
C        6.19767263       6.41043354       3.30357267      -0.00221620      -0.00763008       0.01278754
C        4.92062867       8.54283336       3.53471330       0.00377288      -0.00198938      -0.00179593
C       -0.00613965       1.40293605       4.06489219       0.00260190      -0.00358036       0.01035410
C       -1.24129652       3.55923496       4.15096025      -0.00084283      -0.00093097       0.00727899
C       -2.47582540       5.69066884       3.86952779      -0.00360072       0.00345174      -0.00034900
C       -3.71707472       7.81700842       3.70776499      -0.00224076       0.00044200      -0.00132789
C       -4.95669216       9.94108358       3.78884099      -0.00209907      -0.00144579      -0.00709428
C        2.45585671       1.38009306       3.83085123       0.00271807      -0.00714055      -0.00523267
S        1.28630145       3.50826551       5.12022959      -0.00740496      -0.00548597       0.00368209
C       -0.01292789       5.72808988       4.23383103      -0.00090380       0.00551827       0.00080393
C       -1.25589121       7.82982063       3.88364584       0.00737566       0.00184804      -0.00539525
C       -2.47932389       9.94793784       3.75552846       0.00445332      -0.00974311       0.00324367
C        4.92376381       1.40568494       3.55199772       0.00756542       0.01035476       0.00277039
S        3.52001497       3.52636502       2.59327598       0.01011228      -0.00834127       0.00424474
C        1.21922042       7.80202339       3.94727043       0.00193734      -0.00272001      -0.00976649
C       -0.01343791       9.96110773       3.80263964      -0.00011656       0.00018728      -0.01342334
C        7.38959139       1.42033392       3.70688182      -0.00118650      -0.00454029      -0.00795484
C        6.20217717       3.53030991       3.32560614      -0.00999581       0.01114270       0.00264758
C        5.05659193       5.67180648       2.94737960       0.00235145      -0.00852587      -0.00371597
C        3.66257008       7.90311746       3.37821969      -0.00106968       0.00840632      -0.00551550
C        2.45686262       9.96779863       3.82303842       0.00087249       0.00357250      -0.01017827
C        9.87246891       1.42581443       3.92044359      -0.00119154       0.00328426       0.00442667
C        8.64346665       3.55205962       3.74883091      -0.00794842      -0.00313073       0.00563742
C        7.42110112       5.68325231       3.50680576      -0.00696672      -0.00666386       0.00259304
C        6.15080814       7.82462843       3.47780058       0.00696039      -0.00271378      -0.01069359
C        4.92043895       9.95889003       3.77008376       0.00176745       0.00282784      -0.01046511
Ag       2.96945193       5.45704188       4.86190328       0.00252558       0.00518302       0.00857066
