50
Lattice="12.336457 0.0 0.0 -6.168228499999997 10.683685154694365 0.0 0.0 0.0 15.0" Properties=species:S:1:pos:R:3:forces:R:3 energy=-428.6434309305453 free_energy=-428.6434309305453 stress="0.0040221805305449155 -0.002036656563952892 2.229045190276242e-05 -0.002036656563952892 -0.008023191566077777 2.538228212257197e-05 2.229045190276242e-05 2.538228212257197e-05 5.651356693510158e-06" pbc="T T T"
C        0.01006075      -0.01638296       3.48836109      -0.00130041       0.00707170      -0.00209946
C       -1.22651723       2.14092706       3.33296092       0.00233453       0.00627344       0.00317557
C       -2.47721311       4.27460697       3.49524074       0.00300463       0.00312410       0.00268026
C       -3.70145622       6.39564318       3.66057528      -0.00004556      -0.01114329      -0.00060140
C       -4.92331338       8.51954845       3.61980202       0.00430767      -0.00146778       0.00418775
C        2.47841948      -0.06744274       3.67555810      -0.00084933       0.00390710       0.00406101
C        1.26998753       2.03120688       3.29818348       0.00540510       0.00375670      -0.01114043
C       -0.04364694       4.30466620       3.20571900      -0.00244389       0.00245072      -0.00685294
C       -1.19559231       6.38448035       3.71993840      -0.00202933       0.00393634       0.00020375
C       -2.43666858       8.50690358       3.78804356       0.00614111      -0.00697928       0.00394025
C        4.94685374      -0.02763831       3.87882615      -0.00100773      -0.00532597      -0.00181631
C        3.66206187       2.04921888       3.98080896      -0.00256269      -0.00304315       0.00209409
P        1.70778357       6.18390874       4.18193047       0.00466582       0.00378821      -0.00521860
C        0.03890497       8.53157881       3.94768301       0.00730062      -0.00086856      -0.00708734
C        7.40000170       0.03425435       3.80656603      -0.00051454      -0.00440455       0.00363984
C        6.14890551       2.15407564       3.89078202      -0.00611064       0.00275393       0.00526283
C        4.93139656       4.33333187       4.01627656       0.00711531       0.00302459       0.00688109
C        3.61126514       6.49061551       3.83443497       0.00197098       0.00047753      -0.00112375
C        2.49461132       8.63311802       3.83939604      -0.00471885      -0.00141469      -0.00388036
C        9.88100117       0.03580750       3.58136942       0.00227129      -0.00256136      -0.00270440
C        8.62574362       2.15709138       3.60631261      -0.00538853       0.00533543       0.00000780
C        7.37727674       4.28380082       3.70073498       0.00112072       0.00745024       0.00686821
C        6.13193245       6.41740690       3.68410668      -0.00115781       0.00198556       0.00169361
C        4.95013007       8.56661452       3.61749573      -0.00615867      -0.00592519       0.00347828
C        0.01079554       1.40872235       3.35110761       0.00292920       0.01002645       0.00034944
C       -1.24170360       3.55862672       3.30828391      -0.00010712       0.00385392      -0.00075685
C       -2.45592459       5.68930015       3.62332122       0.00183886      -0.00095844       0.00149611
C       -3.68532801       7.81122593       3.69059307       0.00515138      -0.01218101       0.00142702
C       -4.92850117       9.93430842       3.57946418      -0.00010393       0.00435768      -0.00478371
C        2.46598757       1.34469270       3.66202921      -0.00133998       0.00285952       0.00113851
S        1.44307724       3.60686983       2.61789924       0.00087535      -0.00646392      -0.00439656
C        0.03350063       5.64635082       3.60819585      -0.00947422       0.00054372      -0.00491448
C       -1.19609050       7.80481383       3.85715906       0.00969807       0.00254480      -0.00253886
C       -2.44625228       9.92500039       3.80090244      -0.00107749      -0.00451746       0.00237971
C        4.92801353       1.40583977       3.94050879      -0.00467137      -0.00299647       0.00025331
P        3.48348597       3.62471397       4.68818383       0.00586205      -0.00114167      -0.00335971
C        1.31150366       7.89724330       4.02890807       0.00128305      -0.00297883       0.00080689
C        0.01798841       9.96702351       3.89416098       0.00133647      -0.00477959      -0.00634960
C        7.38781680       1.45525143       3.76517388      -0.00711696      -0.00076810       0.00496625
C        6.13686436       3.58366664       3.86802393       0.00451059       0.00496658       0.00877747
C        4.85749206       5.74285051       3.82855839       0.00251292       0.00175099       0.00019959
C        3.71095769       7.88553258       3.74649894      -0.00866876      -0.00114801      -0.00503115
C        2.47716762      10.03692852       3.73691496       0.00066584      -0.00322495       0.00006642
C        9.87614569       1.45147336       3.49443975      -0.00071138       0.00202305      -0.00484812
C        8.61536180       3.57391019       3.58960089       0.00003372       0.00864797       0.00214562
C        7.37566736       5.70282813       3.66849599      -0.00372823       0.00182637       0.00070881
C        6.16883825       7.83000518       3.61401062      -0.00085122       0.00059772       0.00872464
C        4.94156823       9.98440690       3.54870743       0.00133394      -0.00500682       0.00156755
Ag       2.20513911       4.97761857       6.21523541       0.00019926      -0.00185680       0.00133506
O        1.88407873       5.01992374       8.22646692      -0.01172987      -0.00817844      -0.00501272
