51
Lattice="12.336457 0.0 0.0 -6.168228499999997 10.683685154694365 0.0 0.0 0.0 15.0" Properties=species:S:1:pos:R:3:initial_magmoms:R:1:forces:R:3 energy=-435.0535683810513 free_energy=-435.0535683810513 stress="0.0041246570111869284 -0.0022392280121421534 -1.593945568229783e-05 -0.0022392280121421534 -0.007749949317861266 -8.535537843674198e-06 -1.593945568229783e-05 -8.535537843674198e-06 7.094519615941806e-06" pbc="T T T"
C        0.01517548      -0.00957461       3.44996503       0.00000000       0.00917035       0.00373224      -0.00377622
C       -1.22179686       2.14747521       3.29122628       0.00000000       0.00383333       0.00621605      -0.00682187
C       -2.47097061       4.28140635       3.46527305       0.00000000       0.00704128      -0.00693636       0.00266722
C       -3.69400224       6.40247547       3.64110541       0.00000000      -0.00004631      -0.00413931      -0.01074908
C       -4.91635052       8.52658197       3.59476633       0.00000000      -0.00304476       0.00281768       0.00451165
C        2.48366653      -0.05983020       3.63928947       0.00000000       0.01301900       0.00327943      -0.00991347
C        1.27572833       2.03692996       3.24538105       0.00000000      -0.00415626       0.00478494      -0.00606440
C       -0.04065162       4.31173063       3.14187932       0.00000000       0.00264752      -0.01067939       0.00484260
C       -1.18777521       6.39071097       3.67440450       0.00000000       0.00349467       0.00660206      -0.01719032
C       -2.42892133       8.51402825       3.75306452       0.00000000      -0.00635380      -0.00209609      -0.00288103
C        4.95330231      -0.02017151       3.83877368       0.00000000       0.00071853      -0.01132407       0.00230669
C        3.66764522       2.05664881       3.93879751       0.00000000      -0.00563819       0.00386404      -0.00370281
P        1.72171802       6.18708157       4.11100215       0.00000000      -0.01493781       0.00144179      -0.00756662
C        0.04686745       8.53669736       3.89655123       0.00000000       0.00413808       0.00372468      -0.00927288
C        7.40616352       0.04041550       3.76730947       0.00000000      -0.00549592       0.00019301      -0.00984712
C        6.15552840       2.16209500       3.86939873       0.00000000       0.00062389      -0.01610693      -0.00765313
C        4.93943945       4.34208438       3.99994430       0.00000000       0.00248511      -0.00213576      -0.00104925
C        3.61634669       6.49557520       3.78732072       0.00000000       0.00004254      -0.00096685       0.01364773
C        2.50058641       8.63762939       3.78275346       0.00000000      -0.00366172       0.00395656      -0.00252125
C        9.88629167       0.04140995       3.53680961       0.00000000       0.00279096       0.00691454       0.00262141
C        8.63165432       2.16380590       3.57899700       0.00000000       0.00217885       0.00595289      -0.00167039
C        7.38565362       4.29143375       3.69066222       0.00000000      -0.00348961       0.00297326      -0.00670979
C        6.13927340       6.42482825       3.66570871       0.00000000      -0.00190327      -0.00015568       0.00197249
C        4.95662798       8.57291302       3.58277542       0.00000000       0.00040187      -0.00868108      -0.01665257
C        0.01603232       1.41498383       3.30574650       0.00000000      -0.00001188       0.00721586       0.00699745
C       -1.23746002       3.56564454       3.26303863       0.00000000       0.00606214      -0.00394260      -0.00236345
C       -2.44877278       5.69585950       3.59497316       0.00000000       0.00516195      -0.00441504      -0.01300952
C       -3.67777136       7.81822378       3.66495987       0.00000000      -0.00783549      -0.00380850       0.00384458
C       -4.92322406       9.94135155       3.54685891       0.00000000       0.01357351       0.00455865      -0.00621420
C        2.47203535       1.35232605       3.61604907       0.00000000      -0.00503611       0.00570524       0.00479050
S        1.44282874       3.60711034       2.54958705       0.00000000      -0.01658145       0.00327498       0.00535580
C        0.04133390       5.65387123       3.54274232       0.00000000      -0.00616600      -0.01149805       0.01145677
C       -1.18810562       7.81101250       3.81201732       0.00000000       0.00147096       0.00929574       0.00652940
C       -2.44002081       9.93254239       3.76302461       0.00000000       0.00286217      -0.00578150       0.00882323
C        4.93401813       1.41359221       3.90517461       0.00000000      -0.00545298      -0.01333047       0.00772729
P        3.48466715       3.63024621       4.64621387       0.00000000      -0.00932090       0.00735451      -0.00547330
C        1.31909398       7.89941992       3.96925639       0.00000000       0.00049856       0.00269568       0.01356986
C        0.02442030       9.97293632       3.84980050       0.00000000       0.00086184      -0.00317347       0.00404157
C        7.39361358       1.46223793       3.73812733       0.00000000       0.00530429      -0.00398062       0.00146145
C        6.14548436       3.59198491       3.85660977       0.00000000       0.00197874      -0.01014000       0.00048335
C        4.86448146       5.75019198       3.80335526       0.00000000       0.00051887      -0.00050899       0.00141957
C        3.71719018       7.89096925       3.69635432       0.00000000      -0.00284639      -0.00184739       0.01456416
C        2.48257538      10.04206282       3.68818503       0.00000000      -0.00309741       0.00710065       0.01094576
C        9.88126400       1.45765056       3.45594473       0.00000000       0.00477234       0.01144153       0.00456216
C        8.62252593       3.58088827       3.57019400       0.00000000      -0.00036740       0.00425304      -0.00089696
C        7.38327629       5.71031445       3.65437154       0.00000000      -0.00414722       0.00375864       0.00750428
C        6.17606498       7.83713903       3.59131309       0.00000000      -0.00033097      -0.00308786      -0.00393678
C        4.94706605       9.99047779       3.50759807       0.00000000       0.00734720      -0.00184417       0.01451290
Ag       2.10722523       4.90738105       6.14343690       0.00000000      -0.00007036       0.00562065      -0.01039255
O        2.34894552       4.79121802       9.06453168       1.00000000       0.01005640      -0.00003584      -0.00141135
O        1.45033917       4.89410690       8.16166114       1.00000000      -0.00306274       0.00188767       0.00658044
