50
Lattice="12.336457 0.0 0.0 -6.168228499999997 10.683685154694365 0.0 0.0 0.0 15.0" Properties=species:S:1:pos:R:3:forces:R:3 energy=-429.3937941775217 free_energy=-429.3937941775217 stress="0.0006081453673753699 0.002360116264872126 1.0242781295172373e-07 0.002360116264872126 -0.010267913909936097 -2.5334991875532866e-07 1.0242781295172373e-07 -2.5334991875532866e-07 3.5450404489819023e-06" pbc="T T T"
C       -0.00373209      -0.04423701       3.65785485       0.00400921      -0.00718728      -0.00866125
C       -1.20552693       2.13364158       3.56855633      -0.00609267      -0.00662478       0.00260422
C       -2.43991325       4.26453195       3.59839197       0.00433650      -0.00292555       0.00903887
C       -3.69485088       6.37840974       3.61870195      -0.00985190       0.01137458      -0.00253714
C       -4.95364110       8.49358393       3.62539683      -0.00478117      -0.00498944       0.00517196
C        2.45768532      -0.09932090       3.90873897      -0.00574397      -0.00839515       0.00100664
C        1.27594932       2.02084143       3.66046765      -0.00166587       0.00066751      -0.00079978
C        0.01805904       4.30754501       3.39889050       0.00188713       0.00507640      -0.00036910
C       -1.20708413       6.40416861       3.60889004      -0.00717045       0.00344379       0.00249471
C       -2.47178434       8.50324844       3.78131658      -0.00066226      -0.00180852       0.00212047
C        4.93318588      -0.03696298       4.00921246      -0.00512965      -0.00389582      -0.01557071
C        3.67627087       2.00627122       4.25531556      -0.00038081       0.00228583       0.00707835
C        1.29860904       6.46848789       3.60594233      -0.00188094      -0.00452583       0.00033055
C       -0.01038885       8.55460781       3.77536080       0.00700601       0.00129745       0.00515210
C        7.39745001       0.01974827       3.86394619       0.01184590      -0.00647871      -0.00005005
C        6.17484367       2.12437291       4.05390201       0.00603419      -0.00096730       0.00893803
C        4.97634250       4.28948636       3.97599015      -0.00217341       0.01285529      -0.00200845
P        3.29433583       6.21855229       3.03889294       0.00989070      -0.00730533      -0.00516757
C        2.44809459       8.61577476       3.61519573      -0.00519083      -0.00403385      -0.00316944
C        9.87921357       0.01682003       3.66973509       0.00292242       0.00267886       0.00071141
C        8.65090211       2.13961764       3.77244796      -0.00589108       0.00039617       0.00379841
C        7.41556577       4.25522194       3.76316643       0.00783255       0.00155950      -0.00552760
C        6.15321170       6.37377687       3.51647801       0.00240495       0.00117259       0.00744252
C        4.91055807       8.52535974       3.49785752       0.00054678       0.00303233      -0.00932972
C        0.01466489       1.38775996       3.61675169      -0.00146846      -0.00830385      -0.01242508
C       -1.18976180       3.56298935       3.51143885       0.00540643      -0.00426443       0.00821592
C       -2.44406483       5.68274456       3.60513177      -0.01138169       0.00236218       0.00563616
C       -3.70722526       7.79456995       3.66671779      -0.00393380       0.00802317       0.00888802
C       -4.94872749       9.90607504       3.72633779      -0.00149381      -0.00945639      -0.00006610
C        2.46306223       1.30353397       3.98818917      -0.00120085      -0.00443043      -0.00578736
P        1.59182863       3.59808033       2.97932394       0.00631633       0.01340204      -0.00291979
C        0.04836259       5.72264936       3.50221530       0.00096794       0.00602385      -0.00228629
C       -1.23233291       7.81663148       3.73618049       0.00278002       0.00292136       0.00835537
C       -2.46493757       9.91015218       3.92589057      -0.00659329      -0.00700274      -0.00609686
C        4.93730682       1.38520500       4.14512375       0.00101484      -0.00314510       0.00114485
P        3.45004362       3.69714756       4.67603931      -0.00906561       0.00036017       0.00606762
C        1.22458041       7.88143054       3.65678817      -0.00165133      -0.00954917      -0.00288266
C       -0.00241529       9.97159418       3.89512250       0.00534626       0.00324634       0.00026338
C        7.40667308       1.43444028       3.91274849       0.00435361      -0.00648558       0.00388841
C        6.18295481       3.54505238       3.96151721       0.00170943       0.00703964      -0.00624360
C        4.94039393       5.62823537       3.54577782       0.00207020       0.01377068      -0.00455799
C        3.64258912       7.89286515       3.42749027      -0.00031353       0.00785807      -0.00229144
C        2.46455388      10.01886756       3.72615414       0.00905687      -0.00780668       0.00551242
C        9.89130073       1.43721079       3.67156794      -0.00990523       0.00201693       0.00800138
C        8.65753632       3.55628456       3.71661052       0.00484037      -0.00221872      -0.00202080
C        7.40275448       5.66991375       3.61862811       0.00010754       0.00241596       0.00547542
C        6.14692415       7.79735888       3.50368901      -0.00030108      -0.00529146      -0.00154697
C        4.92791570       9.95417107       3.60206665       0.00251109       0.00348458      -0.01023871
Ag       2.30532568       5.74139338       5.39997974      -0.01004276       0.00904750       0.00040907
O        2.47003172       5.57117425       7.44635314       0.00876920      -0.00072065      -0.00519181
