50
Lattice="12.336457 0.0 0.0 -6.168228499999997 10.683685154694365 0.0 0.0 0.0 15.0" Properties=species:S:1:pos:R:3:forces:R:3 energy=-439.58170782082925 free_energy=-439.58170782082925 stress="-0.0034258684598715123 -1.1565936700620657e-06 -3.2889963885984464e-06 -1.1565936700620657e-06 0.005882458126369842 -6.548182666601708e-08 -3.2889963885984464e-06 -6.548182666601708e-08 -4.335867961698524e-06" pbc="T T T"
C        0.00210762       0.01180820       3.71135367      -0.00103558      -0.00615191      -0.00270415
C       -1.24579310       2.12490870       3.65472325      -0.00365894      -0.00181156      -0.00654759
C       -2.47499951       4.26896994       3.58248095       0.00058926       0.00231448      -0.00562974
C       -3.70138999       6.41896727       3.58805359      -0.00013203      -0.00424542       0.00083050
C       -4.92793238       8.57014466       3.66179236       0.00118887       0.00157510       0.00189912
C        2.46720654       0.06719041       3.73706422       0.00048931       0.00444201      -0.00143661
C        1.21182243       2.21048979       3.79818498      -0.01297434      -0.01226416       0.00245032
C       -0.00313251       4.24595889       3.71282599      -0.00688388      -0.00425857       0.01238232
C       -1.24958116       6.41392273       3.62299961       0.00438109      -0.00016235      -0.00408025
C       -2.47425606       8.57034859       3.65328340      -0.00146219       0.00026147       0.00182732
C        4.93230097       0.01173621       3.71296284       0.00112937      -0.00650644      -0.00209664
C        3.72305383       2.20997761       3.81898986       0.01227327      -0.01260684      -0.00050182
N        1.13762410       6.40308302       3.88007603       0.01408067      -0.00952353       0.00798315
C       -0.00694564       8.52942062       3.71208107      -0.00880979       0.00728413      -0.00028800
C        7.40816789      -0.03735693       3.70558961      -0.00035280      -0.00185884      -0.00151925
C        6.18012386       2.12510900       3.67318318       0.00372915      -0.00168825      -0.00763711
C        4.93815803       4.24574532       3.75666696       0.00619779      -0.00546189       0.00673795
N        3.79825841       6.40513562       3.92081027      -0.01464554      -0.01076515       0.00292700
C        2.46713834       8.46770368       3.80303182       0.00006714      -0.00124817       0.00825252
C        9.86271872      -0.03730476       3.70593102      -0.00057812      -0.00162189      -0.00321966
C        8.63528133       2.11602883       3.62549123       0.00006962       0.00250972       0.01264817
C        7.40862705       4.26900891       3.59960106       0.00047992       0.00216472      -0.00635928
C        6.18372960       6.41364654       3.65372554      -0.00452171       0.00022745      -0.00739151
C        4.94143217       8.52950519       3.72906506       0.00873482       0.00805876      -0.00155482
C       -0.00695752       1.43704303       3.71360911      -0.00847575      -0.00747417      -0.00247725
C       -1.24956820       3.55253588       3.62362812       0.00439244       0.00028198      -0.00477052
C       -2.47499452       5.69747092       3.58220006       0.00030707      -0.00188839      -0.00610108
C       -3.70117274       7.85045366       3.62569992      -0.00044612      -0.00289944       0.01163942
C       -4.92835486      10.00379883       3.70686057       0.00079891       0.00214594      -0.00249011
C        2.46724019       1.49877062       3.80332355      -0.00026925       0.00105533       0.00729596
N        1.13796333       3.56348875       3.87859398       0.01290658       0.00925504       0.00884935
C       -0.00322131       5.72049281       3.71311886      -0.00631470       0.00499143       0.01034127
C       -1.24579858       7.84157048       3.65357596      -0.00385971       0.00155520      -0.00655297
C       -2.47375294      10.00381102       3.70519725      -0.00021348       0.00102241      -0.00356690
C        4.94148921       1.43690590       3.72829322       0.00834998      -0.00731643      -0.00327667
N        3.79865997       3.56118487       3.92279943      -0.01567858       0.01050754      -0.00002878
C        1.21170401       7.75600284       3.79820795      -0.01251422       0.01214110       0.00051162
C        0.00217014       9.95464195       3.70956004      -0.00200914       0.00620353      -0.00253865
C        7.40854655       1.39628990       3.66061388       0.00098455      -0.00116757       0.00286522
C        6.18368707       3.55278429       3.65304271      -0.00376087       0.00013464      -0.00685513
C        4.93812606       5.72071309       3.75655211       0.00602021       0.00437924       0.00574352
C        3.72289211       7.75645711       3.81857597       0.01298589       0.01221333      -0.00094729
C        2.46723295       9.89928922       3.73690880      -0.00045983      -0.00462750      -0.00286513
C        9.86219806       1.39616142       3.65394056      -0.00111045      -0.00103341       0.00176704
C        8.63504103       3.54751148       3.58836501       0.00062034       0.00405257      -0.00144465
C        7.40866427       5.69744647       3.59968485      -0.00030734      -0.00195512      -0.00560589
C        6.18011346       7.84130944       3.67434274       0.00371102       0.00243828      -0.00851327
C        4.93226193       9.95469698       3.71454248       0.00152973       0.00700437      -0.00402565
Ag       2.44780798       4.98334931       5.45377585       0.00467619       0.00040374       0.01133516
O        2.45481196       4.98237381       7.50333199      -0.00021882      -0.00008652      -0.00526058
