50
Lattice="12.336457 0.0 0.0 -6.168228499999997 10.683685154694365 0.0 0.0 0.0 15.0" Properties=species:S:1:pos:R:3:forces:R:3 energy=-429.50719194987164 free_energy=-429.50719194987164 stress="0.0008996265716086009 -0.002151897484915794 -2.7449958732208305e-06 -0.002151897484915794 0.005252716496718577 -2.0433830169255654e-05 -2.7449958732208305e-06 -2.0433830169255654e-05 1.4517712026712518e-05" pbc="T T T"
C        0.01604244       0.00720389       3.77844019       0.00453109       0.00107683      -0.01013257
C       -1.23278857       2.13583076       3.79751482       0.00429346      -0.00418379       0.00590712
C       -2.45860539       4.26757884       3.85960624       0.01010784       0.00542667      -0.00487217
C       -3.67586206       6.40699496       3.87309609      -0.00658773      -0.01170211      -0.00665182
C       -4.91062155       8.55662715       3.83170685      -0.01383917      -0.00576360      -0.01119439
C        2.47618379       0.02181379       3.72049684      -0.00658368       0.00417534       0.00034093
C        1.20775389       2.15128018       3.66490284      -0.00102999       0.01024399       0.00520808
C       -0.01461069       4.26896290       3.81845331      -0.00382848      -0.00123207       0.00095422
C       -1.20095261       6.38123080       3.86826842       0.00480167       0.00137371      -0.01168383
C       -2.43485623       8.53740261       3.81418666      -0.00135927      -0.00180615       0.01101891
C        4.95693947      -0.01588816       3.68460997      -0.00171842       0.00664022       0.00423619
C        3.70665770       2.10191977       3.37757644       0.00151071      -0.00665828       0.00014330
O        1.19599430       6.38825092       3.82922606      -0.00904943       0.00377562       0.00088853
C        0.03798848       8.50079207       3.78746461       0.00988291      -0.00542300       0.00335125
C        7.42372992      -0.03438086       3.73803875      -0.01390677      -0.01112827      -0.00458235
C        6.17635778       2.13727445       3.64724064       0.00561038       0.00109591       0.00347382
C        4.94556236       4.33836045       3.60922692       0.00551459       0.00438835      -0.00123056
O        3.81150143       6.45570738       3.55122185       0.01230937       0.00934644      -0.00518213
C        2.48692603       8.45360873       3.75567106       0.00164904       0.00108340      -0.00329518
C        9.87119274      -0.02855245       3.77678979       0.00388251      -0.01289767       0.00178653
C        8.63840593       2.12314545       3.78894611       0.00061326       0.00300928      -0.00637146
C        7.40574059       4.27051365       3.80393679      -0.00541774       0.00236166       0.00131838
C        6.20399123       6.43702501       3.80626337      -0.00046404       0.00374046      -0.00229155
C        4.95178580       8.53997055       3.77966550      -0.00486536      -0.00442515      -0.00054689
C        0.01005058       1.44182189       3.75172892       0.00529792       0.00222802       0.00179799
C       -1.22041988       3.56498551       3.82995579       0.00357654      -0.00373124       0.00710608
C       -2.44322956       5.68249744       3.87973572       0.00600949       0.00279836      -0.01124331
C       -3.67425391       7.83518833       3.85029135      -0.01050152      -0.00938285      -0.00526116
C       -4.91545094       9.98877187       3.78799060      -0.00334496      -0.00316182      -0.00286670
C        2.45078801       1.45021918       3.58678185      -0.00406672       0.00779017       0.00927650
O        1.16731583       3.53971417       3.73411611      -0.00631921       0.00830907       0.00100053
C        0.00948313       5.67643682       3.85389091      -0.00269571      -0.00247594       0.00101324
C       -1.20602293       7.80863115       3.83081097       0.01008446      -0.00049695      -0.00300029
C       -2.45045704       9.97114892       3.73738827      -0.00341868       0.00705573       0.01038797
C        4.94596704       1.41468693       3.56768929       0.00654440       0.00504560      -0.00830980
P        3.68222821       3.67080402       2.60185830       0.00970168      -0.00625436       0.01191916
C        1.23173962       7.76927545       3.78984566       0.00881769      -0.00162561       0.00217862
C        0.02670189       9.94216253       3.73608997      -0.01119199      -0.00968221       0.00314095
C        7.40919265       1.40920091       3.72856933      -0.00147622      -0.00711300       0.00385863
C        6.17510195       3.56804258       3.69094480       0.00072756      -0.00022655      -0.00154185
C        5.00345112       5.77253717       3.65281870       0.00603189       0.00495025      -0.00575116
C        3.75946761       7.82471470       3.71570420      -0.00192258       0.00303215      -0.00453981
C        2.48084137       9.90602969       3.75987388      -0.00747463      -0.00439336       0.00750296
C        9.87858892       1.41488829       3.79447258       0.00305397      -0.00680177      -0.00025662
C        8.64001690       3.55053381       3.82590962       0.00287823       0.01097020      -0.00256291
C        7.43066470       5.69659758       3.84323372      -0.01076818      -0.00239184       0.00353578
C        6.20236041       7.85394952       3.81427680      -0.01245603      -0.00242485       0.01477486
C        4.94569516       9.96958642       3.78721031       0.00779605      -0.00927427       0.00044066
Ag       3.23379746       4.44494983       5.06689867       0.00185333       0.01945783       0.00229126
O        1.81693998       4.67274852       6.53863746       0.00720649       0.00528142      -0.00548396
