50
Lattice="12.336457 0.0 0.0 -6.168228499999997 10.683685154694365 0.0 0.0 0.0 15.0" Properties=species:S:1:pos:R:3:forces:R:3 energy=-426.64160396171434 free_energy=-426.64160396171434 stress="-0.0017507377913141913 0.0017263726067344685 -1.4762483157940804e-05 0.0017263726067344685 -0.005605184529348853 -8.15519728289113e-06 -1.4762483157940804e-05 -8.15519728289113e-06 1.969774986583753e-05" pbc="T T T"
C       -0.00325635      -0.01962790       3.59109859       0.00788734      -0.00356572      -0.00273335
C       -1.21246940       2.15149307       3.59447715       0.00148672       0.00778518      -0.00128564
C       -2.44397487       4.27652029       3.73495224       0.00228024      -0.00544446       0.00070712
C       -3.69834406       6.40013682       3.72587489       0.00060390      -0.00169072      -0.00039076
C       -4.94315894       8.52356130       3.60845033      -0.01270868      -0.00709608       0.00764385
C        2.46253238      -0.06344884       3.80106056      -0.00304399       0.00586735      -0.00301123
C        1.26957807       2.06445063       3.53982534      -0.00810471       0.00213161       0.00934526
C        0.01016202       4.37064162       3.57545053       0.01170856      -0.00446896       0.00288714
C       -1.24228305       6.42705847       3.83909826       0.00137195       0.00320800      -0.00994248
C       -2.46810894       8.52752622       3.83951180      -0.00231466       0.00367151      -0.01209702
C        4.93880884      -0.01783442       3.94033717      -0.00252425      -0.00579816       0.00518481
C        3.67802755       2.04374303       4.07151168       0.00640015      -0.00613443       0.00213385
O        1.16235295       6.47316846       3.73414564      -0.00951334      -0.00188139       0.00126622
C       -0.00278330       8.54513839       3.82901682       0.01391804       0.00154190       0.00022149
C        7.40945490      -0.00394360       3.82606282      -0.01148712      -0.00446398       0.00717239
C        6.17987135       2.13201067       3.96000873       0.00493708       0.00161519       0.00561832
C        4.98100758       4.31560670       3.79849056       0.00691889       0.01182875      -0.01174878
P        3.64541610       6.30781186       2.46351777      -0.00416426       0.00207742       0.00886095
C        2.43667417       8.53324943       3.55396351       0.00140272      -0.00290062      -0.01486730
C        9.86910895      -0.00093087       3.63267348       0.00001549      -0.00351938       0.00523336
C        8.65073884       2.13546452       3.77287252      -0.00728740      -0.00086648       0.00239940
C        7.42035168       4.26520910       3.76094786       0.00059701       0.00991960       0.00452593
C        6.19802073       6.40575472       3.45817008       0.00664423       0.00523174       0.00057922
C        4.91899154       8.53506568       3.40996282      -0.00324563      -0.00890120      -0.00228838
C        0.01123208       1.41509774       3.55870531      -0.00233473       0.00134471      -0.00319468
C       -1.19225100       3.59040351       3.63774825       0.01010877       0.00321678       0.00071153
C       -2.46483820       5.69205408       3.78502141       0.00160833      -0.00548161       0.00201179
C       -3.70689214       7.82010654       3.72686166      -0.00859318      -0.00187010      -0.00043567
C       -4.94373182       9.93857597       3.65843691       0.00238178      -0.00598558       0.00773917
C        2.46848161       1.34483101       3.81939960      -0.00193540       0.00600237       0.00161616
P        1.55604770       3.70671869       2.97751962      -0.00896193      -0.00457154       0.00460231
C       -0.03207869       5.76265908       3.73365889      -0.00255031      -0.00514828      -0.00537949
C       -1.24097110       7.83789989       3.86567599       0.00885231       0.00854099      -0.00834374
C       -2.46373077       9.94363347       3.87744519      -0.00574313       0.00431456      -0.00737494
C        4.93711057       1.40889768       4.01849203       0.00799426      -0.00733482       0.00529426
P        3.43259989       3.75191602       4.44244455      -0.00711543       0.00527475       0.00370389
C        1.19185711       7.85313727       3.68380865       0.00792750      -0.00540859      -0.01250666
C        0.00785451       9.97149868       3.87351528      -0.00451233      -0.00376369       0.00691313
C        7.41060599       1.42693458       3.86508736      -0.00498542      -0.00494580       0.00696260
C        6.18050696       3.55792291       3.86472830       0.00535377       0.00850853       0.00304750
C        4.98852201       5.66852182       3.37742736       0.01044506       0.01412809       0.00052626
C        3.67044383       7.86213378       3.27171579      -0.00102641      -0.00477124      -0.00079648
C        2.45995909       9.96065561       3.68800682      -0.00928821      -0.00329853      -0.00186806
C        9.88676245       1.43139419       3.67135377      -0.00163283       0.00368789       0.00592156
C        8.65445034       3.55819341       3.76566911      -0.00472099       0.00047896       0.00240812
C        7.41663835       5.68720380       3.64894071       0.00156904       0.00718828       0.00273865
C        6.16650586       7.82209768       3.44398352      -0.00908070      -0.00404095       0.00209978
C        4.92976254       9.96454516       3.54948175       0.00611637      -0.00655850      -0.01199240
Ag       2.63477380       4.48847556       6.50002020       0.00948962       0.00004480      -0.00758846
O        2.03451676       5.04317464       8.36539967      -0.00114403       0.00230185      -0.00223054
