49
Lattice="12.336457 0.0 0.0 -6.168228499999997 10.683685154694365 0.0 0.0 0.0 15.0" Properties=species:S:1:pos:R:3:forces:R:3 energy=-425.7852825481492 free_energy=-425.7852825481492 stress="0.00031833621851257355 -0.0023501238252608123 2.2859907048384673e-06 -0.0023501238252608123 0.005730504761019977 -5.678149026316579e-06 2.2859907048384673e-06 -5.678149026316579e-06 -1.8002404390771272e-06" pbc="T T T"
C       -0.02160099       0.02356779       3.77987194      -0.00281588       0.00059882      -0.00340349
C       -1.26799896       2.15396062       3.81067648      -0.00572483      -0.00421272      -0.00898153
C       -2.48658468       4.29050233       3.81651435      -0.00266308       0.00468694       0.00329344
C       -3.70550937       6.43065761       3.79752777      -0.00464792      -0.00317023      -0.00382495
C       -4.94496321       8.57712745       3.78358015       0.00030104      -0.00116731      -0.00040088
C        2.43993111       0.04746431       3.74726790      -0.00393836       0.00171883      -0.00203252
C        1.17281953       2.16918760       3.74168507       0.00164914       0.00014004       0.00385355
C       -0.04987313       4.29266607       3.86807764      -0.00331716       0.00101593      -0.00112632
C       -1.23242805       6.40679871       3.85696980       0.00181712       0.00107051      -0.01183029
C       -2.46803937       8.56406072       3.80935832       0.00282821      -0.00223683      -0.00935735
C        4.92261705       0.01606545       3.72200443      -0.00079385       0.00715900      -0.00100359
C        3.67047546       2.16304852       3.48001513      -0.00056942       0.01419971       0.00669231
O        1.16474555       6.41074513       3.89062848      -0.00086545       0.00808863       0.00869264
C        0.00489412       8.52620228       3.81038669      -0.00165753      -0.00494165       0.00230362
C        7.39023001      -0.01258788       3.75455944       0.00422537      -0.00958366      -0.00858308
C        6.14585103       2.16106002       3.63224385       0.00476439      -0.00161907       0.00187139
C        4.92176034       4.35877427       3.49347629       0.00919973       0.00989930      -0.00553273
O        3.77342969       6.45785289       3.66629139       0.00451340      -0.00034751      -0.01149306
C        2.45325315       8.46955181       3.78088539      -0.00097011       0.00525371      -0.00324069
C        9.83565623      -0.01170690       3.78211039       0.00997681      -0.00404548      -0.00584162
C        8.60775244       2.14421589       3.76565279       0.00205937      -0.00398668      -0.01003216
C        7.38177097       4.29438744       3.71228584      -0.00839715      -0.00544215       0.00225713
C        6.17342863       6.45748816       3.68545079       0.00277072       0.00354822      -0.00530242
C        4.91542315       8.55417205       3.75015194      -0.00763609      -0.00569796       0.00317442
C       -0.02817591       1.45851536       3.78358972      -0.00190753       0.00062030      -0.00062122
C       -1.25140516       3.58481527       3.83513315      -0.00344327      -0.00171755      -0.00107917
C       -2.47220609       5.70594292       3.82806629      -0.00152072       0.00603746       0.01132515
C       -3.70677869       7.85867428       3.80262765       0.00159268      -0.00412719      -0.00029987
C       -4.95199983      10.00916225       3.78177814      -0.00466044      -0.00080358      -0.00526526
C        2.41066846       1.47518097       3.65174477       0.00075248       0.00608954       0.00356033
O        1.13293632       3.55683889       3.88699899      -0.00084007       0.00116040       0.00112723
C       -0.02345554       5.70059677       3.88040640       0.00101218       0.00256893      -0.00195464
C       -1.23898134       7.83485722       3.83234841      -0.00082479      -0.00301395      -0.00377253
C       -2.48469836       9.99837780       3.76227824      -0.00083529       0.00246367       0.00660387
C        4.91544863       1.44580036       3.60929106       0.00198743       0.01267513       0.00196797
P        3.68379868       3.62473165       2.50093719       0.00043863      -0.01177825      -0.00289706
C        1.19851586       7.79125843       3.82355393       0.00056802       0.00490412       0.01074610
C       -0.00795510       9.96826915       3.76240329      -0.00172565      -0.00433809       0.00540538
C        7.37913165       1.43040582       3.72079677       0.00485642      -0.00921020       0.00055373
C        6.15098820       3.59217812       3.60467274      -0.00434777      -0.00410354       0.00897065
C        4.96936563       5.79308185       3.55616661       0.01031726       0.00483280       0.00062884
C        3.72339876       7.83242939       3.73684744      -0.00584613      -0.00436964       0.00298675
C        2.44594357       9.92406505       3.77493546       0.01043732       0.00228133       0.00358580
C        9.84457469       1.43308683       3.79255141       0.00050040      -0.00693913       0.00174180
C        8.61313046       3.57327956       3.76893510      -0.00342054      -0.00003053       0.00320167
C        7.40315213       5.72081963       3.73616367      -0.00518348      -0.00454837      -0.00104572
C        6.16853434       7.87229307       3.74323940      -0.00238157       0.00305386       0.00484036
C        4.90879953       9.98437915       3.77702717       0.00305228      -0.00583934       0.00833068
Ag       3.29762174       4.06424697       5.06455431       0.00131364       0.00320343       0.00120733
