51
Lattice="12.336457 0.0 0.0 -6.168228499999997 10.683685154694365 0.0 0.0 0.0 15.0" Properties=species:S:1:pos:R:3:forces:R:3 energy=-441.39435515338147 free_energy=-441.39435515338147 stress="0.0011568054020495164 0.002120030774234888 -1.7279256611863406e-05 0.002120030774234888 -0.0012960372567470692 -1.017478595867641e-05 -1.7279256611863406e-05 -1.017478595867641e-05 1.6013340033202686e-05" pbc="T T T"
C       -0.00757339       0.00039311       3.76183342      -0.00146956       0.00739103       0.00687353
C       -1.22116855       2.15463250       3.82411797       0.00558439      -0.00058244      -0.00478029
C       -2.44407438       4.27276475       3.82423755       0.00211265       0.00528039      -0.00480022
C       -3.70291373       6.40088953       3.76209740       0.00574066      -0.00493777       0.00668385
C       -4.95412875       8.53394432       3.70512101      -0.00457006      -0.00252683      -0.00079332
C        2.45448314      -0.00458563       3.77010193       0.00037937       0.00197592       0.00408446
C        1.23824339       2.14526633       3.81256534       0.00364020      -0.00128672       0.00158735
C        0.06880139       4.31148805       3.85093746       0.00136234       0.00062643       0.00635829
C       -1.22247871       6.40736243       3.81327417       0.00081256       0.00382397       0.00154302
C       -2.47617265       8.53558398       3.77053406       0.00175480      -0.00078439       0.00406602
C        4.92564721      -0.00687181       3.77492134       0.00660789       0.00373964       0.00080715
C        3.69059260       2.12187160       3.75402284      -0.00202950       0.00751209      -0.00139027
O        2.48844908       4.17011081       3.83499566      -0.00325530      -0.01137399      -0.00356645
O        1.15622921       6.47761989       3.83566779      -0.01178343       0.00294169      -0.00356418
C       -0.01654015       8.54284440       3.75492798       0.00552336      -0.00545509      -0.00145603
C        7.39155289      -0.00059809       3.77505852      -0.00583527       0.00210229       0.00365418
C        6.16401895       2.12553643       3.77462677      -0.00103414      -0.00606108       0.00373302
C        4.90770611       4.22731603       3.61155520       0.00653910      -0.00092166       0.00576206
S        3.67776842       6.39529436       2.51373909      -0.01395135      -0.00816020      -0.00489708
C        2.41537054       8.54417681       3.61230109       0.00255910       0.00615793       0.00546365
C        9.86082420       0.00374170       3.75716614      -0.00217428      -0.01000148      -0.00355101
C        8.63897182       2.13704146       3.80841485       0.00572077       0.00312863       0.00581196
C        7.40240812       4.26182852       3.75685418      -0.00966326       0.00310194      -0.00336798
C        6.16491666       6.39994237       3.59304366      -0.00291677      -0.00117748       0.00044192
C        4.92549464       8.54667234       3.59322491      -0.00245038      -0.00196439       0.00018081
C       -0.00318048       1.43021652       3.80759959       0.00693877       0.00683585      -0.01001991
C       -1.18780570       3.58598018       3.84093692       0.00256441       0.00163327      -0.00816711
C       -2.46245023       5.68978061       3.80800787       0.00947326       0.00274967      -0.01021789
C       -3.71524489       7.82326748       3.74640977      -0.00031729      -0.00502177       0.00160066
C       -4.95016095       9.96218857       3.74614727      -0.00439163       0.00240331       0.00169926
C        2.45847431       1.41112174       3.78282382       0.00144752       0.00298038      -0.00095315
C        1.26392393       3.53653525       3.83660444      -0.00204581      -0.00512246       0.00551245
C       -0.00474739       5.73397364       3.83711534      -0.00550026       0.00055763       0.00541195
C       -1.24813755       7.83118446       3.78367751       0.00331268      -0.00020456      -0.00141906
C       -2.47859327       9.96320238       3.76962024       0.00569981       0.00320821       0.00473502
C        4.93480158       1.41476419       3.76623859      -0.00458332       0.00466300       0.00013771
C        3.68915249       3.50536373       3.70044396       0.00263687       0.00425220       0.00144467
C        1.18088187       7.84984313       3.70134023       0.00502537       0.00023304       0.00158077
C       -0.00682512       9.97392215       3.76674611       0.00176877      -0.00635244       0.00010972
C        7.40237566       1.42308506       3.79526001       0.00223734       0.00123304      -0.00267042
C        6.15446207       3.54710955       3.72957103      -0.00081478      -0.00908438      -0.00157036
C        4.95171947       5.65984142       3.44108843      -0.00202971      -0.00285612      -0.00454243
C        3.67793520       7.86611802       3.44132999      -0.00336642      -0.00041718      -0.00445965
C        2.44966695       9.96401649       3.73018495      -0.00835875       0.00384883      -0.00178316
C        9.87218664       1.43113237       3.80571538       0.00561924      -0.00888678       0.00268287
C        8.64424783       3.55798580       3.80561111      -0.00489432       0.00911574       0.00275050
C        7.39824657       5.68609344       3.71848080      -0.00092422       0.00225268       0.00154576
C        6.14831988       7.82150667       3.60944145      -0.00463697      -0.00266243       0.00076437
C        4.92396458       9.97169499       3.71858333       0.00143406      -0.00203031       0.00162677
Ag       3.44539674       6.26023977       5.18298453       0.00399589       0.00284031       0.00142622
O        2.75312220       5.86203045       7.06856866       0.00250562       0.00128284      -0.01211000
