51
Lattice="12.336457 0.0 0.0 -6.168228499999997 10.683685154694365 0.0 0.0 0.0 15.0" Properties=species:S:1:pos:R:3:initial_magmoms:R:1:forces:R:3 energy=-433.1267024298438 free_energy=-433.1267024298438 stress="-0.0017428068537843173 0.0017533663418946794 -2.518830024406091e-05 0.0017533663418946794 -0.00538043622211566 1.4360025693870427e-05 -2.518830024406091e-05 1.4360025693870427e-05 -1.3001469535304954e-05" pbc="T T T"
C        0.00344751      -0.03108195       3.55244577       0.00000000      -0.00189843      -0.00025599       0.00043778
C       -1.20505322       2.13995552       3.56564601       0.00000000      -0.00706658       0.00638882       0.00084357
C       -2.43589535       4.26513609       3.69934043       0.00000000      -0.00211253       0.00346791       0.00042837
C       -3.69074323       6.38948751       3.67717237       0.00000000       0.00075243       0.00330368       0.00267552
C       -4.93656562       8.51327175       3.55879972       0.00000000      -0.00174606      -0.00765708       0.00539159
C        2.46844398      -0.07338478       3.76886868       0.00000000       0.00354548      -0.00343639      -0.00113721
C        1.27642601       2.05434279       3.52694315       0.00000000       0.00087639       0.00170436      -0.00462730
C        0.01820047       4.35897956       3.53144110       0.00000000       0.00512311      -0.00666921      -0.00186840
C       -1.23553365       6.41782591       3.76667060       0.00000000       0.00423664      -0.00118180      -0.00271596
C       -2.46092497       8.51802653       3.77693077       0.00000000      -0.00641558       0.00223717      -0.00468982
C        4.94496561      -0.02845161       3.90586215       0.00000000       0.00950909       0.00085188      -0.00472117
C        3.68528930       2.03209330       4.06043196       0.00000000       0.00185461       0.00141600       0.00476347
O        1.16804801       6.46332069       3.68043025       0.00000000      -0.00369471       0.00099854       0.00536413
C        0.00428200       8.53575416       3.76178655       0.00000000      -0.00444185      -0.00124552      -0.00171429
C        7.41586859      -0.01504303       3.79002745       0.00000000       0.00179114       0.00405905       0.00291904
C        6.18773531       2.12155446       3.94542603       0.00000000      -0.00102783      -0.00275152      -0.01088853
C        4.98956954       4.30632775       3.77459289       0.00000000       0.00447819      -0.00862233      -0.00527275
P        3.65352566       6.28748169       2.42753774       0.00000000       0.00175108      -0.00390329       0.00030761
C        2.44271677       8.52276446       3.49311830       0.00000000       0.00454535       0.00807242       0.00327175
C        9.87564903      -0.01237990       3.59383979       0.00000000      -0.00009386      -0.00028113      -0.00114250
C        8.65826117       2.12467156       3.75349536       0.00000000      -0.00272729      -0.00799779      -0.01136063
C        7.42816286       4.25515408       3.74044257       0.00000000       0.00185621       0.00324507      -0.00717187
C        6.20602511       6.39489119       3.42077218       0.00000000      -0.00822898      -0.00057825       0.00138135
C        4.92533250       8.52376728       3.35831297       0.00000000       0.00549810       0.00198217       0.00327482
C        0.01832750       1.40363738       3.53198314       0.00000000      -0.00370154       0.00528886      -0.00164308
C       -1.18394516       3.57899469       3.60257349       0.00000000      -0.00251635       0.00436944      -0.00020812
C       -2.45735010       5.68120472       3.73246559       0.00000000       0.00211095       0.00445623      -0.00208476
C       -3.69980594       7.80974930       3.67135481       0.00000000      -0.00185841      -0.00142809      -0.00320223
C       -4.93672691       9.92815512       3.61639439       0.00000000      -0.00110811      -0.00792647       0.01120241
C        2.47463633       1.33469780       3.80706504       0.00000000       0.00359392       0.00023739      -0.00124823
P        1.56838110       3.68865861       2.94871685       0.00000000      -0.01377530       0.01118526       0.00240381
C       -0.02536134       5.75218931       3.67107678       0.00000000       0.00192494      -0.00601925      -0.00199648
C       -1.23359185       7.82876319       3.79197345       0.00000000      -0.00831502       0.00092002       0.00291698
C       -2.45749432       9.93370179       3.83133210       0.00000000       0.00596827       0.00123875       0.00953842
C        4.94463628       1.39753290       4.00092449       0.00000000       0.00225576       0.00051570       0.00374812
P        3.44141828       3.74323634       4.41664687       0.00000000       0.00090385      -0.00122253      -0.00463627
C        1.19835183       7.84275827       3.61741292       0.00000000      -0.00135107       0.00314866      -0.00585736
C        0.01375796       9.96123177       3.82771519       0.00000000       0.00704111      -0.00111956       0.00146261
C        7.41785182       1.41591859       3.84430848       0.00000000      -0.00167416      -0.00227004       0.00699167
C        6.18868009       3.54807923       3.84776321       0.00000000       0.00460400      -0.00240828       0.00642968
C        4.99649141       5.65758836       3.34789755       0.00000000      -0.00484822      -0.00873012      -0.00159200
C        3.67740274       7.85090890       3.21787539       0.00000000       0.00600192       0.00504523      -0.00091109
C        2.46580467       9.94947292       3.64154942       0.00000000       0.00066861       0.00834396      -0.00155498
C        9.89384060       1.42024409       3.64398523       0.00000000      -0.00237187      -0.00342538      -0.00101441
C        8.66229164       3.54765311       3.74395413       0.00000000      -0.00110110      -0.00486624      -0.00319205
C        7.42417260       5.67643874       3.61545943       0.00000000      -0.00328025       0.00726243      -0.00174922
C        6.17328656       7.81121090       3.39613199       0.00000000      -0.00153532      -0.00285808       0.00585768
C        4.93628330       9.95310848       3.50277197       0.00000000      -0.00067650       0.00041739       0.00048412
Ag       2.60609101       4.56699965       6.36864466       0.00000000      -0.00299209       0.00056638      -0.00473276
O        2.16008207       4.69776637       9.22360977       1.00000000      -0.00004266      -0.00541006      -0.00257300
O        1.84813811       5.34583643       8.16851980       1.00000000       0.00971049       0.00154165       0.01341199
