52
Lattice="12.336457 0.0 0.0 -6.168228499999997 10.683685154694365 0.0 0.0 0.0 15.0" Properties=species:S:1:pos:R:3:initial_magmoms:R:1:forces:R:3 energy=-447.7121309429462 free_energy=-447.7121309429462 stress="0.0017944939170736836 0.001803923539297553 1.0210665916346192e-05 0.001803923539297553 -0.0005440403693092232 3.1324123899760955e-05 1.0210665916346192e-05 3.1324123899760955e-05 8.02764977407391e-06" pbc="T T T"
C        0.01704107      -0.00074835       3.69942881       0.00000000       0.00893418       0.00327983       0.00372749
C       -1.19666398       2.15279860       3.77019857       0.00000000      -0.00496015       0.00466191       0.00722120
C       -2.42052833       4.27189631       3.77397174       0.00000000       0.00796584      -0.01061448       0.00997178
C       -3.67853821       6.39945166       3.70736540       0.00000000      -0.00130508       0.00526611      -0.00264611
C       -4.92788992       8.53320429       3.64257353       0.00000000       0.00247689       0.00308758      -0.00273118
C        2.48001279      -0.00568041       3.72737215       0.00000000       0.00124289      -0.00238203      -0.00647838
C        1.26326090       2.14455409       3.76762542       0.00000000       0.00027135      -0.00442559       0.00177987
C        0.09330496       4.30946752       3.83100549       0.00000000       0.00168468       0.00428836      -0.01913154
C       -1.19680590       6.40583369       3.77906956       0.00000000      -0.00598832       0.00005124       0.00355390
C       -2.45021973       8.53393502       3.73245673       0.00000000       0.00798287       0.00364268      -0.00481101
C        4.95231659      -0.00851961       3.75101786       0.00000000      -0.01312907      -0.00003341      -0.01024270
C        3.71468661       2.12134513       3.72804383       0.00000000       0.00795752      -0.00169413      -0.00311638
O        2.51277366       4.17081698       3.86444812       0.00000000      -0.00699983       0.00627440       0.00679535
O        1.18216702       6.47463990       3.88799313       0.00000000       0.00858004      -0.00642622      -0.00396417
C        0.01077085       8.53914182       3.73808545       0.00000000       0.00348214       0.00599068      -0.00579354
C        7.41804106      -0.00421567       3.75054028       0.00000000      -0.00166527       0.00064059       0.00102843
C        6.18766996       2.12550826       3.74602474       0.00000000       0.00486310      -0.00415628       0.00439109
C        4.92662251       4.23167560       3.59109782       0.00000000      -0.00857484       0.00443929       0.00646972
S        3.72239327       6.40079419       2.40851917       0.00000000       0.01068989       0.00555652      -0.00243343
C        2.44543834       8.53393238       3.58502517       0.00000000      -0.00634975      -0.00560184      -0.00897019
C        9.88476062       0.00015796       3.70769821       0.00000000       0.00991746       0.00548878       0.00200580
C        8.66346861       2.13551541       3.77047364       0.00000000      -0.00637258       0.00398307      -0.01523604
C        7.42424971       4.26132962       3.71199856       0.00000000       0.00355619       0.00000556       0.00086798
C        6.18744934       6.40016438       3.53309500       0.00000000      -0.00351313       0.00362696       0.01393028
C        4.95023733       8.54509798       3.52062875       0.00000000      -0.00341909      -0.00897250       0.00332868
C        0.02227456       1.42928536       3.74989467       0.00000000      -0.00511800       0.00338559       0.00534021
C       -1.16428085       3.58433688       3.79610246       0.00000000       0.00676474      -0.00334388       0.00907259
C       -2.43717810       5.68922568       3.75804865       0.00000000      -0.00598266      -0.00768400       0.00387752
C       -3.68943804       7.82177144       3.69259091       0.00000000       0.00366245       0.00921206       0.00758794
C       -4.92472104       9.96134863       3.68895445       0.00000000       0.00544404       0.00182681      -0.00272289
C        2.48363450       1.41061975       3.74338863       0.00000000       0.00723417      -0.00312597       0.00507600
C        1.28838531       3.53585249       3.81707014       0.00000000      -0.00321580      -0.00155576      -0.00283302
C        0.02122189       5.73169039       3.82947369       0.00000000      -0.00169969       0.00372221      -0.00833479
C       -1.22118688       7.82920864       3.75486660       0.00000000       0.00608282       0.00256681       0.00169990
C       -2.45212061       9.96196678       3.73697370       0.00000000      -0.00608274      -0.00277821      -0.00139852
C        4.95881289       1.41427597       3.74019023       0.00000000       0.00700254      -0.00603348       0.00357561
C        3.71122284       3.50834062       3.69372654       0.00000000      -0.00714753       0.00117334      -0.00299584
C        1.21055486       7.84213097       3.70163986       0.00000000      -0.00182539      -0.00412388      -0.00360251
C        0.01989561       9.96982964       3.74575619       0.00000000      -0.00910165       0.00932101       0.00387855
C        7.42679607       1.42118206       3.76595291       0.00000000      -0.00056296      -0.00100139      -0.00858107
C        6.17583036       3.54784690       3.69594621       0.00000000      -0.00110399       0.00054977       0.01015880
C        4.96014608       5.66733193       3.41268115       0.00000000      -0.00682997       0.00871435      -0.00818790
C        3.70413643       7.85677012       3.37633132       0.00000000      -0.00932827      -0.00904377      -0.01382165
C        2.47553662       9.95838745       3.69787016       0.00000000       0.00419761      -0.00139266      -0.00692594
C        9.89662904       1.42838882       3.75722999       0.00000000      -0.00582040       0.00885189       0.00703635
C        8.66702590       3.55736070       3.75951361       0.00000000       0.00636627      -0.00268553       0.00618428
C        7.42084470       5.68574293       3.66379999       0.00000000       0.00000644       0.00190848       0.00040777
C        6.17434518       7.82098698       3.53886376       0.00000000      -0.00351813       0.00240900       0.00560416
C        4.94841098       9.97004139       3.65435915       0.00000000       0.01097372      -0.00288395       0.00811109
Ag       3.61074066       6.31350846       5.20976138       0.00000000      -0.00692650      -0.01267306       0.00936190
O        2.61267176       6.07850364       8.09208068       1.00000000      -0.00090148      -0.00050990      -0.00990218
O        2.21504096       5.99178755       6.89907565       1.00000000       0.00010242      -0.01078296       0.00281674
