49
Lattice="12.336457 0.0 0.0 -6.168228499999997 10.683685154694365 0.0 0.0 0.0 15.0" Properties=species:S:1:pos:R:3:forces:R:3 energy=-422.7353780662613 free_energy=-422.7353780662613 stress="-0.0020755128325495318 0.001371456245475016 1.2683297038173079e-05 0.001371456245475016 -0.005929338812035692 -2.227343767511481e-05 1.2683297038173079e-05 -2.227343767511481e-05 1.11604674243884e-06" pbc="T T T"
C       -0.00530318      -0.01755688       3.63937786       0.00546395      -0.00461445      -0.00239893
C       -1.21460978       2.15441556       3.63735096      -0.00180825      -0.00540836       0.00037435
C       -2.44259866       4.28008351       3.77894779      -0.00269400      -0.00176494       0.00645355
C       -3.69586952       6.40393980       3.77157368      -0.00270405       0.00918913      -0.01160044
C       -4.94329875       8.52677414       3.66179463      -0.00827571       0.00424134      -0.00095092
C        2.45992036      -0.06061091       3.85038952      -0.00491531       0.00017435      -0.00064741
C        1.26701001       2.06196667       3.53585496      -0.00635258      -0.00453588       0.00167839
C        0.01202387       4.37265436       3.59857109       0.00729811      -0.00692263      -0.00324702
C       -1.23878755       6.43074355       3.88158457      -0.00171722      -0.00816105      -0.00741229
C       -2.46796167       8.53102032       3.89496223       0.00085158       0.00351170      -0.00402007
C        4.93834907      -0.01453562       3.98405239      -0.00280625      -0.00336623      -0.00331884
C        3.67611791       2.04781872       4.05592160       0.00546299       0.00009717       0.00574334
O        1.16119066       6.47887948       3.80011826      -0.00541151       0.00893640       0.01584093
C       -0.00121218       8.54827691       3.87228102      -0.00199005       0.00531130      -0.00291978
C        7.40817522      -0.00087620       3.87338728       0.00337159       0.00348878      -0.00098375
C        6.17684445       2.13876060       3.96611817       0.00500923       0.00274306      -0.00308620
C        4.98729024       4.32064771       3.69469399      -0.00854471      -0.00248786      -0.00026405
P        3.64855480       6.34824752       2.41552026      -0.00339136      -0.01099634       0.00811603
C        2.43612606       8.53626053       3.58427128       0.00579226      -0.00739851      -0.00606360
C        9.86729056       0.00141242       3.68220015       0.00386981      -0.00004683      -0.00730462
C        8.64939389       2.13881493       3.81618125       0.00200235       0.00631852       0.00261491
C        7.42260650       4.27054152       3.77189916       0.00299218      -0.00208341      -0.00398474
C        6.20755386       6.41412325       3.44532758       0.00287501      -0.00037715       0.00167274
C        4.91958550       8.54067918       3.43613285      -0.00016310      -0.00064045       0.00579784
C        0.00829957       1.41629698       3.59345793      -0.00280600      -0.00892609      -0.00613169
C       -1.19321446       3.59296282       3.67772167      -0.00055782      -0.00322529       0.00136959
C       -2.46228572       5.69599744       3.83182443      -0.00761965      -0.00178043      -0.00217210
C       -3.70648729       7.82348925       3.78220079      -0.00529671       0.01253526      -0.00573070
C       -4.94575529       9.94074548       3.71449961      -0.00135927      -0.00046109       0.00555076
C        2.46324699       1.34744077       3.83334426       0.00029700      -0.00055371      -0.00859497
P        1.52976306       3.69871862       2.93186262       0.01052552      -0.00859239       0.00714209
C       -0.02989335       5.76249410       3.76929735       0.00074718      -0.00329100       0.00820875
C       -1.23929872       7.84197108       3.91290314       0.00110995      -0.00358907      -0.00802815
C       -2.46508114       9.94739616       3.93064372      -0.00522063       0.00139541      -0.00218133
C        4.93710062       1.41293648       4.03105750       0.00525328      -0.00557145      -0.00004937
P        3.43368259       3.76477241       4.28239560      -0.00301888       0.01192857       0.01096134
C        1.19280272       7.85545585       3.72288306      -0.00057371       0.00675447       0.00431624
C        0.00736561       9.97425842       3.92054503       0.00018181       0.00326709       0.00554038
C        7.40889704       1.43060524       3.90226347       0.00543749       0.00701978      -0.00278603
C        6.18220126       3.56235120       3.83561554       0.00010186       0.00286016      -0.00445125
C        5.00728925       5.67894677       3.29012537      -0.00061838       0.01884014       0.00124231
C        3.67006756       7.87260013       3.27954860       0.00748959      -0.01137684       0.00138132
C        2.45841837       9.96284945       3.73309461       0.00374807      -0.00485626      -0.00235621
C        9.88533242       1.43397783       3.72172288      -0.00229880       0.00128335       0.00123992
C        8.65514319       3.56210733       3.80274513       0.00104345       0.00071512      -0.00046534
C        7.42064634       5.69305974       3.66547472       0.00446253      -0.00319901       0.00141464
C        6.16913339       7.82937134       3.46995692      -0.00364228      -0.00061047      -0.00387100
C        4.92816452       9.96730421       3.59371372       0.00602425      -0.00062956       0.00292096
Ag       2.33346314       4.65795895       6.07730932      -0.00762480       0.00485565       0.00544041
