51
Lattice="12.336457 0.0 0.0 -6.168228499999997 10.683685154694365 0.0 0.0 0.0 15.0" Properties=species:S:1:pos:R:3:initial_magmoms:R:1:forces:R:3 energy=-435.8054233573954 free_energy=-435.8054233573954 stress="0.0006890084585059145 -0.002201803517195994 2.1022004435284225e-05 -0.002201803517195994 0.004925234268999879 -2.1088945990079902e-05 2.1022004435284225e-05 -2.1088945990079902e-05 3.991723115622099e-05" pbc="T T T"
C        0.02674974       0.00204196       3.74641257       0.00000000       0.00029179       0.00198335      -0.01305142
C       -1.22123023       2.13081904       3.77247845       0.00000000       0.00310462       0.00429078       0.00344139
C       -2.44446227       4.26509192       3.79294692       0.00000000      -0.00452717       0.00640392      -0.00063572
C       -3.66415934       6.40372297       3.78079074       0.00000000       0.00549155      -0.00294953       0.00765837
C       -4.90039304       8.55234781       3.76197789       0.00000000       0.00470173      -0.00461524      -0.00510608
C        2.48691704       0.01908396       3.69838727       0.00000000      -0.00362765       0.00288057      -0.00209966
C        1.22080544       2.14728196       3.68929399       0.00000000       0.00448258       0.00224796       0.00829165
C       -0.00488171       4.26731295       3.83542156       0.00000000      -0.00026643      -0.00855048       0.00186920
C       -1.18966041       6.38097972       3.82351032       0.00000000       0.00407138      -0.00533362      -0.00587269
C       -2.42387412       8.53569461       3.76603717       0.00000000      -0.00923336       0.00014484       0.00667353
C        4.96791520      -0.01593320       3.65560216       0.00000000       0.00402394       0.00021251      -0.00576430
C        3.71681852       2.10179555       3.36001510       0.00000000      -0.00778707      -0.00091264      -0.00934534
O        1.20731812       6.39169727       3.88070354       0.00000000       0.00320386      -0.00355410      -0.00094477
C        0.04888007       8.50067853       3.76152092       0.00000000       0.00380873      -0.00037892      -0.00770562
C        7.43443132      -0.03662939       3.70031057       0.00000000       0.00298804       0.00157123      -0.01061746
C        6.18912331       2.13541973       3.58802107       0.00000000      -0.00306287      -0.00847706      -0.00988646
C        4.96203441       4.33780150       3.50449989       0.00000000       0.00184944      -0.00272574       0.00391920
O        3.81913757       6.45285027       3.50022284       0.00000000      -0.01528872      -0.00765721       0.00547602
C        2.49825421       8.45148764       3.72115982       0.00000000       0.00559358       0.00410638       0.00379211
C        9.88283349      -0.03239606       3.73601102       0.00000000      -0.00790259      -0.00303953       0.00700051
C        8.65120353       2.12045415       3.72772860       0.00000000      -0.00104812       0.00019198       0.00716004
C        7.42021456       4.26777516       3.70422452       0.00000000       0.00129346       0.00642286      -0.00222090
C        6.21667534       6.43368832       3.68695687       0.00000000       0.00513536       0.01012488       0.00173588
C        4.96256540       8.53566378       3.71553545       0.00000000      -0.00042997       0.00018605      -0.00760454
C        0.02048467       1.43619005       3.74238495       0.00000000       0.00559169       0.00675478      -0.00209605
C       -1.20793331       3.56069005       3.80288294       0.00000000      -0.00679453       0.00404615       0.00258281
C       -2.43017508       5.68020459       3.80604365       0.00000000       0.00212159       0.00033053      -0.00358230
C       -3.66337702       7.83172701       3.77700607       0.00000000      -0.00258070      -0.00475438      -0.00243564
C       -4.90483750       9.98461849       3.74792484       0.00000000      -0.00038222      -0.00258427       0.00449636
C        2.46149848       1.44835536       3.58651475       0.00000000       0.00145883       0.00436446       0.01428917
O        1.17671012       3.53037059       3.84936351       0.00000000       0.00341166      -0.00014263      -0.00447494
C        0.01983613       5.67651033       3.84994025       0.00000000       0.00508371      -0.01045351       0.00870539
C       -1.19485062       7.80827364       3.79009225       0.00000000      -0.00270365      -0.00025732      -0.00203741
C       -2.43939901       9.96979747       3.70731640       0.00000000      -0.00238688       0.00390328       0.00383422
C        4.95907061       1.41318261       3.53228886       0.00000000      -0.00464337      -0.00332567       0.00104302
P        3.67113823       3.65088368       2.54713823       0.00000000       0.00150414      -0.00182703       0.00352433
C        1.24363625       7.77042577       3.78055908       0.00000000       0.00652902      -0.00129276      -0.00618139
C        0.03691601       9.94110765       3.70346448       0.00000000       0.00726977       0.00172697       0.01472893
C        7.42140552       1.40678248       3.67595841       0.00000000       0.00006652      -0.00235636      -0.00943892
C        6.19008746       3.56601191       3.59712770       0.00000000       0.00343728      -0.00296196      -0.00009326
C        5.01367030       5.77115545       3.53766542       0.00000000       0.00410976       0.00380088       0.00393437
C        3.76989737       7.82024239       3.65851131       0.00000000      -0.00301620      -0.00259372       0.00969364
C        2.49182602       9.90405911       3.72165209       0.00000000      -0.00552952       0.00021795       0.00552199
C        9.89026415       1.41092541       3.75202547       0.00000000      -0.00153119      -0.00363906      -0.00609071
C        8.65399815       3.54813044       3.74596688       0.00000000      -0.00386172       0.00385498       0.00338630
C        7.44302905       5.69365943       3.73371884       0.00000000       0.00844970       0.00567623       0.00193385
C        6.21303343       7.84931222       3.72811411       0.00000000       0.00577744       0.00596047      -0.00012516
C        4.95670915       9.96472599       3.74280690       0.00000000      -0.00291523      -0.00168578      -0.00103933
Ag       3.31179750       4.32874912       5.04298560       0.00000000      -0.00261912      -0.00920600       0.00829748
O        2.46284974       4.32362813       7.91109348       1.00000000      -0.00403661       0.00834781      -0.00903898
O        2.00069887       4.56432844       6.75461523       1.00000000      -0.00867624       0.00552273      -0.01550072
