50
Lattice="12.336457 0.0 0.0 -6.168228499999997 10.683685154694365 0.0 0.0 0.0 15.0" Properties=species:S:1:pos:R:3:forces:R:3 energy=-437.82627626993735 free_energy=-437.82627626993735 stress="0.0015041573464473126 0.0019439546863927388 2.040261985933504e-06 0.0019439546863927388 -0.0007264801691042529 -9.599756436414241e-07 2.040261985933504e-06 -9.599756436414241e-07 5.203170681474076e-06" pbc="T T T"
C       -0.02520182      -0.00927811       3.76311877       0.00432353      -0.00001057      -0.00695077
C       -1.23896731       2.14488616       3.82594461       0.00658566      -0.00252980       0.00721626
C       -2.46174172       4.26292277       3.82801908       0.00154163       0.00315088       0.00163564
C       -3.72023712       6.39099769       3.76357716       0.00137805       0.00055326      -0.00549797
C       -4.96899277       8.52570756       3.70526010      -0.00446718      -0.00584339      -0.00559585
C        2.43809892      -0.01390556       3.77651550       0.00498872       0.00564168      -0.00107449
C        1.22181384       2.13617597       3.82031298      -0.00174653       0.00044157      -0.00014481
C        0.05320724       4.30266485       3.86798443      -0.00150225      -0.00133208       0.00042699
C       -1.23835953       6.39781182       3.81839723      -0.00148016      -0.00077447      -0.00173620
C       -2.49234540       8.52592266       3.77425627       0.00755550       0.00441280      -0.00288984
C        4.90941156      -0.01652050       3.77913811       0.00182522       0.00304936      -0.00594989
C        3.67314392       2.11335295       3.76734469       0.00065428      -0.00252071      -0.00086249
O        2.47179952       4.16329315       3.89572413      -0.00509325      -0.00768412      -0.00118903
O        1.14225338       6.46697706       3.89265477      -0.00885906       0.00002333      -0.00350788
C       -0.03235699       8.53183421       3.75904943      -0.00246264       0.00234806       0.00695522
C        7.37542307      -0.01210653       3.77663077      -0.00604785       0.00075236       0.00850551
C        6.14586846       2.11711511       3.77972119      -0.00074318      -0.00458918       0.00674308
C        4.88683720       4.22598519       3.62437225      -0.00189892       0.00134236       0.00021998
S        3.69632162       6.40441453       2.39775644       0.00439953       0.00527913       0.00562582
C        2.40423022       8.52681969       3.61942204      -0.00190169      -0.00328730       0.00232943
C        9.84338730      -0.00704643       3.75796350      -0.00157557      -0.00400318       0.00426946
C        8.62097662       2.12690291       3.81553781       0.00858283       0.00395506      -0.01079575
C        7.38409945       4.25234954       3.76035546      -0.00437825       0.00033434       0.00336828
C        6.14410639       6.39044219       3.58188587      -0.00079373      -0.00381177      -0.00591210
C        4.90691230       8.53349387       3.58019166      -0.00466972       0.00133816      -0.00271325
C       -0.02010536       1.42091980       3.80850005       0.00397782      -0.00224280       0.00516539
C       -1.20594631       3.57593659       3.84656886       0.00047583      -0.00189304       0.00065463
C       -2.47908580       5.68037998       3.81020399      -0.00020996       0.00231853      -0.00234072
C       -3.73145059       7.81391463       3.74776502       0.00353873       0.00114014       0.00509426
C       -4.96663210       9.95324992       3.74884376       0.00413408      -0.00067644       0.00085155
C        2.44240086       1.40196532       3.79236675      -0.00159917       0.00380345      -0.00787203
C        1.24585476       3.52727469       3.86091440       0.00300408       0.00260601      -0.00103851
C       -0.02150024       5.72321453       3.85855860       0.00182293       0.00034066       0.00300683
C       -1.26385160       7.82174265       3.78703461       0.00148742      -0.00049379      -0.00465793
C       -2.49486522       9.95361875       3.77505590       0.00707710       0.00637006       0.00307086
C        4.91673620       1.40595693       3.77196412       0.00001788      -0.00195634       0.00782422
C        3.67191332       3.50071132       3.73211134      -0.00536428      -0.00107667      -0.00299480
C        1.16860219       7.83719431       3.72531054      -0.00454559      -0.00501904      -0.00051055
C       -0.02313192       9.96249840       3.76759787      -0.00401145       0.00136255       0.00709965
C        7.38439359       1.41270166       3.79902228       0.00348193       0.00238509       0.00002586
C        6.13601575       3.53922826       3.73617049      -0.00488212      -0.00334506       0.00439010
C        4.92302357       5.65882813       3.42524830       0.00060524       0.00365367       0.00262684
C        3.66323693       7.84148659       3.42294786       0.00124699      -0.00269063      -0.00030280
C        2.43383377       9.95209347       3.73260117      -0.00693627      -0.00397226       0.00169180
C        9.85440526       1.42079444       3.80966110       0.00841262      -0.00218446      -0.00439777
C        8.62616026       3.54822892       3.81113798       0.00243459       0.00563485      -0.00202637
C        7.38008970       5.67679484       3.71783392       0.00036915      -0.00186221       0.00348628
C        6.13197649       7.81215547       3.60051360      -0.00803614      -0.00503138      -0.00902408
C        4.90663609       9.96084532       3.71638010       0.00022348       0.00138973       0.00031793
Ag       3.49988125       6.29175829       5.17521240      -0.00093987       0.00520358      -0.00261600
