52
Lattice="12.336457 0.0 0.0 -6.168228499999997 10.683685154694365 0.0 0.0 0.0 15.0" Properties=species:S:1:pos:R:3:forces:R:3 energy=-437.26357724468835 free_energy=-437.26357724468835 stress="-0.0019132431128321347 0.001702728019487288 1.6813136648749553e-05 0.001702728019487288 -0.005600285627269711 -7.139439327660141e-07 1.6813136648749553e-05 -7.139439327660141e-07 -3.972660451019003e-05" pbc="T T T"
C       -0.00776384      -0.02141481       3.61730613      -0.00662245       0.00352115       0.00127641
C       -1.21850859       2.14906956       3.62150340       0.00364918       0.01153665      -0.00959843
C       -2.44900175       4.27451713       3.75385175       0.00169099       0.00244751       0.00377924
C       -3.70211468       6.39916748       3.74678168      -0.00000388      -0.00289609      -0.00688910
C       -4.94789979       8.52287433       3.63555355       0.00537019      -0.00282456      -0.00022072
C        2.45833705      -0.06324703       3.82116090      -0.00919770       0.00197344       0.00152779
C        1.26220884       2.06434928       3.56089695       0.00882409      -0.00731780       0.00026382
C        0.00471516       4.36779806       3.59675349       0.00759663       0.00480646      -0.00397550
C       -1.24656423       6.42531388       3.85952464      -0.00957253      -0.00013173      -0.00645174
C       -2.47172195       8.52654861       3.86108789      -0.01348238       0.00227245       0.00143169
C        4.93372190      -0.01877110       3.96260543       0.00140758      -0.00115425       0.00858862
C        3.67391721       2.04547353       4.07380472       0.00359565      -0.00179198       0.00666955
O        1.15580499       6.47159369       3.75419292       0.01151625      -0.01214744       0.00789791
C       -0.00658575       8.54334869       3.85656907      -0.00180898       0.00005713      -0.00220048
C        7.40388951      -0.00641306       3.86001283       0.00903355       0.00532342      -0.01462740
C        6.17492182       2.13091965       3.96818806      -0.00248735       0.00584737       0.01130084
C        4.97792520       4.31305341       3.77525273      -0.00530520      -0.01350818       0.00207008
P        3.63441676       6.31263299       2.47679124       0.00169101      -0.00069635      -0.01256264
C        2.43155492       8.53222249       3.57620166      -0.00342165       0.00118988       0.00296008
C        9.86371600      -0.00256733       3.66078238       0.00088406      -0.01002907       0.00968813
C        8.64471368       2.13385051       3.79541169       0.00456905      -0.00429084      -0.00234517
C        7.41593342       4.26398892       3.76560288       0.00451238       0.00928555       0.01393155
C        6.19592793       6.40662342       3.47043791      -0.00084441      -0.00014792      -0.00788823
C        4.91393936       8.53391897       3.43613875       0.00031507       0.00331374      -0.01166522
C        0.00534098       1.41319962       3.58536085       0.00168225       0.00625308      -0.00784775
C       -1.19761643       3.58785210       3.66072333       0.00610971       0.01170722       0.00245658
C       -2.46886672       5.69023380       3.80523436      -0.00826635       0.00039164      -0.00023783
C       -3.71098482       7.81935750       3.74998338      -0.00194395      -0.00879096       0.00358042
C       -4.94766153       9.93776184       3.68393480      -0.01043547      -0.00043580       0.00802096
C        2.46318653       1.34575321       3.83413301       0.00524287      -0.00071803       0.00639223
P        1.54407308       3.70195869       2.98261352      -0.00497044      -0.00697280       0.00441370
C       -0.03671492       5.75987679       3.75361843      -0.00311003       0.00209597      -0.00521848
C       -1.24457256       7.83632320       3.88943840      -0.01268059       0.00162122      -0.01277442
C       -2.46831908       9.94299676       3.89855132      -0.00885749       0.00498978      -0.00458227
C        4.93234751       1.40854389       4.02899702       0.00028640       0.00103485       0.00546964
P        3.42999211       3.75758574       4.42965471       0.00769701      -0.00271475      -0.00276971
C        1.18720161       7.85135955       3.70479366      -0.00058653      -0.00585592      -0.00074745
C        0.00250136       9.96935175       3.90551675       0.00933784       0.00734904      -0.01100371
C        7.40520421       1.42481808       3.88947291      -0.00219421       0.00419652      -0.00428124
C        6.17625385       3.55601456       3.85811260       0.00164232       0.00254292       0.00741121
C        4.98845033       5.67022360       3.37112744      -0.00318097      -0.00917153       0.00435041
C        3.66549960       7.86237223       3.29253842      -0.00265154       0.00007509      -0.00097159
C        2.45450251       9.95883586       3.71819662       0.00247336      -0.00070019      -0.00669262
C        9.88076306       1.42977823       3.69877581       0.00729630      -0.00942583       0.00441550
C        8.64908313       3.55658113       3.77926789       0.00438197       0.00166404       0.01462459
C        7.41334514       5.68669837       3.66242103       0.00310749       0.00749637      -0.00732326
C        6.16203004       7.82221327       3.46916700       0.00390842       0.00420725      -0.00643198
C        4.92490535       9.96312696       3.57538120      -0.00167097      -0.00178485       0.00368822
Ag       2.72697447       4.55062111       6.43979745       0.00019608      -0.00447846       0.00056014
O        2.16784340       5.31362187       8.28005900       0.00402083      -0.00256601       0.01206822
O        2.45608345       4.22677973       9.17388611       0.00171201       0.00501422       0.00211664
H        2.98466304       4.70533165       9.84224956      -0.01045548      -0.00166263      -0.00164723
