49
Lattice="12.336457 0.0 0.0 -6.168228499999997 10.683685154694365 0.0 0.0 0.0 15.0" Properties=species:S:1:pos:R:3:forces:R:3 energy=-419.532626519289 free_energy=-419.532626519289 stress="-0.006373790640077039 0.00038257021238726553 1.602016284401323e-05 0.00038257021238726553 -0.0053966678709764845 3.0749148742466576e-06 1.602016284401323e-05 3.0749148742466576e-06 7.1325177102084785e-06" pbc="T T T"
C       -0.00345642      -0.01390088       3.85426668      -0.00256013      -0.00267724      -0.00224450
C       -1.22584665       2.14552190       3.95199039      -0.00786052       0.00017024      -0.00713062
C       -2.46865021       4.27814251       3.77013750       0.00125061       0.00660419       0.01439277
C       -3.69868208       6.41396233       3.66299415       0.00220804       0.01540122       0.00176947
C       -4.94368167       8.53778123       3.64165658       0.00405347      -0.00501551      -0.00634417
C        2.46914197      -0.06381439       3.97362917       0.00328531       0.00405168       0.00723310
C        1.23937770       2.03227536       4.30077091      -0.00503454       0.01388808      -0.00057618
C       -0.03445994       4.34290775       3.70474507       0.01350406      -0.01131721      -0.00305934
C       -1.26899626       6.42988329       3.42568492      -0.00264430       0.00242136       0.00046698
C       -2.45730468       8.53971365       3.63587499      -0.00602563      -0.00874352      -0.00405234
C        4.94433285      -0.01701948       3.88977766      -0.00014126      -0.00221497      -0.00658367
C        3.70208541       2.02061926       4.35744827      -0.00083879       0.00330247       0.00686309
S        1.10086170       6.40724374       2.24299132       0.00317117      -0.00171249      -0.00261341
C       -0.00378082       8.57646691       3.37508625       0.00270696      -0.00269193      -0.00427279
C        7.40344010       0.01661454       3.72206719       0.00516092       0.00086589       0.00472378
C        6.17382316       2.13823138       4.02732514       0.00923705      -0.00374772      -0.00845346
C        4.98716583       4.33539338       3.85729893      -0.00915976      -0.00362415       0.01084522
S        3.76766211       6.33574141       2.44054033      -0.00976709      -0.00463897      -0.00389369
C        2.46465128       8.61908068       3.18472603       0.00298217       0.00884302       0.00222040
C        9.87398218       0.01718721       3.70341140      -0.01166978       0.00451079       0.00909794
C        8.64065352       2.14323181       3.87654550       0.00295326      -0.00427327      -0.00429014
C        7.41457698       4.27694286       3.82475479       0.00832429       0.00435131       0.00648792
C        6.20317599       6.42484109       3.49943338       0.00446888       0.00213934       0.00493750
C        4.93631158       8.56850527       3.39809632      -0.00347388      -0.00527870      -0.00509518
C       -0.00649637       1.40318660       4.04798691      -0.00364541       0.00673533      -0.01232269
C       -1.23653181       3.57162846       3.84067299       0.00024369      -0.00233603      -0.00635917
C       -2.47787676       5.69997534       3.64766832      -0.00273201       0.01195954       0.00326515
C       -3.70039430       7.83158466       3.63949397      -0.00163149       0.00302816      -0.00431760
C       -4.94190219       9.94803164       3.81644505       0.00514389      -0.00688785       0.00455506
C        2.46983213       1.32106931       4.24678904      -0.00380714       0.01314046      -0.00769762
P        1.36344793       3.75403731       4.54951270      -0.00020938      -0.00343671       0.00537343
C       -0.10406764       5.68394519       3.22881349      -0.00037454      -0.00809148       0.00642472
C       -1.23658060       7.84910761       3.43512873      -0.00355219      -0.00026193      -0.00774304
C       -2.45600929       9.94763003       3.83044922      -0.00035485      -0.00897167       0.00288862
C        4.95128486       1.39588763       4.11303523       0.00084702       0.00484867      -0.01310418
P        3.57127620       3.73339066       4.65678494      -0.00227184      -0.01260000       0.00665630
C        1.21240956       7.95795340       3.01432564       0.00892156       0.00140573       0.00398852
C        0.00331228       9.98422772       3.67110818       0.00543173      -0.00152385      -0.00074801
C        7.40270635       1.43442112       3.89327219       0.01174555      -0.00474562       0.00497428
C        6.18743492       3.56597123       3.94335830       0.00442214      -0.00171205      -0.00046839
C        5.03405740       5.67235135       3.37650888       0.00023976      -0.00429167       0.00424991
C        3.71331184       7.94475298       3.06810078      -0.00574907      -0.00600852       0.00597682
C        2.46886605      10.00812173       3.55187083      -0.00219929       0.00734512      -0.00115624
C        9.87872560       1.43726038       3.85796225      -0.00725375       0.00128943       0.00389783
C        8.64161217       3.56480112       3.84665401       0.00591152      -0.00272087       0.00852140
C        7.41853552       5.69802508       3.69088313       0.00761679       0.01072094       0.00400220
C        6.16869729       7.84285802       3.46947069       0.00329270      -0.00075988      -0.01329705
C        4.93585953       9.98392796       3.65272216      -0.01249350       0.00023231      -0.00055696
Ag       2.39949904       4.43884976       6.54444906      -0.01167239      -0.00697147      -0.00743200
