52
Lattice="12.336457 0.0 0.0 -6.168228499999997 10.683685154694365 0.0 0.0 0.0 15.0" Properties=species:S:1:pos:R:3:forces:R:3 energy=-433.94349276378534 free_energy=-433.94349276378534 stress="-0.002938458019413424 7.277471850416759e-05 0.00011188920774425992 7.277471850416759e-05 -0.010492082008762057 1.2308717145371784e-06 0.00011188920774425992 1.2308717145371784e-06 4.049780039209998e-06" pbc="T T T"
C        0.00301106      -0.02496782       3.60293779       0.00484838      -0.00133565       0.00046375
C       -1.22353095       2.13335025       3.50030762      -0.00077252      -0.00399126       0.00334386
C       -2.46896425       4.26608864       3.62105621       0.00176335      -0.00536096      -0.00003535
C       -3.69727415       6.39403064       3.66905837      -0.00265819       0.00392703      -0.00645035
C       -4.94354818       8.50935368       3.61361592       0.00237558       0.00351198       0.00625187
C        2.46401187      -0.07305037       3.81349649      -0.00176985      -0.00131249       0.01160359
C        1.26276731       2.02966684       3.48821158      -0.00016372      -0.00746416      -0.00175707
C       -0.04616060       4.30405540       3.45658931      -0.01197260       0.00489796      -0.00209139
C       -1.24096565       6.39297971       3.89762366       0.00473586       0.00533709      -0.00405514
C       -2.46055958       8.50935974       3.89434540      -0.00090041       0.01097813      -0.00278216
C        4.93387128      -0.02389030       3.98364048       0.00058911      -0.00503715       0.00851935
C        3.66800057       2.05512967       4.03222822       0.00425121       0.00141707       0.00943543
P        1.44885790       6.24312912       4.61578477      -0.00758668      -0.01552354      -0.00240957
C        0.01134430       8.54192972       4.06483752      -0.00378991       0.00222044      -0.00109081
C        7.39904498       0.02165139       3.91447594       0.00065423       0.00028948       0.00550458
C        6.16201711       2.13918538       3.91183406       0.00161380      -0.01024472       0.00735465
C        4.96746300       4.29983981       3.66377634       0.00451559       0.00401015       0.00586983
S        3.48110049       6.34949099       2.77506834       0.00867420      -0.01442953      -0.00126295
C        2.47772077       8.60536474       3.82749706       0.00591644       0.00042081       0.00073581
C        9.87765585       0.01928889       3.67860007       0.00167456       0.00259823      -0.01025745
C        8.63611608       2.14089086       3.71111849       0.00255144      -0.00026830       0.00191510
C        7.40570519       4.26747505       3.64616421      -0.00134966      -0.00985696      -0.00445791
C        6.17920389       6.40333664       3.38649188      -0.00974132       0.00689890       0.00250975
C        4.92813814       8.54451046       3.48970726       0.00572626       0.00626100      -0.00193124
C        0.00880756       1.40567037       3.52126741      -0.00306167      -0.00124678      -0.00162779
C       -1.23412830       3.55016912       3.49731530      -0.00301586      -0.00408836      -0.00628635
C       -2.46795461       5.68388422       3.73011827       0.00362459      -0.00025438      -0.00670262
C       -3.69892703       7.80854617       3.72534580       0.00133628       0.01136276      -0.00310019
C       -4.94112216       9.92854457       3.67634279       0.00096855       0.00053933      -0.01031225
C        2.46084386       1.34197720       3.80917368       0.00522429      -0.00067795       0.00066884
S        1.44710543       3.63605546       2.86987887       0.01368305       0.00738383      -0.00136473
C       -0.03350547       5.64256842       3.87874328       0.00830583       0.00601225      -0.00562935
C       -1.22641569       7.81201012       4.00173058      -0.00673372       0.00255400      -0.00018231
C       -2.46162879       9.92715793       3.91932872      -0.00238319       0.00519018      -0.00183600
C        4.92653859       1.41004405       4.00094523       0.00419417      -0.01006769       0.00084141
P        3.49988110       3.73511369       4.46785907       0.00107790       0.00132231       0.00989852
C        1.27369384       7.89726196       4.09882572      -0.00210450       0.00395850      -0.00106588
C        0.00381789       9.97356335       3.99835485       0.00061595      -0.00035815      -0.00713656
C        7.39648904       1.43911119       3.85415195       0.00169589      -0.00034788      -0.00325952
C        6.17366402       3.55473131       3.75236089      -0.00162369      -0.00689639       0.00674370
C        4.99340584       5.65139428       3.28377882      -0.00544793       0.00436664      -0.00302185
C        3.67051144       7.92270130       3.46024326       0.00859423      -0.00136178       0.00208037
C        2.47354889      10.01961935       3.81970103       0.00280624       0.00506459       0.00181463
C        9.88115321       1.43960465       3.62923574       0.00072825      -0.00159745      -0.00018634
C        8.63553873       3.55671444       3.65878073       0.00293271      -0.00549766      -0.00915475
C        7.41028473       5.68601380       3.55071363      -0.00756768      -0.00213867       0.00347779
C        6.16248560       7.81904332       3.44774571       0.00182731       0.00479297       0.00566422
C        4.93337860       9.97280045       3.59778005       0.00863427       0.00291612       0.00590372
Ag       2.67281080       5.08830271       6.26288426      -0.01168750       0.00045147       0.00204047
O        3.28177678       5.05750793       8.24600516      -0.01534550       0.00258264       0.00686577
O        2.07708894       4.99464032       9.01296867       0.00164490      -0.00331304      -0.00686975
H        2.45318398       5.03273604       9.91592992      -0.01810834       0.00140508      -0.00318940
