50
Lattice="12.336457 0.0 0.0 -6.168228499999997 10.683685154694365 0.0 0.0 0.0 15.0" Properties=species:S:1:pos:R:3:forces:R:3 energy=-423.42975388114223 free_energy=-423.42975388114223 stress="-0.0031018905214314206 0.00023409998858436482 -2.859495781053417e-06 0.00023409998858436482 -0.010681078231279754 2.322081567814356e-06 -2.859495781053417e-06 2.322081567814356e-06 -2.202580966212315e-05" pbc="T T T"
C        0.00159498      -0.01536709       3.59205205       0.00481849      -0.00297987      -0.00185020
C       -1.22583465       2.13985859       3.45353465       0.01363327       0.00634851      -0.00650107
C       -2.47149498       4.27294306       3.54842193      -0.00140762       0.00835613      -0.00561312
C       -3.69967405       6.40231464       3.63313782       0.00194546      -0.00488329      -0.00677933
C       -4.94530967       8.51807531       3.60917525      -0.01341852      -0.00383862      -0.00345009
C        2.46116835      -0.06449453       3.80761786       0.00777672       0.01112270       0.00155030
C        1.26377112       2.03581532       3.45317762       0.00014744      -0.00111707      -0.00669856
C       -0.05213829       4.30924338       3.31606376       0.00076368       0.00199449       0.01347218
C       -1.23883421       6.40360312       3.77688786       0.00047616       0.00102252       0.00846666
C       -2.46182237       8.51813747       3.85602919      -0.00095039      -0.00053959      -0.00574335
C        4.93185532      -0.01653177       3.97989587       0.00312769       0.00654958      -0.00639776
C        3.66538402       2.05950892       4.04337083       0.00090935       0.00083312       0.00613735
P        1.43180845       6.23784074       4.50750314      -0.01441720       0.00641944      -0.00180111
C        0.00847343       8.55069096       4.00884074       0.00008874      -0.00568079       0.00305568
C        7.39855286       0.03158744       3.90902398      -0.00744821      -0.00643452      -0.00801639
C        6.16119247       2.14678028       3.93464525       0.00060295       0.00218189       0.00379170
C        4.96645486       4.31032785       3.72989774       0.00635361       0.00023224       0.00784632
S        3.48073923       6.34400262       2.79421611       0.00712712       0.00673901       0.01090157
C        2.47608430       8.61699558       3.80049926       0.00042617      -0.00967793       0.00219680
C        9.87761159       0.02958271       3.66870005      -0.00604373      -0.00194141       0.00280500
C        8.63490950       2.14964921       3.70093550       0.00750626       0.00388651      -0.00677564
C        7.40373237       4.27485660       3.65447355      -0.00472318      -0.00408729      -0.00271331
C        6.17231449       6.41048189       3.41268322      -0.00012122      -0.00843186       0.00064989
C        4.92713426       8.55282640       3.49342797      -0.00764382       0.00367653      -0.00612685
C        0.00727430       1.41383677       3.49021063       0.00627403      -0.00382724      -0.00598326
C       -1.23857488       3.55585065       3.40244635       0.00113123       0.00837616       0.00211261
C       -2.46933499       5.69173942       3.64617388       0.00445883       0.00398313      -0.00167971
C       -3.70050124       7.81705034       3.69879162      -0.00771036      -0.00337931      -0.00667965
C       -4.94325466       9.93730859       3.66797557       0.00689609       0.00128794       0.00318158
C        2.45809840       1.34981723       3.80147523      -0.00052453       0.01016020       0.00259007
S        1.45471072       3.61975781       2.78603017      -0.00845622      -0.00576956       0.01177870
C       -0.03179597       5.65678432       3.71122067      -0.00742444       0.00053927       0.01159557
C       -1.22677498       7.81980689       3.92578273       0.00105369      -0.00257941       0.00468398
C       -2.46416212       9.93519324       3.90776101       0.00664445       0.00563169      -0.00822124
C        4.92566457       1.41586478       4.01488336       0.00102027       0.00625282       0.00247166
P        3.50064876       3.72677753       4.51920988       0.01462056      -0.00657043      -0.00270536
C        1.26834308       7.90699096       4.03751586       0.00009687      -0.00063043       0.00669445
C        0.00247846       9.98325680       3.97881501      -0.00524680      -0.00577525      -0.00626247
C        7.39629098       1.44868887       3.86065666       0.00204410      -0.00038785      -0.00619202
C        6.17362238       3.56328921       3.79055077      -0.00124875      -0.00114523       0.00658656
C        4.98572277       5.65685611       3.33160575       0.00005435      -0.00100285       0.01009350
C        3.67095254       7.93066557       3.45609627      -0.00138487       0.00097359      -0.00663369
C        2.47317318      10.03141625       3.80818404      -0.00766558      -0.01122789       0.00098851
C        9.87971080       1.44872711       3.60849872       0.01196530       0.00328034      -0.00368287
C        8.63402306       3.56428632       3.63463597      -0.00165362       0.00551277      -0.00716275
C        7.40554097       5.69352684       3.55502415       0.00244396      -0.00841785      -0.00659896
C        6.16009114       7.82662426       3.45827813      -0.01541706      -0.00667283      -0.00720323
C        4.93269360       9.98223607       3.59288214      -0.00319121       0.00290238      -0.00235086
Ag       2.45734310       4.98384822       6.24684800       0.00210240      -0.00120053       0.00543076
O        2.44998624       4.98480068       8.27511745      -0.00041189      -0.00006404       0.01074141
