52
Lattice="12.336457 0.0 0.0 -6.168228499999997 10.683685154694365 0.0 0.0 0.0 15.0" Properties=species:S:1:pos:R:3:initial_magmoms:R:1:forces:R:3 energy=-443.5362251614874 free_energy=-443.5362251614874 stress="-0.008185124008559171 0.00019893101011156513 1.4300973735808397e-05 0.00019893101011156513 -0.003446495814829372 -1.9916049017010574e-05 1.4300973735808397e-05 -1.9916049017010574e-05 -1.0620190862687478e-06" pbc="T T T"
C       -0.00519120      -0.02895830       3.75323887       0.00000000       0.00193548      -0.00122381       0.00684176
C       -1.24977290       2.09169538       3.83124716       0.00000000       0.00116052       0.00305187      -0.00186545
C       -2.48517057       4.23838695       3.80709096       0.00000000      -0.00762461       0.00299169       0.00154373
C       -3.70451070       6.38494491       3.76089559       0.00000000       0.00476314      -0.00199020       0.00438232
C       -4.94504242       8.51889145       3.67785480       0.00000000       0.00309330       0.00077336      -0.00170808
C        2.46291260      -0.02093128       3.82834216       0.00000000      -0.00057025      -0.00388167      -0.00228665
C        1.22122001       2.11090709       3.91760363       0.00000000       0.00505261      -0.00298063      -0.00047930
C       -0.05482718       4.23311409       3.71000399       0.00000000       0.00168864       0.00004793      -0.00426378
C       -1.26602350       6.38435316       3.56010835       0.00000000       0.00279602       0.00126601       0.00051602
C       -2.46625969       8.51962681       3.67830047       0.00000000      -0.00852444      -0.00097905      -0.00306054
C        4.93228451      -0.03006752       3.76686111       0.00000000       0.00235736      -0.00015409       0.00788125
C        3.70695444       2.10769478       3.93339927       0.00000000      -0.00276927      -0.00096610       0.00651589
P        2.46153543       4.49787199       4.56928742       0.00000000      -0.00116569      -0.00313668      -0.00274880
S        1.09403424       6.31957696       2.35480769       0.00000000      -0.00383393       0.00478234       0.00248876
C       -0.01133507       8.52516616       3.42531525       0.00000000      -0.00149699      -0.00276096      -0.00151234
C        7.39963877      -0.03715222       3.68014146       0.00000000      -0.00161850       0.00707565      -0.00733072
C        6.18019979       2.08850227       3.85598737       0.00000000       0.00021049       0.00374598       0.00002634
C        4.98760126       4.22788706       3.75712996       0.00000000       0.00371771      -0.00859392      -0.00117968
S        3.79088096       6.28663353       2.44741689       0.00000000      -0.01081233      -0.00156121      -0.00385368
C        2.46107934       8.55262447       3.21671983       0.00000000      -0.00049530       0.00023198      -0.00200195
C        9.86489248      -0.03610359       3.67072885       0.00000000      -0.00133245      -0.00438722      -0.00309939
C        8.63330806       2.09409985       3.82761234       0.00000000       0.00082695      -0.00119402       0.00976779
C        7.41668834       4.23761022       3.82537123       0.00000000       0.00073759       0.00337978      -0.00271436
C        6.19217566       6.38256416       3.58144742       0.00000000       0.00331204       0.00054558       0.00435564
C        4.93569136       8.52287674       3.42849475       0.00000000       0.00629998       0.00253444       0.00080346
C       -0.01176783       1.38989784       3.83762398       0.00000000       0.00367342       0.00043356      -0.00638122
C       -1.26941931       3.51571920       3.79981841       0.00000000      -0.00464344       0.00626722      -0.00356419
C       -2.48536589       5.66506124       3.74934698       0.00000000       0.00400961       0.00144592       0.00577566
C       -3.70551739       7.80829866       3.71333731       0.00000000      -0.00294764      -0.00455077      -0.00216282
C       -4.93893069       9.94724958       3.75239900       0.00000000       0.00061181      -0.00201337       0.00243124
C        2.46318792       1.40214317       3.92633890       0.00000000       0.00113799      -0.00550985      -0.00481542
C        1.16593405       3.53497770       3.92761363       0.00000000       0.00513816      -0.00257692      -0.00989192
C       -0.10396483       5.62273769       3.36785255       0.00000000       0.00008721      -0.00137808      -0.00641896
C       -1.24425903       7.80855160       3.52236205       0.00000000      -0.00457563       0.00112366       0.00481803
C       -2.47158303       9.94741369       3.75808146       0.00000000      -0.00106149      -0.00133818       0.00420289
C        4.94073255       1.38751120       3.85805800       0.00000000      -0.00051650       0.00281423      -0.00269289
C        3.76413140       3.53020893       3.95248806       0.00000000      -0.00419611      -0.00138039      -0.00147235
C        1.20440149       7.89031418       3.08491704       0.00000000      -0.00068216      -0.00174942      -0.00590862
C       -0.00468035       9.94448859       3.63884146       0.00000000       0.00224495       0.00000036      -0.00679497
C        7.40560620       1.37976592       3.80734429       0.00000000      -0.00056562       0.00540027       0.00501462
C        6.20230012       3.51243030       3.83421820       0.00000000       0.00529555      -0.00072311       0.00025814
C        5.02998034       5.61636721       3.42076583       0.00000000       0.00326563      -0.00551576       0.00079045
C        3.71597877       7.88717556       3.10456293       0.00000000       0.00270627       0.00277167       0.00434191
C        2.46341930       9.94667537       3.54628668       0.00000000      -0.00473992       0.00041931      -0.00006721
C        9.86080802       1.38152619       3.79446748       0.00000000       0.00174591      -0.00358473       0.00429630
C        8.63423092       3.51935029       3.84599770       0.00000000      -0.00557725      -0.00037725      -0.00411217
C        7.41386144       5.66420944       3.76155823       0.00000000       0.00442216       0.00246702       0.00662312
C        6.16841822       7.80643996       3.53036801       0.00000000       0.00604660       0.00324346       0.00481716
C        4.93161698       9.94487202       3.62751208       0.00000000       0.00244369       0.00022681      -0.00288372
Ag       2.51544101       5.67321994       6.51679406       0.00000000      -0.00329248      -0.00019994       0.01916722
O        2.41168066       6.02973003       9.38498937       1.00000000       0.00122909       0.01214972       0.00429946
O        2.59589139       6.73056234       8.33234801       1.00000000      -0.00896786      -0.00448249      -0.01668795
