49
Lattice="12.336457 0.0 0.0 -6.168228499999997 10.683685154694365 0.0 0.0 0.0 15.0" Properties=species:S:1:pos:R:3:forces:R:3 energy=-419.73646000388794 free_energy=-419.73646000388794 stress="-0.002379554759246221 -1.5362010350380715e-05 -4.215042204498955e-06 -1.5362010350380715e-05 -0.010123995968553406 -2.3236881405710654e-06 -4.215042204498955e-06 -2.3236881405710654e-06 3.572312271812455e-06" pbc="T T T"
C        0.00018127      -0.01156356       3.74145590      -0.00734914       0.00382848       0.00467314
C       -1.23448657       2.13350343       3.94718394       0.00573744       0.00362543      -0.00357770
C       -2.48032622       4.27150681       3.85929418       0.00828428      -0.00443480       0.00737179
C       -3.69975530       6.40035059       3.65999754       0.01070958      -0.01070607       0.00502892
C       -4.94685483       8.52330052       3.58297152       0.00298881      -0.00052892      -0.00008893
C        2.47002927      -0.05708185       3.70140285      -0.01260985       0.00345041       0.01067201
C        1.26684901       2.04937640       4.07144091       0.00388389      -0.00359827      -0.01306962
C       -0.09214620       4.27445398       4.40772857      -0.01065132      -0.00918737      -0.00476045
C       -1.26534742       6.41901380       4.06822462       0.00127624      -0.00085435       0.00834031
C       -2.46294555       8.52191002       3.76421534       0.00128349       0.00957866      -0.00875837
C        4.93543816      -0.01875145       3.63642480      -0.00163642      -0.00551413       0.00804548
C        3.67161482       2.03359210       3.38463373       0.00630918      -0.00148762       0.00159002
P        1.38880040       6.42411120       4.93424428       0.00124177      -0.00618128      -0.00143365
C        0.00258087       8.56048528       3.94129572      -0.00211689       0.00558313      -0.00132146
C        7.39220939       0.02627374       3.68663268      -0.00541023       0.00664104       0.00090675
C        6.15942666       2.13251881       3.42199604      -0.00998701       0.00138811      -0.00413233
C        5.02143322       4.28511269       3.01564040      -0.00272092      -0.00962481      -0.00474402
S        3.47304128       6.39273638       2.66563080       0.00358426      -0.01000589       0.00481635
C        2.47392142       8.61399501       3.73468803      -0.00057229      -0.00478236       0.00219980
C        9.87662795       0.02856253       3.68346567      -0.00062734      -0.00696442      -0.00275809
C        8.63411080       2.14891462       3.66623313       0.00078245      -0.00008787       0.00658743
C        7.41218237       4.27324591       3.47312736       0.00965469       0.00579598      -0.00793455
C        6.18596418       6.41843236       3.29646415      -0.00799624       0.00421517      -0.00136278
C        4.93047247       8.56143899       3.45293402       0.00149104       0.00275610       0.00291454
C        0.00209084       1.40513085       3.94473704       0.00159089       0.00183518       0.00072244
C       -1.26561621       3.54722133       4.07042861      -0.00081728       0.00010947       0.00598436
C       -2.48031001       5.69546551       3.85823054       0.01098219      -0.00887227       0.00987288
C       -3.70246053       7.81769992       3.66526850       0.00673244      -0.00597595       0.00580352
C       -4.94390326       9.93955505       3.68877222      -0.01237276       0.00241483      -0.00308765
C        2.47372997       1.35221284       3.74154474       0.00174911       0.00322969      -0.00168990
P        1.38773297       3.54235051       4.93996921      -0.00455366       0.00575369      -0.00387179
C       -0.09200748       5.69183445       4.40592482      -0.00729261       0.00520554      -0.00496005
C       -1.23393666       7.83240143       3.94516000      -0.00049470       0.00320924      -0.00818147
C       -2.45938720       9.93767087       3.68426424      -0.00862542       0.00953658       0.00135150
C        4.93026607       1.40569364       3.45719712      -0.00389846      -0.01073051      -0.00078975
S        3.47085449       3.57483406       2.67285877       0.00578332       0.00896349       0.00407646
C        1.26765737       7.91605624       4.06428651      -0.00408560      -0.00002289      -0.00774293
C       -0.00009378       9.97750046       3.74027997       0.00087938       0.00178107       0.00019783
C        7.39001874       1.44281875       3.58363191      -0.01097894       0.00793959       0.00186242
C        6.18492135       3.54798642       3.29891334       0.00510135       0.00018467      -0.00055838
C        5.02196089       5.68200195       3.01444012      -0.00327216      -0.00254336      -0.01125986
C        3.67232480       7.93326509       3.37933301       0.00594339      -0.00101257      -0.00701735
C        2.46966381      10.02314738       3.69743070      -0.00580204      -0.00096102       0.01211617
C        9.87310531       1.44419722       3.76515414       0.00735849      -0.00576159      -0.00884774
C        8.63668721       3.56637531       3.66140370       0.00699657       0.00230141       0.00421573
C        7.41265548       5.69263940       3.47208024       0.00281835       0.00618230      -0.00739934
C        6.15939286       7.83392414       3.41832811       0.00108911       0.00537482       0.00318208
C        4.93543040       9.98549548       3.63521995      -0.00093160      -0.00177147       0.00520480
Ag       2.65359445       4.98563249       6.35253585       0.01055120       0.00072573       0.00161144
