50
Lattice="12.336457 0.0 0.0 -6.168228499999997 10.683685154694365 0.0 0.0 0.0 15.0" Properties=species:S:1:pos:R:3:forces:R:3 energy=-435.71711585596046 free_energy=-435.71711585596046 stress="-0.0058447233313799404 -0.0008619020609251318 -5.948650276934681e-05 -0.0008619020609251318 -0.005463600316764139 -0.00012209108963961285 -5.948650276934681e-05 -0.00012209108963961285 0.00020118349476418187" pbc="T T T"
C       -0.00734334       0.00623893       3.78118455      -0.01436429      -0.00722392      -0.04000513
C       -1.25148241       2.12740318       3.55225910      -0.03837904       0.00459851       0.00096046
C       -2.49427114       4.27567147       3.38083221      -0.02702217      -0.00303978       0.02599079
C       -3.70621389       6.41827280       3.54195826       0.00773920       0.02033996       0.01589661
C       -4.93879954       8.55236185       3.79552042       0.03653089      -0.02883072      -0.04854763
C        2.45959752       0.01106784       3.69778770       0.02773975      -0.00492878      -0.02205305
C        1.21307847       2.14035224       3.71893815       0.00887839       0.05099111       0.02256031
C       -0.06906164       4.25127346       3.36253800       0.05331178       0.01141399      -0.00459835
C       -1.25467965       6.41719529       3.22902516      -0.02916390       0.03332805       0.03948749
C       -2.47442679       8.55744914       3.47888051      -0.01588386      -0.05334377       0.02683132
C        4.92961492       0.00568809       3.57539627      -0.01687080      -0.01382585       0.01385953
C        3.70622004       2.13184914       3.83630437       0.02433645       0.07045597       0.00872173
P        2.39225490       4.50187488       4.48779702      -0.07740281      -0.15636811      -0.01587233
P        1.51744289       6.30054532       2.69219376      -0.05867215      -0.01237384       0.06014844
C       -0.00062750       8.55613037       3.40370104       0.03005683      -0.00436282      -0.01103965
C        7.39166425       0.01371473       3.61131457       0.02898484      -0.03201829      -0.02316784
C        6.17328860       2.13010234       3.65336051       0.02491356       0.02544330       0.01347349
C        5.01781191       4.23399659       4.06973065      -0.03156735       0.04782977      -0.01079004
P        3.59053115       6.35367903       4.94287209       0.12752313       0.08197800       0.01190916
C        2.45164466       8.59637138       3.80085419       0.07091924      -0.05436993      -0.00418185
C        9.86598777       0.01593781       3.76539314      -0.01912251      -0.00819710      -0.02036104
C        8.62986688       2.14037566       3.55501930      -0.01072065      -0.03295287       0.00594293
C        7.41596210       4.27778900       3.65406489       0.01123795      -0.00847958      -0.04305533
C        6.21034462       6.41168892       4.02814733      -0.01327740      -0.03469977       0.00021696
C        4.93642580       8.56772037       4.05461883      -0.08284055       0.01502265      -0.00025134
C       -0.01604612       1.42206736       3.66491948      -0.01763515       0.01265077       0.00562271
C       -1.28113478       3.54007534       3.38848168       0.02678484       0.01360977       0.01027004
C       -2.48957307       5.70343311       3.35880525      -0.02044818       0.02058720      -0.01085174
C       -3.70850894       7.84593171       3.59384153       0.00182727      -0.01831257       0.04413968
C       -4.94001649       9.97830658       3.76715418       0.02315600      -0.01967497      -0.02874743
C        2.45782327       1.43208078       3.76497070       0.03109278       0.05565716       0.06204976
C        1.13376171       3.56009662       3.70828829       0.01256283       0.04654376       0.03065606
C       -0.06485470       5.65792973       3.13251218       0.03218473       0.02578343       0.00531031
C       -1.24372170       7.84700640       3.32631572      -0.01472074       0.02596364      -0.00815806
C       -2.47614321       9.98091260       3.58113909       0.00171731      -0.05023697       0.00633228
C        4.93635474       1.42188714       3.68160715      -0.00560708       0.03143600       0.00855341
C        3.78866811       3.52444446       4.09737868       0.04104252      -0.01663728      -0.02311217
C        1.26015745       7.89910226       3.41888742       0.04835977      -0.06284164       0.03982985
C       -0.00708273       9.98185492       3.53106457       0.00699516      -0.01832890      -0.00883879
C        7.39941305       1.42907066       3.59337844       0.01377006      -0.02957795      -0.00743663
C        6.20962223       3.54366651       3.76961324      -0.04487541       0.00683809       0.01082034
C        5.06290438       5.63551985       4.31243638      -0.11264938      -0.02087505       0.05674511
C        3.67001308       7.92881526       4.18222101      -0.09203431       0.03871084      -0.06346904
C        2.45789435      10.00567477       3.73791164       0.01271930      -0.02904086      -0.02539371
C        9.85981179       1.42646006       3.61476733      -0.03023965      -0.03464730      -0.01055933
C        8.62730057       3.56373034       3.50021214      -0.02339794      -0.01864758       0.03656657
C        7.41752413       5.70298286       3.72943543       0.03095293       0.02541020       0.01459824
C        6.17727424       7.84427599       4.00168746       0.06342015       0.03560056      -0.02424212
C        4.93172455       9.98640001       3.87065258      -0.03386766      -0.00055680      -0.03611713
Ag       2.45028177       5.31823415       6.71328443       0.03200530       0.07420026      -0.08664384
