52
Lattice="12.336457 0.0 0.0 -6.168228499999997 10.683685154694365 0.0 0.0 0.0 15.0" Properties=species:S:1:pos:R:3:initial_magmoms:R:1:forces:R:3 energy=-445.9760296883341 free_energy=-445.9760296883341 stress="-0.006783715513501543 -0.0013089508261946376 5.055487474224753e-06 -0.0013089508261946376 -0.005488231488029377 5.248590454206878e-06 5.055487474224753e-06 5.248590454206878e-06 7.141357350506841e-06" pbc="T T T"
C        0.01307486       0.00574565       3.66293477       0.00000000       0.00335844      -0.00317547      -0.00335190
C       -1.23637852       2.12448428       3.48567916       0.00000000      -0.00617806      -0.00224509       0.01481422
C       -2.48065544       4.27425288       3.37489951       0.00000000      -0.00156853      -0.00128044      -0.00899006
C       -3.68570654       6.41785951       3.53162005       0.00000000       0.00047657      -0.00180652      -0.00408235
C       -4.91571653       8.55530919       3.72236256       0.00000000      -0.00188749      -0.00258537      -0.01396209
C        2.48309641       0.01622627       3.64693291       0.00000000      -0.00474012      -0.00380897       0.01042277
C        1.23109549       2.14235084       3.68701743       0.00000000       0.00028103      -0.00102037       0.01571429
C       -0.05635555       4.24827361       3.35806868       0.00000000       0.00603003       0.00248220       0.00883257
C       -1.23826518       6.41506070       3.22974573       0.00000000       0.00671241       0.00247827      -0.00929734
C       -2.45176030       8.55591553       3.45963111       0.00000000      -0.00843034      -0.00071549      -0.00738458
C        4.95055050       0.00582985       3.55170292       0.00000000      -0.00559224       0.00779224      -0.00656425
C        3.72654065       2.13983095       3.82658815       0.00000000       0.00141180       0.00802875      -0.00318237
P        2.40774010       4.52647081       4.43351535       0.00000000      -0.00798051      -0.00518653       0.00404951
P        1.53061241       6.27549459       2.67541937       0.00000000      -0.00595841      -0.00621821       0.01699716
C        0.02077516       8.55111195       3.36203880       0.00000000      -0.00323766      -0.00101978       0.00076893
C        7.41095969       0.00972449       3.53110828       0.00000000       0.00685915      -0.00096632       0.00481609
C        6.19155350       2.13180618       3.64153031       0.00000000       0.00171048       0.00815768       0.00107034
C        5.03437822       4.24377771       4.06325857       0.00000000       0.00332689      -0.00610112      -0.00797209
P        3.64270861       6.40722750       4.95046972       0.00000000      -0.01075393      -0.00202658       0.01033961
C        2.47869840       8.58996978       3.69694977       0.00000000       0.00647853      -0.00580931       0.01009876
C        9.88448341       0.00996128       3.63117208       0.00000000       0.00776653      -0.00230628      -0.00218857
C        8.64433841       2.13685652       3.50499664       0.00000000      -0.00264261      -0.00164610      -0.00530275
C        7.43206623       4.27690458       3.63905320       0.00000000      -0.00224546       0.00425490       0.01207655
C        6.23087262       6.41579919       3.98991826       0.00000000      -0.00959361       0.00394808      -0.00913539
C        4.95709035       8.56940732       3.93180581       0.00000000       0.00415317       0.00585979      -0.00927308
C        0.00261705       1.42277194       3.58775238       0.00000000      -0.00288073      -0.00266806       0.00867507
C       -1.26817610       3.53930816       3.36849470       0.00000000       0.00316473       0.00044418      -0.00316866
C       -2.47248895       5.70164538       3.35791736       0.00000000       0.00655019      -0.00003849       0.00196385
C       -3.68448560       7.84520341       3.56768192       0.00000000      -0.00128373      -0.00377179       0.00173886
C       -4.91707999       9.98175736       3.67688460       0.00000000      -0.00165293      -0.00736306      -0.00189892
C        2.47947437       1.43774703       3.73945248       0.00000000       0.00003981      -0.00231545       0.00905745
C        1.14425440       3.55689537       3.70472898       0.00000000       0.00723916       0.00217260       0.00117854
C       -0.05135980       5.65416838       3.13170269       0.00000000       0.00573143       0.00210684       0.01288356
C       -1.22426397       7.84511327       3.30869096       0.00000000      -0.00478276      -0.00041824       0.00651854
C       -2.45352184       9.98108474       3.55157245       0.00000000      -0.00619247       0.00015957       0.00831942
C        4.95568247       1.42417011       3.67118100       0.00000000       0.00099505       0.01152698       0.00089266
C        3.80594148       3.53275511       4.08009509       0.00000000       0.00188481       0.00286313       0.00123061
C        1.27720900       7.88703431       3.37284044       0.00000000       0.00309774       0.00501968      -0.01023410
C        0.01256561       9.97881284       3.48048950       0.00000000      -0.00172894       0.00299802       0.00310989
C        7.41529512       1.42644633       3.54605464       0.00000000       0.00023522       0.00055746      -0.00988154
C        6.22491702       3.54642859       3.76631082       0.00000000      -0.00003205       0.00265764      -0.01716655
C        5.08354694       5.64933305       4.29224220       0.00000000      -0.00103165      -0.00967646      -0.00388866
C        3.69746692       7.92954444       4.07096341       0.00000000       0.01049299      -0.00711055      -0.01317826
C        2.47904205       9.99909197       3.61712224       0.00000000       0.01259083      -0.00414991      -0.00739521
C        9.87504047       1.42218007       3.52459181       0.00000000      -0.00394615      -0.00484144      -0.01043375
C        8.64137161       3.56112508       3.48393487       0.00000000      -0.00549314       0.00057819       0.00286129
C        7.43810926       5.70265299       3.71117688       0.00000000      -0.00598728       0.00581097       0.00243762
C        6.20138621       7.84920660       3.92059313       0.00000000      -0.00267765       0.00763576      -0.00621275
C        4.95148704       9.98350529       3.72603194       0.00000000       0.00585553       0.00319110       0.00473468
Ag       2.36258832       5.48118379       6.70602486       0.00000000       0.00003455       0.00172267      -0.00650246
O        2.38334251       4.90752246       9.55565722       1.00000000      -0.00713489       0.00268300       0.00195466
O        1.61629240       5.42043473       8.66543492       1.00000000       0.00915621      -0.00485831       0.00309019
