50
Lattice="12.336457 0.0 0.0 -6.168228499999997 10.683685154694365 0.0 0.0 0.0 15.0" Properties=species:S:1:pos:R:3:forces:R:3 energy=-433.08132416585124 free_energy=-433.08132416585124 stress="-0.008422944295823647 -2.0486844039469132e-05 -3.82186856615006e-06 -2.0486844039469132e-05 -0.003386748404565902 4.442577822314007e-06 -3.82186856615006e-06 4.442577822314007e-06 -7.995568531674613e-06" pbc="T T T"
C       -0.00279499      -0.00672956       3.80585914      -0.00224541       0.00023382       0.00183192
C       -1.24945776       2.11350490       3.89067748      -0.00131524      -0.00062353       0.00918056
C       -2.48590999       4.26208365       3.87000866       0.00477862       0.00548224       0.00210135
C       -3.70189224       6.40929072       3.81810156       0.00037727       0.00821272      -0.00527635
C       -4.94157685       8.54302220       3.72624212       0.00571002      -0.00105486      -0.00016672
C        2.46638849       0.00357557       3.87178400      -0.00085257      -0.01425709       0.00727383
C        1.22223609       2.13259805       3.95694298       0.00645735       0.00160332       0.00568094
C       -0.05993361       4.25508866       3.75397463       0.00744916      -0.00379887      -0.00906330
C       -1.26470162       6.40763337       3.60548696       0.00691966      -0.00002398      -0.00087068
C       -2.46226015       8.54317392       3.72316838      -0.00473317      -0.00060470       0.00117913
C        4.93593962      -0.00712079       3.81660863       0.00142343      -0.00067563      -0.00158952
C        3.71059388       2.13143116       3.97186277      -0.00286707       0.00343877      -0.00129874
P        2.46394813       4.51075904       4.58354356      -0.00642424       0.00023580      -0.00299587
S        1.11708977       6.33129579       2.42809763      -0.00158885       0.00485416      -0.00812004
C       -0.00694088       8.54892445       3.46373187      -0.00749396      -0.00416310       0.00505487
C        7.40273511      -0.01439263       3.73622024      -0.00059439      -0.00321130      -0.00939581
C        6.18251590       2.11301949       3.91326275       0.00328489      -0.00184083      -0.00011655
C        4.99293134       4.25479874       3.77407669      -0.01038643      -0.00430115      -0.00836071
S        3.82112702       6.32730550       2.43300604      -0.00871075       0.00459345       0.00374905
C        2.46689655       8.57853956       3.24804604      -0.00313679       0.01032854       0.00340478
C        9.86683545      -0.01411937       3.72962859       0.00092251      -0.00085198      -0.00608289
C        8.63469632       2.11697978       3.90018773       0.00042186      -0.00543037      -0.00237913
C        7.41842593       4.26247982       3.88391460       0.00066953      -0.00142238       0.00231085
C        6.19648650       6.40739634       3.62013746      -0.00231934      -0.00343059      -0.00123154
C        4.93931509       8.54742872       3.46768447       0.00913068       0.00090248       0.00121784
C       -0.01054381       1.41167050       3.88820321       0.00132953       0.00298176       0.00003561
C       -1.27167209       3.53790498       3.85778573       0.00389118      -0.00002775       0.00238517
C       -2.48376451       5.68895068       3.80503230       0.00386873       0.01022156       0.00535095
C       -3.70188148       7.83234684       3.76212191       0.00072531       0.00422196       0.00787731
C       -4.93527623       9.97122763       3.80074047      -0.00355130      -0.00593185      -0.00155618
C        2.46610863       1.42790953       3.96562497       0.00259354      -0.00857625      -0.00508189
C        1.16358156       3.55877732       3.96220207       0.00037858       0.00324858       0.00959648
C       -0.10698623       5.64189187       3.41088538       0.00089627      -0.00747832      -0.00517026
C       -1.23973278       7.83176879       3.56496990      -0.00822980      -0.00054644       0.00313176
C       -2.46823011       9.97117521       3.80364000       0.00169883      -0.00614140       0.00098529
C        4.94374135       1.41072389       3.90875000       0.00106172       0.00311599      -0.01165236
C        3.76982527       3.55720827       3.97787058      -0.00652061       0.00705812       0.00563107
C        1.21002847       7.91758715       3.12054946      -0.00748836       0.00043883       0.00812062
C       -0.00110754       9.96760101       3.68497951      -0.00134075      -0.00377902       0.00028650
C        7.40764860       1.40270279       3.87470962       0.00129456      -0.00552389      -0.00994971
C        6.20450491       3.53783432       3.88070486      -0.00321160      -0.00182806      -0.00181167
C        5.03947629       5.64054216       3.42529161      -0.00157309      -0.00702894       0.00195144
C        3.72321500       7.91489190       3.12387143       0.00389418       0.01498251       0.00792842
C        2.46647718       9.96887561       3.59609339       0.00038257       0.00626177      -0.00095583
C        9.86179738       1.40322683       3.86264167      -0.00069197      -0.00375733      -0.00483451
C        8.63454411       3.54278261       3.91423747       0.00430621      -0.00176398       0.00142898
C        7.41604985       5.68937491       3.81717749       0.00058598       0.00266116      -0.00266308
C        6.17194974       7.83112138       3.57345541       0.01131752      -0.00190783      -0.00330705
C        4.93402841       9.96743738       3.67975409       0.00133246      -0.00004383      -0.00207231
Ag       2.46180409       5.79120532       6.45711175      -0.00182645       0.00494772       0.00830798
