51
Lattice="12.336457 0.0 0.0 -6.168228499999997 10.683685154694365 0.0 0.0 0.0 15.0" Properties=species:S:1:pos:R:3:forces:R:3 energy=-439.538444424679 free_energy=-439.538444424679 stress="-0.0069081573955325016 -0.0017605922930124026 2.1962821056191803e-05 -0.0017605922930124026 -0.005887759146457014 -1.5058352115847971e-05 2.1962821056191803e-05 -1.5058352115847971e-05 -2.1309410982265125e-07" pbc="T T T"
C        0.00284807       0.00353667       3.69155003       0.00204981      -0.00164868      -0.00009474
C       -1.24819523       2.12210422       3.54034614      -0.00703816       0.00044113       0.00004928
C       -2.49150550       4.27084835       3.40693147       0.00289400       0.01042203      -0.00075157
C       -3.69692527       6.41500612       3.53518723       0.00117134       0.01356396       0.00448164
C       -4.92603204       8.55345640       3.72535079       0.00277663      -0.00411401       0.00357542
C        2.47295411       0.01391619       3.68621182      -0.00204564      -0.00805054       0.00280222
C        1.21774168       2.13700272       3.77809079      -0.00088646      -0.00662314      -0.00726834
C       -0.06761059       4.24538891       3.48084149       0.01173684      -0.00356002      -0.01249958
C       -1.24381466       6.41073392       3.29465201       0.00053003       0.00856624       0.01491785
C       -2.46131113       8.55327695       3.48899676      -0.00051927       0.00348964      -0.00671403
C        4.93896143       0.00514240       3.57144968      -0.00484667      -0.00523230       0.00299542
C        3.71505250       2.13852967       3.86395493       0.00392308      -0.00096467      -0.00016856
P        2.40212507       4.50511403       4.56024166       0.01165271      -0.00406034       0.00264827
P        1.53251693       6.25550070       2.79526793      -0.00547633      -0.00470554      -0.00833587
C        0.01176269       8.54845335       3.41057300      -0.00826063      -0.00503944       0.00180888
C        7.39999046       0.00893722       3.53932042      -0.00071863      -0.00014580       0.00778128
C        6.17624055       2.13267481       3.62569510       0.00761600       0.00429729       0.00579871
C        5.02000430       4.24564062       4.06036931      -0.00097621      -0.00434158       0.00350564
P        3.66448878       6.42043174       5.01529585      -0.00385835      -0.00422864      -0.00900872
C        2.47031550       8.59183000       3.74229868      -0.00316760      -0.00791091       0.00305978
C        9.87383416       0.00875622       3.64415062       0.00009843       0.00389938      -0.00513079
C        8.63097845       2.13466549       3.50093060       0.00253290       0.00782685      -0.00182070
C        7.41567259       4.27601744       3.61611837       0.00293861       0.00519723       0.00861431
C        6.21827439       6.41511849       3.97906170      -0.01031393      -0.01223276      -0.00481570
C        4.94808486       8.56910968       3.94204383       0.00784464       0.00213898       0.00390644
C       -0.00952547       1.42037281       3.64984748      -0.00768081      -0.00263583       0.00032179
C       -1.27895941       3.53724376       3.44372380       0.00311869       0.00238602      -0.00512609
C       -2.48097160       5.69779823       3.39037633       0.00037818       0.01369934      -0.00177856
C       -3.69476646       7.84228556       3.57808771       0.00423434       0.00891256       0.00031219
C       -4.92698747       9.97980503       3.69995774      -0.00008598      -0.00671538       0.00279046
C        2.46824705       1.43367962       3.80065432       0.00091234      -0.00672102      -0.00120634
C        1.12725608       3.54851145       3.83260730       0.01264503      -0.00284824       0.00894319
C       -0.05381020       5.64941871       3.24793140      -0.00245398       0.00062282      -0.00286268
C       -1.23189515       7.84112314       3.35807572      -0.00601795       0.00427304      -0.00358940
C       -2.46388103       9.97888569       3.58290470      -0.00476093      -0.00470143      -0.00782912
C        4.94234856       1.42439718       3.68071827       0.00564488      -0.00101739       0.00052851
C        3.79582311       3.53058537       4.11936761       0.00289205      -0.00092171      -0.00383764
C        1.26829361       7.88484524       3.43927244      -0.00821326      -0.00803819      -0.00241712
C        0.00184652       9.97790710       3.50329039      -0.00482238      -0.00488461       0.00227712
C        7.40125396       1.42580363       3.53430546       0.00686686       0.00405507       0.00176363
C        6.20669432       3.54830982       3.73970980       0.00218792       0.00475679       0.00314934
C        5.07372209       5.65084173       4.29574267      -0.01537342      -0.00872637      -0.00577447
C        3.69197430       7.93095571       4.10818095       0.00554515      -0.00186146      -0.00022157
C        2.46888963       9.99885383       3.63579636       0.00100446      -0.00246304       0.00135638
C        9.86271603       1.42039156       3.54216899      -0.00541952       0.00339445      -0.00947121
C        8.62709846       3.55865021       3.47906860       0.00409417       0.00796431       0.00824104
C        7.42384299       5.70112683       3.69593896      -0.00123799       0.00459858      -0.00753176
C        6.19091734       7.84830424       3.91840366       0.00261096      -0.01007524      -0.00128978
C        4.94097789       9.98223620       3.73808442       0.00238270       0.00648037       0.01576025
Ag       2.46446642       5.41969890       6.82128371       0.00591762       0.00181218      -0.00778866
O        1.97653639       5.27971957       8.79351348      -0.01402625       0.01166999       0.00594397
