50
Lattice="12.336457 0.0 0.0 -6.168228499999997 10.683685154694365 0.0 0.0 0.0 15.0" Properties=species:S:1:pos:R:3:forces:R:3 energy=-438.722387230982 free_energy=-438.722387230982 stress="-0.0028439259185673387 0.00439445470960431 -1.1717109285307334e-05 0.00439445470960431 -0.0009708568893958669 7.739706342002701e-06 -1.1717109285307334e-05 7.739706342002701e-06 -2.298995213293822e-07" pbc="T T T"
C       -0.00362301       0.01539252       3.65078467       0.00129171      -0.00673821       0.00562614
C       -1.21049179       2.16349691       3.57819186      -0.00328720      -0.00188039      -0.00318333
C       -2.43505204       4.28926117       3.58577762       0.00749568       0.00147864       0.00278883
C       -3.69828659       6.41673027       3.67412727       0.00011348      -0.00119011       0.00367558
C       -4.96318575       8.54735617       3.71783778      -0.00149074       0.00046976      -0.00317768
C        2.45504355       0.01894185       3.70886320       0.00205006      -0.00091932      -0.00216352
C        1.24166374       2.17933944       3.80686320       0.00010781       0.00216403       0.00274327
C        0.04721015       4.33681039       3.67090780      -0.00541331       0.00144621       0.00052591
C       -1.24346953       6.43936704       3.54737852       0.00461606      -0.00222531      -0.01510820
C       -2.48701711       8.56324290       3.59131566      -0.00078877      -0.00517269      -0.00177879
C        4.93166393       0.01050406       3.60604730      -0.00566776      -0.00214532       0.00094478
C        3.72471563       2.12952174       3.91831721       0.00786436       0.00489239      -0.00461480
B        2.50732133       4.19687869       4.55397932      -0.00294119       0.00380212       0.00140980
O        1.09728006       6.49637868       3.26479731      -0.00297807      -0.00100020      -0.00294151
C       -0.02768359       8.56385770       3.45371554      -0.00680319       0.00719238      -0.00594264
C        7.40293754       0.00345514       3.48032023       0.00482220       0.00314895      -0.00543902
C        6.20498318       2.11496894       3.71084839      -0.00522299      -0.00159624      -0.00868981
C        5.01573642       4.20633428       4.10322664       0.00065604       0.00055139      -0.00590420
S        3.48137612       6.25252456       4.26373195       0.01128344       0.00545618       0.00636462
C        2.41730504       8.54451918       3.50083558      -0.00027408      -0.00838328      -0.00320627
C        9.87304744       0.00447788       3.52296482       0.00292314       0.00382636      -0.00073096
C        8.66272086       2.14077641       3.55393231      -0.00417726       0.00179338      -0.00669495
C        7.44591286       4.26535746       3.75171503       0.00216517      -0.00742304      -0.01268509
C        6.18476152       6.39950242       3.91329471      -0.00524984       0.00513543       0.00590707
C        4.90568820       8.53821397       3.74152419      -0.00130694       0.00659787      -0.01090974
C        0.00915935       1.44576042       3.65041132      -0.00356869      -0.00539357       0.01320879
C       -1.19539426       3.59832323       3.58226611       0.00173912      -0.00073062       0.00187784
C       -2.46269241       5.70845313       3.60461202       0.00516054       0.00102088      -0.00453472
C       -3.72115884       7.84341335       3.66515201      -0.00028527      -0.00070269       0.00351307
C       -4.94832938       9.98097189       3.69076813       0.00248992      -0.00348681       0.01145746
C        2.46721507       1.44247692       3.82879636       0.00675710       0.00192374       0.00892571
C        1.23352141       3.60641225       3.92626969      -0.00599425       0.00541606       0.00524935
C       -0.02439197       5.75951380       3.53444035       0.00266382      -0.00100481       0.00615651
C       -1.26253328       7.85822645       3.51505811      -0.00031676      -0.00220889       0.00332665
C       -2.48228084       9.99008301       3.63128392      -0.00227944      -0.00589772       0.01184803
C        4.95931826       1.41666713       3.73351866       0.00026738      -0.00397716       0.00951779
C        3.79206011       3.51210395       4.17204346      -0.00129639       0.00693698      -0.00550593
C        1.16699102       7.86474576       3.41651935      -0.00789124      -0.00192190       0.00576194
C       -0.00483941       9.98859772       3.49925426      -0.00243490       0.00800011      -0.00177505
C        7.42819593       1.42212701       3.56212709      -0.00355252       0.00234553       0.00073439
C        6.23924197       3.52527424       3.85407366      -0.00081748      -0.00443501      -0.00093128
C        5.03972111       5.61208092       4.13782027      -0.00315821       0.00129337      -0.00907228
C        3.64284140       7.88300211       3.77677786       0.00425538      -0.00254512      -0.00069637
C        2.45844661       9.97204790       3.46547066       0.00552740      -0.00214655      -0.00242224
C        9.89132575       1.43603687       3.52654575      -0.00512382       0.00309481       0.00869253
C        8.67198913       3.56345478       3.61746457       0.00787418      -0.00143363      -0.00385883
C        7.42567172       5.69080099       3.78432548      -0.00411293      -0.00253760      -0.00001908
C        6.14124101       7.82494155       3.80829554      -0.00446280       0.00739714       0.00132532
C        4.92836460       9.97639641       3.61832918       0.00141945       0.00311185       0.00035803
Au       2.39403699       5.41558440       6.23773731       0.00735259      -0.01139940       0.00004687
