51
Lattice="12.336457 0.0 0.0 -6.168228499999997 10.683685154694365 0.0 0.0 0.0 15.0" Properties=species:S:1:pos:R:3:forces:R:3 energy=-446.68610833129316 free_energy=-446.68610833129316 stress="-0.0024385978243929227 0.004937580434999047 -3.6436489482623096e-05 0.004937580434999047 -0.0028026773050207946 -4.714194440496944e-06 -3.6436489482623096e-05 -4.714194440496944e-06 -9.032735797743646e-06" pbc="T T T"
C       -0.01592087      -0.02117459       3.72350751      -0.01220920      -0.00290580       0.00462329
C       -1.22040416       2.13348208       3.70047368       0.01242679      -0.00675114      -0.00598337
C       -2.44517749       4.26522421       3.66467150       0.00500386       0.01132914      -0.00049672
C       -3.71041079       6.39036944       3.68055385      -0.00281874      -0.01210613       0.00009096
C       -4.97259349       8.51765425       3.73107504       0.00073987      -0.00068203       0.00739450
C        2.44600098      -0.01860039       3.64485525      -0.01068804       0.00306466       0.00010138
C        1.23979733       2.13931330       3.74898683       0.01028194       0.00067037       0.00547075
C        0.02062716       4.29250385       3.78766214      -0.00772586      -0.00450766      -0.00656607
C       -1.23402293       6.41495003       3.68258225       0.01547644       0.00345580      -0.00488299
C       -2.49994635       8.53289692       3.62381443       0.00105654       0.00308266      -0.00766616
C        4.92259832      -0.02345324       3.52096246       0.01050728       0.00386533      -0.00561753
C        3.71221615       2.09240695       3.59019731      -0.00053132       0.00660602       0.00320974
B        2.56176175       4.31888915       3.91728575      -0.00951857      -0.00068967      -0.00268863
N        1.18994374       6.47304319       3.78065166      -0.00873851       0.01034354       0.01028791
C       -0.04005131       8.54011226       3.58186877      -0.00088492      -0.00773659      -0.01060865
C        7.39876390      -0.01819236       3.51411731      -0.00157503      -0.00735514       0.01048212
C        6.19358338       2.09411159       3.48442531      -0.01174412       0.00505212       0.00010842
C        5.00262932       4.19572827       3.65986259       0.00225956      -0.00444234       0.01683055
P        3.30712907       6.09911028       4.31561723       0.01312822       0.00532645      -0.00871795
C        2.42881099       8.54802567       3.69547091      -0.00073978       0.00506768      -0.00355508
C        9.86870078      -0.01365617       3.64663257       0.00712844      -0.00864759      -0.00497739
C        8.65671884       2.11912009       3.56249130      -0.00528131      -0.00020878      -0.00758623
C        7.43658738       4.24684679       3.59336206      -0.00563705       0.00224501       0.00176801
C        6.14623571       6.36518761       3.80035186      -0.00784777       0.00497343      -0.00274604
C        4.88385962       8.50025070       3.81225601       0.00293882      -0.00668016       0.00478295
C        0.00240761       1.41347442       3.72761355       0.01379310      -0.00354928       0.00350869
C       -1.20999321       3.56675422       3.71796555      -0.00305327      -0.00413947      -0.00744948
C       -2.46054639       5.68963827       3.67429649       0.01366291       0.00913505       0.00026648
C       -3.73150713       7.81521229       3.68330575       0.00090276      -0.00999038       0.00223717
C       -4.95752230       9.94624004       3.70572748      -0.01548266       0.00186050       0.00667680
C        2.45973082       1.40549060       3.66054603       0.00549918       0.00146978       0.00849949
C        1.24049389       3.58110617       3.83111685      -0.00918849      -0.00026727      -0.00462317
C        0.02920612       5.74201150       3.75840065       0.00486093      -0.00169633      -0.00010297
C       -1.26368191       7.82816726       3.61942373       0.00219033      -0.00020253      -0.00434681
C       -2.49005902       9.95469360       3.58961426       0.00052276       0.01069247      -0.01101761
C        4.94773131       1.38658965       3.50504332      -0.00420050       0.00587676       0.00351340
C        3.77755735       3.49142587       3.67487414      -0.00225847       0.00570432      -0.00234617
C        1.17788667       7.82744795       3.67183196      -0.00102786       0.00498963      -0.00214401
C       -0.01317813       9.95653216       3.51965553       0.00471850      -0.01222870      -0.00687217
C        7.42198329       1.39777877       3.49782555      -0.01596093      -0.00372140       0.00509303
C        6.22635859       3.50995152       3.53572869      -0.00167883       0.00103621       0.00130041
C        4.95972884       5.59208256       3.86717318       0.00009428      -0.00257385       0.00837716
C        3.61236410       7.82034448       3.86030900      -0.00127526       0.00462413       0.00750532
C        2.45819783       9.96464268       3.59487779       0.00422861       0.00078485       0.00279590
C        9.88426666       1.41390840       3.63083473       0.00581613      -0.00539402      -0.00869282
C        8.66688546       3.54283428       3.59528296       0.00078944       0.00947477      -0.00288481
C        7.40379389       5.66841250       3.68848234      -0.01434760      -0.00107052       0.00055965
C        6.12970824       7.79795668       3.80689473       0.00219166       0.00060692      -0.00002266
C        4.91539018       9.94130227       3.72954134      -0.00143951      -0.01462361       0.00058883
Au       2.91292226       6.00404870       6.61040765       0.00585907      -0.00180786       0.00683393
O        2.57366662       5.97529344       8.52653349       0.00977618       0.00264066      -0.00031136
