49
Lattice="12.336457 0.0 0.0 -6.168228499999997 10.683685154694365 0.0 0.0 0.0 15.0" Properties=species:S:1:pos:R:3:forces:R:3 energy=-432.3441971908554 free_energy=-432.3441971908554 stress="-0.0044813062982107365 -0.0020030963623739405 6.706848725521187e-07 -0.0020030963623739405 0.0015971441143613366 4.6820349857956345e-06 6.706848725521187e-07 4.6820349857956345e-06 3.539303497080018e-07" pbc="T T T"
C        0.00137416      -0.00159154       3.73538587      -0.00066967      -0.00341170      -0.00808979
C       -1.25337368       2.11764396       3.78977517       0.00537763       0.00711174       0.00491267
C       -2.49836737       4.26549120       3.61994341      -0.00317220       0.00161435       0.00868967
C       -3.69819986       6.41558111       3.48910961       0.00365259      -0.00093257      -0.00552980
C       -4.92261371       8.55911212       3.53934226       0.00121837       0.00935322       0.00866107
C        2.47263084      -0.00241191       3.80946262       0.00792187      -0.00024522       0.01153539
C        1.22733213       2.10500188       4.05044752      -0.00684746       0.00002628      -0.00745838
C       -0.10673826       4.29334768       3.99828736       0.00268859       0.00020279       0.01563977
C       -1.26920236       6.42201248       3.73052000       0.00332504       0.00349439       0.00769988
C       -2.46392692       8.55489330       3.66357574      -0.00227691      -0.00740539      -0.00075790
C        4.94488930      -0.01115129       3.80298806       0.00383754      -0.00198927      -0.00803354
C        3.70238112       2.12596155       4.00161556       0.00193855      -0.00619077      -0.00224901
C        1.14206390       6.37785418       4.25097962      -0.00128576      -0.00987438       0.00294869
C        0.01577978       8.51256235       3.83079768       0.00128374      -0.00605745       0.00737575
C        7.41107541      -0.03291040       3.75145574      -0.01199742      -0.00464333       0.00617204
C        6.16115948       2.14241413       3.71803191      -0.00137877       0.00500625      -0.00292912
C        4.95989739       4.35676973       3.63238716      -0.00237937      -0.00596072      -0.00472638
O        3.81959542       6.48581153       3.30220924       0.00526472      -0.00134572       0.00248081
C        2.50333378       8.46911937       3.77361164      -0.00271610       0.00419050      -0.00424408
C        9.86326664      -0.03214112       3.69708228       0.00288359       0.00490943       0.00611232
C        8.62367869       2.11839332       3.64379464      -0.00893689      -0.00231434      -0.00568398
C        7.39766530       4.27381074       3.48854759      -0.01047542       0.00849652       0.00175783
C        6.19882340       6.43756194       3.36038644       0.00331982       0.00464098       0.00875649
C        4.95579995       8.54977894       3.54052492       0.00391778      -0.00352850       0.00395586
C       -0.00882853       1.41853535       3.86962214      -0.00268261      -0.00300233      -0.00605374
C       -1.27804014       3.54675159       3.78939308       0.00404638       0.00602400       0.00399991
C       -2.48457457       5.69490710       3.59206891       0.00545673       0.00234596       0.00313912
C       -3.68903059       7.84397218       3.54584297      -0.00501175      -0.00096701      -0.00819115
C       -4.92622964       9.97909467       3.69478871       0.00420525       0.00830708       0.00413780
C        2.46974904       1.41915695       3.98536979      -0.00240811       0.00017674      -0.00079996
B        1.17154944       3.58303969       4.28017157       0.00593490       0.00186203       0.01209822
C       -0.06668288       5.71123745       3.98417907      -0.00111802      -0.00386011      -0.00283508
C       -1.23387411       7.83854819       3.73539075       0.00177991       0.00039992      -0.00083711
C       -2.46074730       9.97262712       3.75960123       0.00685506      -0.00662071      -0.00209510
C        4.93599938       1.42484229       3.84450427       0.00417369      -0.00022708      -0.01126679
B        3.74412862       3.62456057       4.12634350       0.00058261      -0.00651854      -0.00161756
C        1.25330608       7.74191597       3.95614316       0.00098640      -0.00924648      -0.00974175
C        0.01076301       9.94267872       3.78869139      -0.00437559      -0.00844434      -0.00505614
C        7.39474723       1.40587064       3.69042720      -0.01105156      -0.00439646       0.00024090
C        6.15690443       3.57962801       3.59677411      -0.00395108       0.00409243       0.00247938
C        4.98826578       5.75656950       3.40488737       0.00520680      -0.00524920      -0.01050830
C        3.75237214       7.83389756       3.56065179       0.00201484      -0.00027039       0.00729746
C        2.47658856       9.90876005       3.73438016      -0.00559224       0.00753084      -0.00921103
C        9.85622092       1.40141927       3.70166461       0.00449775       0.00703036      -0.00850966
C        8.62030695       3.54785378       3.56526402      -0.01162950       0.00282164      -0.00485861
C        7.41468246       5.69711618       3.41958031       0.00050555       0.00591636       0.00316977
C        6.19267847       7.85563133       3.44273497       0.00623821       0.00446415       0.00904721
C        4.93738400       9.96746277       3.65996559       0.00168932      -0.00426621      -0.01074088
Au       2.46143001       4.97955694       5.00601684      -0.00084680       0.00695025      -0.00028319
