50
Lattice="12.336457 0.0 0.0 -6.168228499999997 10.683685154694365 0.0 0.0 0.0 15.0" Properties=species:S:1:pos:R:3:forces:R:3 energy=-431.53888289745765 free_energy=-431.53888289745765 stress="-0.00046706609883448446 -0.0032680661844793992 1.3695319938321064e-05 -0.0032680661844793992 -0.0058565705507375426 -2.9299878656034285e-05 1.3695319938321064e-05 -2.9299878656034285e-05 6.081533589781911e-06" pbc="T T T"
C        0.01053745      -0.01814330       3.70681171      -0.00163175       0.00473601       0.00575511
C       -1.22398385       2.13933882       3.91761868      -0.00199469       0.00405229       0.00788663
C       -2.45909410       4.27636469       3.81287028       0.00274157       0.00197991      -0.00267475
C       -3.66967929       6.40972121       3.61179421      -0.00326585       0.00095613       0.00339829
C       -4.90866644       8.53739715       3.55004958       0.00136638      -0.00487977       0.00776785
C        2.49087271      -0.05959164       3.62635824      -0.00327200      -0.01057022       0.00751752
C        1.26958794       2.01003444       4.05710396      -0.00223101       0.00473340      -0.00933557
C       -0.04921117       4.32418831       4.30606559      -0.01222647      -0.00056135      -0.00453198
C       -1.22513557       6.42295047       3.90735670       0.00187402      -0.00345922       0.00991438
C       -2.42774246       8.53050085       3.61221442       0.01569989       0.00093279       0.00868872
C        4.95476078      -0.00061743       3.56024845      -0.00195769      -0.00128990      -0.01199299
C        3.66977986       2.07618033       3.56712422      -0.00555266      -0.01476518       0.01209811
B        1.15629033       6.55289009       4.67173617       0.00082531       0.01606642      -0.01053913
C        0.03866000       8.55564540       3.78516950      -0.00033619       0.00839930      -0.00528294
C        7.41882510       0.01636095       3.60769394      -0.00115261      -0.00118863      -0.00660134
C        6.15507343       2.17315439       3.51935958       0.00829589      -0.00853348      -0.00634433
C        4.95883720       4.39453700       3.46910048       0.00937055      -0.00428809       0.00198415
O        3.78663737       6.48138739       3.55951171       0.00606638      -0.00189158      -0.01514715
C        2.51203974       8.54004695       3.73972751      -0.00496055      -0.00030832       0.00044671
C        9.88281047       0.01076249       3.66269189      -0.00254616       0.00121330      -0.00407094
C        8.64060635       2.15234402       3.66097156       0.00540964       0.00803957       0.01112613
C        7.40524012       4.29363192       3.57569913       0.00477043       0.00111556      -0.00174367
C        6.20906856       6.44802905       3.50362507      -0.00207690       0.00159335      -0.00049403
C        4.95711270       8.55337065       3.56087895      -0.00597585      -0.00384776       0.01461650
C        0.01281013       1.39951290       3.92339925      -0.00085920       0.01142027      -0.00659449
C       -1.22665915       3.56538159       4.01618955      -0.00565041      -0.00026579       0.00041760
C       -2.44913838       5.69870778       3.75968977      -0.00326372      -0.00107223       0.00215039
C       -3.66508215       7.82742684       3.57797048       0.01177027       0.00144820      -0.00518921
C       -4.92186486       9.94889204       3.62257042      -0.00488189      -0.00509735      -0.00309672
C        2.47810366       1.34377293       3.75801441      -0.00808174      -0.01013635      -0.01243428
P        1.45596811       3.57098660       4.82487986      -0.00545658      -0.00882583      -0.01488680
C       -0.04221419       5.72273888       4.25505986       0.00633318       0.00018617      -0.00888981
C       -1.19718096       7.83404858       3.76816209       0.01073768      -0.00140331       0.01126096
C       -2.43185320       9.94791068       3.57320475       0.00211544      -0.00047173      -0.00435744
C        4.92914748       1.44399487       3.51487446       0.00191472      -0.00658929       0.00158952
S        3.35530609       3.76585772       3.32255198      -0.01079392      -0.00276263      -0.00821265
C        1.27858663       7.88276349       3.98149525      -0.00470212       0.01215365      -0.00448662
C        0.02291930       9.98328786       3.61821598      -0.00350797       0.00378845      -0.00641839
C        7.39637331       1.45240570       3.57643726       0.00858566      -0.00092872       0.01141145
C        6.14475977       3.60747958       3.51341310       0.00913121      -0.00583517      -0.00537180
C        4.99320928       5.79393005       3.48546982       0.00527192      -0.00304932       0.00447902
C        3.75434984       7.85466286       3.62615942      -0.00554092      -0.00370491       0.01026291
C        2.49238758       9.97609921       3.64146895      -0.00276284      -0.00124236       0.00413581
C        9.88250366       1.44169769       3.73989150       0.00096267       0.00405043       0.00007536
C        8.64277514       3.57294792       3.67577786       0.00707652       0.00759505      -0.00147549
C        7.42941727       5.70591860       3.55252292      -0.00658333      -0.00011079       0.00897523
C        6.19863277       7.85538011       3.52223689      -0.00338840       0.00016139      -0.00411964
C        4.94270781       9.97677690       3.63759706      -0.00144857      -0.00072505       0.00856533
Au       2.33227901       6.07736975       6.27718070      -0.00911657       0.01424875      -0.00157217
O        1.84719291       3.54981462       6.28995301       0.00489920      -0.00106607       0.01134065
