49
Lattice="12.336457 0.0 0.0 -6.168228499999997 10.683685154694365 0.0 0.0 0.0 15.0" Properties=species:S:1:pos:R:3:forces:R:3 energy=-424.49320284682017 free_energy=-424.49320284682017 stress="0.0001093682324339599 0.00026857264604531535 2.1106199696869075e-05 0.00026857264604531535 -0.01007857143021876 -1.3437862777607967e-05 2.1106199696869075e-05 -1.3437862777607967e-05 -6.9329498004299695e-06" pbc="T T T"
C        0.00236274      -0.03145084       3.63538640      -0.00006973      -0.00009515       0.00399847
C       -1.21979885       2.13105162       3.50518598       0.00001232       0.00097842       0.00636132
C       -2.45199416       4.26518498       3.56954397      -0.00782776       0.00091418      -0.00123283
C       -3.68872806       6.38870616       3.63231332      -0.00400654       0.00116936      -0.00695631
C       -4.93841154       8.50524113       3.64392136       0.00308417       0.01717201      -0.00125648
C        2.46386577      -0.08844996       3.88269098      -0.00077154      -0.00073784       0.00648055
C        1.27648740       2.02270526       3.48328619      -0.00191840      -0.01709169       0.00392577
C       -0.00438730       4.30672385       3.33248735       0.00501191       0.00191372       0.00654439
C       -1.20642612       6.39804134       3.73197518       0.00502166      -0.00420786      -0.00087423
C       -2.45726326       8.50481516       3.88759211       0.00292138      -0.00108844      -0.00262009
C        4.93687744      -0.02721146       4.08117189      -0.00354198       0.00455844      -0.00567221
C        3.66060128       2.02537314       4.13885739      -0.00637431      -0.00707485       0.01269063
B        1.39435413       6.36459949       3.97525069      -0.00937863       0.01444804      -0.00789493
C        0.01123733       8.54504252       4.02912008       0.00108784      -0.01016230      -0.00503268
C        7.40330198       0.02968830       4.01579195      -0.00106594      -0.00117540      -0.00705648
C        6.16151624       2.14221529       3.99393973       0.00496095       0.01087630      -0.00093437
C        4.97377008       4.31093525       3.69451799       0.00904051      -0.00880008      -0.00175163
P        3.31437136       6.30590799       2.91585572       0.00047184       0.01700283      -0.00369203
C        2.46820991       8.61399183       3.86347438      -0.00113909      -0.00443850       0.00016992
C        9.88038240       0.02479322       3.75815083       0.00293240       0.00378877       0.00302828
C        8.64212799       2.14524110       3.76932582      -0.00353447       0.00205236       0.00050518
C        7.41034406       4.26627370       3.66180175      -0.00304353      -0.00851767       0.00801354
C        6.17351838       6.40115099       3.41140660       0.00071840      -0.00815820      -0.00070201
C        4.92535271       8.54616413       3.54443278      -0.00235588      -0.00157959      -0.01326563
C        0.01130687       1.39357842       3.52372685      -0.00230110      -0.00679399       0.00146489
C       -1.21768160       3.55234429       3.44288704       0.00050983       0.00361848       0.00456301
C       -2.44911160       5.68445577       3.64127870      -0.00230402       0.00331621      -0.00678003
C       -3.69386023       7.80351000       3.71765674      -0.00136762       0.00808971      -0.00105475
C       -4.94038716       9.91727111       3.72028772       0.00123579       0.01324326       0.00141596
C        2.45717953       1.31976470       3.86927266      -0.00438178      -0.00572992       0.01000686
P        1.54809728       3.61071374       2.76340374       0.01130874      -0.01139524       0.00558612
C        0.03055789       5.67991249       3.62274094       0.00915399       0.00146587       0.00013590
C       -1.21911232       7.81047363       3.91450421       0.00328269      -0.00774988      -0.00516939
C       -2.45972473       9.91921524       3.98511206      -0.00319109      -0.00137415      -0.00038017
C        4.93054633       1.40334070       4.11106620       0.00072969       0.01201031       0.00737545
P        3.41683956       3.74164144       4.29053952       0.00115851       0.00383521       0.00345767
C        1.26008641       7.88867863       3.98756250      -0.00001381      -0.00203244      -0.01019917
C        0.00590633       9.97851017       4.07167016      -0.00358340      -0.00656027      -0.01049081
C        7.40093936       1.44653324       3.94594407      -0.00004570       0.00466417      -0.00027449
C        6.17553428       3.55458876       3.79926786       0.00345469       0.00355383       0.00980186
C        4.95881397       5.66019265       3.32466200       0.00987482      -0.01260940      -0.00162785
C        3.65976500       7.91753852       3.52950937      -0.00328262       0.00256029      -0.01024962
C        2.47684127      10.03134222       3.91918676       0.00257429      -0.00335625      -0.00211054
C        9.88315052       1.44110314       3.68335858      -0.00139235       0.00379530      -0.00354805
C        8.64682792       3.55993368       3.66645622      -0.00661769      -0.00296984       0.00327858
C        7.40936570       5.68438936       3.54613761       0.00083962      -0.01075724       0.00534052
C        6.16359594       7.81800764       3.48993069       0.00472339       0.00445098      -0.00555997
C        4.93460766       9.97163881       3.65091996       0.00056523      -0.00344222       0.00189264
Au       2.35563725       5.29313661       5.58015699      -0.01116569       0.00842040       0.01034923
