50
Lattice="12.336457 0.0 0.0 -6.168228499999997 10.683685154694365 0.0 0.0 0.0 15.0" Properties=species:S:1:pos:R:3:forces:R:3 energy=-431.3619183917099 free_energy=-431.3619183917099 stress="-0.0025800576787925293 0.0013636729363473716 -4.470282200308775e-06 0.0013636729363473716 -0.010176862563614778 1.0588920242091762e-05 -4.470282200308775e-06 1.0588920242091762e-05 2.0685617140064487e-06" pbc="T T T"
C       -0.02257720       0.00179792       3.66137782       0.00412470      -0.00134605       0.00046400
C       -1.23887987       2.16035805       3.55061881      -0.00485760      -0.00842548       0.00546060
C       -2.48168200       4.29381637       3.55123209      -0.00478993       0.00533343      -0.00812687
C       -3.71979224       6.42097343       3.59843847      -0.00373516       0.00370061      -0.00117330
C       -4.96684041       8.53980419       3.61221796      -0.00028092       0.00107451      -0.00732713
C        2.43721252      -0.04906190       3.93351359       0.00281181      -0.00446989       0.00092199
C        1.25048848       2.07925413       3.73466661      -0.00117196       0.00306377      -0.01420962
C       -0.04165138       4.32151632       3.31330810      -0.01255215       0.00109932      -0.00206723
C       -1.24969326       6.43780158       3.57027792      -0.00363107       0.00400910       0.00618375
C       -2.48780660       8.54585516       3.76853106       0.00592166      -0.00508715      -0.00543057
C        4.91447787       0.00204717       4.02525610      -0.00766184       0.00651213       0.00871757
C        3.65339536       2.03098429       4.38984261       0.00466157       0.00221471       0.00133643
B        1.31960618       6.42260425       3.79320383      -0.00118872       0.00132049       0.00427839
C       -0.02392074       8.58665782       3.80309704      -0.00081002       0.00089142      -0.00676507
C        7.37733761       0.05618378       3.88126272      -0.00171610      -0.01041423       0.00541496
C        6.15282210       2.16464064       4.12630608       0.01735554      -0.00097564      -0.00792783
C        5.00186026       4.36576640       4.15117886      -0.00574438       0.00360654      -0.00975030
P        3.34146727       6.25256444       2.98703626       0.01015773      -0.00878082       0.00080118
C        2.43574366       8.64594512       3.63916593       0.00284877       0.01246227       0.01145637
C        9.85603028       0.05027918       3.67062792       0.00855691       0.00480801      -0.00847506
C        8.62228394       2.17173737       3.77952040       0.00719911      -0.00391049      -0.00296696
C        7.39895687       4.29590490       3.79452678      -0.00185710      -0.00971015      -0.00880039
C        6.14316940       6.41668403       3.53320978      -0.00315963      -0.00701444       0.00674107
C        4.90106075       8.56988660       3.47249291      -0.00195463       0.00125881       0.00686390
C       -0.00819651       1.43270768       3.63599927      -0.00205048      -0.00459683      -0.00934472
C       -1.24811061       3.57658525       3.44292411      -0.01181514      -0.00671021       0.00042401
C       -2.48600893       5.71464394       3.56160606      -0.00324027       0.00917459      -0.00325681
C       -3.72457484       7.83931703       3.64867821       0.00033125       0.00311221       0.00736180
C       -4.96536713       9.95356049       3.72844345       0.00355962      -0.00017244      -0.00540795
C        2.43683644       1.35656084       4.07174363      -0.00143138      -0.00120713       0.00847222
P        1.57267456       3.65376319       3.03766719       0.00514922       0.01210154      -0.01051449
C       -0.02400280       5.72008366       3.47672825      -0.00921318       0.00035276       0.00091086
C       -1.25412775       7.85335911       3.72988478       0.00402770      -0.00230639       0.00544936
C       -2.48585856       9.95474683       3.93094899       0.00064063      -0.00619688       0.00161368
C        4.91546728       1.42033534       4.21518063       0.01102596       0.00958540       0.00668548
P        3.59740253       3.67041532       4.97702738      -0.00716034       0.00272651       0.00024195
C        1.22004720       7.93572479       3.73200063       0.00361938       0.00550185       0.00211393
C       -0.02152288      10.01211052       3.90877129      -0.01240984      -0.00109682       0.01381944
C        7.38032496       1.47216977       3.94198849       0.01515759      -0.01171116       0.00228107
C        6.18183748       3.59130029       4.05997553      -0.00387282       0.00016895      -0.00423569
C        4.93419435       5.66056000       3.61606261      -0.01327538       0.00559975       0.00133445
C        3.64123770       7.93359951       3.40534528      -0.00396416       0.00686163       0.00700645
C        2.44571426      10.05831687       3.73792369       0.00772624       0.00937072       0.00465674
C        9.86022655       1.46746727       3.66831205       0.00171972      -0.00214840      -0.00015863
C        8.62800904       3.58776894       3.71139090       0.00164207      -0.00332174      -0.00445895
C        7.38377396       5.71098501       3.63125745      -0.00110521      -0.00935593      -0.00188662
C        6.13624846       7.83909321       3.48542970      -0.00145111      -0.00639761       0.00604499
C        4.91115730       9.99846988       3.59142721       0.00503500       0.00296524      -0.00479547
Au       2.13540439       5.38018181       5.44040614       0.00624263       0.01199559       0.00977332
O        3.49717528       3.89385799       6.50684404      -0.00341430      -0.01551596      -0.00975034
