50
Lattice="12.336457 0.0 0.0 -6.168228499999997 10.683685154694365 0.0 0.0 0.0 15.0" Properties=species:S:1:pos:R:3:forces:R:3 energy=-442.6791898821914 free_energy=-442.6791898821914 stress="-0.0012028283794211904 0.003465093569194153 -2.4301464337149307e-05 0.003465093569194153 -0.0019200348438436097 -2.7891098657339123e-06 -2.4301464337149307e-05 -2.7891098657339123e-06 1.1683574570171605e-06" pbc="T T T"
C       -0.01008676       0.01123414       3.76931715      -0.00714454      -0.00546359      -0.00339321
C       -1.22020838       2.16017864       3.69610150      -0.00124433      -0.00078193      -0.00944237
C       -2.44202768       4.29116541       3.58406196      -0.00284395       0.00129237       0.00297454
C       -3.70440535       6.41933648       3.59894760      -0.00904994       0.00817273       0.00188426
C       -4.96243439       8.54950011       3.72318478       0.00564840       0.00994315       0.00772863
C        2.45217573       0.01374347       3.70490717      -0.00411895      -0.00496264      -0.01751977
C        1.23882851       2.16963831       3.86631314       0.00268240       0.00463263      -0.00956341
C        0.03065288       4.31424217       3.79603567       0.00125954      -0.00039878      -0.00841222
C       -1.23060861       6.43945862       3.58554188       0.00863426       0.00413669       0.00167088
C       -2.49258673       8.56371348       3.57136643      -0.00566796      -0.00319778      -0.00580686
C        4.92565420       0.01125376       3.53466184      -0.00676722      -0.01088038      -0.00189330
C        3.71092237       2.13182401       3.73360125       0.00866415       0.00531746      -0.00512482
B        2.55115296       4.32424644       4.35946867       0.00849165      -0.00410882       0.00332315
N        1.18966859       6.48550091       3.70278853      -0.00540737      -0.00130507      -0.00587172
C       -0.03107588       8.56613162       3.51855942      -0.00365424      -0.00436375       0.00033650
C        7.40087774       0.01064206       3.50249041      -0.00514664       0.00137881      -0.00259320
C        6.18829870       2.12752249       3.50507744       0.00374226       0.00099544      -0.00574277
C        4.98391217       4.22634518       3.74266414       0.00094269       0.00446928      -0.00243027
P        3.40248153       6.18691603       4.40896261       0.01025809      -0.00808743       0.00752199
C        2.43100164       8.57651906       3.71342765       0.00476959      -0.00336856      -0.00562847
C        9.87036413       0.01420212       3.66060773      -0.00068231       0.00821345      -0.00796016
C        8.65532717       2.14716742       3.52412697      -0.00200421      -0.00502327      -0.00165677
C        7.43015678       4.27632666       3.54590003      -0.00193857      -0.00488163       0.00344070
C        6.16174712       6.40216467       3.77731988      -0.00672572       0.00424509      -0.00924981
C        4.90030777       8.54052729       3.86452232       0.00471249      -0.00483258      -0.00227542
C        0.00201760       1.44276855       3.77836106      -0.00317645      -0.00413118      -0.00076897
C       -1.20728209       3.59168339       3.67804287      -0.00247378      -0.00076022       0.00252411
C       -2.45622540       5.71608628       3.57802109       0.00157359       0.00931464       0.01217632
C       -3.72370359       7.84514789       3.62863606      -0.00237389       0.00750721       0.01442024
C       -4.95056062       9.97775212       3.74213458      -0.00364271       0.00237805       0.00597949
C        2.46267722       1.43487283       3.78846111       0.00514686      -0.00168800       0.00178119
C        1.23338961       3.60532357       3.97923760       0.00752344       0.01293475      -0.00101146
C        0.03392740       5.76330413       3.69486597       0.00517617      -0.00412662      -0.00734353
C       -1.25579861       7.85521421       3.53430024      -0.00302551       0.00263276       0.01008337
C       -2.48466289       9.98730796       3.59706587      -0.00846390      -0.01006382       0.00202530
C        4.94511510       1.42235422       3.56744616       0.00745192      -0.00659928      -0.00147442
C        3.76787427       3.52974581       3.87019374      -0.00212773       0.00984375      -0.00527799
C        1.18946010       7.84223596       3.62190260      -0.00044398      -0.00773503      -0.00027339
C       -0.00916999       9.98503187       3.49626442      -0.00533702      -0.00553825      -0.00508483
C        7.41930754       1.42769406       3.48325300      -0.00017612      -0.00064216       0.00768774
C        6.21323443       3.54247784       3.54890181      -0.00227669       0.00120777       0.00488620
C        4.97470938       5.63080023       3.89654455       0.01096343      -0.00707999       0.01513406
C        3.62403840       7.86477598       3.94974394       0.00069803       0.00384659       0.00465735
C        2.45953356       9.98920282       3.59885109      -0.00054445       0.00658701       0.00272123
C        9.88360158       1.44007329       3.61328803      -0.00143380       0.00539432       0.00520586
C        8.66421841       3.57202915       3.52970554      -0.00255854      -0.00770246       0.00911064
C        7.40861133       5.70068408       3.62958579      -0.00919561       0.00005087       0.00153504
C        6.13891584       7.83118811       3.81194420       0.00816280       0.00535571      -0.00186992
C        4.92200496       9.97466687       3.76756872      -0.00550247      -0.00387892      -0.00000211
Au       2.63294946       5.24278420       6.33638306       0.00864682       0.00175158      -0.00113763
