51
Lattice="12.336457 0.0 0.0 -6.168228499999997 10.683685154694365 0.0 0.0 0.0 15.0" Properties=species:S:1:pos:R:3:initial_magmoms:R:1:forces:R:3 energy=-440.1537955102774 free_energy=-440.1537955102774 stress="-0.0036522593569235954 0.0005937193745624471 4.9736692400690615e-05 0.0005937193745624471 -0.003310397951708392 2.37432919750489e-07 4.9736692400690615e-05 2.37432919750489e-07 -4.9576446653576796e-05" pbc="T T T"
C       -0.03322235       0.04517870       3.61461189       0.00000000      -0.00173571      -0.00336076      -0.00705170
C       -1.26542013       2.18086123       3.42292187       0.00000000       0.00216047       0.03501550      -0.02810753
C       -2.52241840       4.32645842       3.46641961       0.00000000      -0.02223468      -0.01083436       0.00940339
C       -3.75069768       6.46784757       3.58278536       0.00000000       0.02291577       0.00176455       0.02005586
C       -4.97007291       8.59885353       3.65130273       0.00000000       0.01225240      -0.01560301       0.02484724
C        2.43740970       0.04169677       3.69362095       0.00000000       0.01666039      -0.02313410      -0.00841169
C        1.22635076       2.12400066       3.39790958       0.00000000      -0.00370829       0.03925869       0.10251394
C       -0.10589658       4.36109600       3.25060633       0.00000000       0.02530264       0.00719804       0.00104400
C       -1.30224286       6.47290908       3.59918891       0.00000000      -0.00272486       0.00402310      -0.02099054
C       -2.50132743       8.59707040       3.67414617       0.00000000      -0.02998397       0.00219895      -0.00181912
C        4.90036563       0.04823171       3.74953862       0.00000000       0.00597651      -0.01261047       0.00507280
C        3.66308551       2.15431134       3.96881035       0.00000000      -0.01928534      -0.04216118       0.00647400
B        1.06077532       6.47102350       4.13525913       0.00000000       0.00728917      -0.04321797      -0.01690596
C       -0.04029449       8.60597311       3.80121062       0.00000000       0.00668471       0.00027607       0.02756816
C        7.37226837       0.05089704       3.76818332       0.00000000       0.01060389       0.01328001       0.02075932
C        6.13692900       2.19489895       3.85260160       0.00000000      -0.00928362      -0.01841237      -0.01143152
C        4.96532381       4.36292888       4.15775143       0.00000000       0.00390336      -0.01786723       0.01576936
N        3.76855401       6.50976557       4.22586245       0.00000000      -0.02732597       0.01022337       0.00596463
C        2.44478329       8.59165361       3.94673350       0.00000000       0.01826822       0.01349467       0.04604938
C        9.83883545       0.04650232       3.69422615       0.00000000       0.00059588       0.01328118       0.00563129
C        8.60186678       2.18620970       3.62305162       0.00000000      -0.00992671       0.01306311       0.02244025
C        7.37117911       4.33281576       3.69445924       0.00000000      -0.02413575       0.04353469      -0.00114024
C        6.13929177       6.47328049       3.77305447       0.00000000       0.01960544       0.01054954       0.03585252
C        4.90553397       8.59201100       3.80493973       0.00000000       0.02141767      -0.02579705       0.00976486
C       -0.02691127       1.47239283       3.46581683       0.00000000      -0.00468943       0.02058326      -0.01354037
C       -1.28759490       3.60126532       3.34043784       0.00000000      -0.00157612       0.02608009      -0.02739934
C       -2.53153632       5.75200974       3.52369863       0.00000000       0.00664503      -0.01895985      -0.02883107
C       -3.73923724       7.88984195       3.62110831       0.00000000      -0.00053889      -0.01579074       0.03563909
C       -4.96833185      10.02184386       3.64883317       0.00000000       0.00781147      -0.02166045       0.00378041
C        2.45380104       1.47019089       3.70891814       0.00000000      -0.01361866      -0.02481011       0.06357720
S        1.40630240       3.70397252       2.76103716       0.00000000       0.00833474       0.00334189      -0.00714756
C       -0.10586958       5.74140595       3.55480062       0.00000000       0.01273728      -0.00045859      -0.01327661
C       -1.27137210       7.89072779       3.71607501       0.00000000      -0.01623654       0.02217721      -0.06383887
C       -2.49799748      10.01796214       3.72021563       0.00000000       0.00931223      -0.01239650      -0.03113660
C        4.89216892       1.47947001       3.84755165       0.00000000      -0.01048767      -0.02164894       0.01056444
B        3.86294415       3.47377510       4.75337084       0.00000000       0.00502512      -0.03613622       0.00142766
C        1.19958005       7.93013599       3.95346713       0.00000000       0.03005820      -0.01304151      -0.00141379
C       -0.03476767      10.03058380       3.76842207       0.00000000       0.01272475       0.00757645      -0.01645382
C        7.36555433       1.48071761       3.74191276       0.00000000       0.00604181      -0.00386533      -0.03549334
C        6.13744716       3.63770631       3.89699094       0.00000000      -0.02199757       0.00059196      -0.00600440
C        4.91691405       5.77662540       4.04263970       0.00000000      -0.00560988      -0.00406773       0.00964611
C        3.69080431       7.84782363       4.00323527       0.00000000       0.00219869      -0.00192333      -0.03116707
C        2.44312811      10.01513962       3.80388874       0.00000000       0.00367037       0.00887921      -0.02086761
C        9.84094439       1.47273839       3.56897909       0.00000000       0.00195497       0.02905710      -0.00719177
C        8.59243869       3.61105955       3.58177520       0.00000000      -0.05061608       0.01488981      -0.02708472
C        7.35764607       5.75256234       3.66561456       0.00000000       0.01343736       0.03524903      -0.03716215
C        6.13297909       7.88783135       3.73069683       0.00000000       0.02370152      -0.01117648      -0.02234928
C        4.89986296      10.01460796       3.70132316       0.00000000      -0.00802585      -0.02292795      -0.00698290
Au       2.21152689       5.28085886       5.29231020       0.00000000       0.00152647       0.00636779      -0.05307490
O        3.77551864       3.28243904       6.22765357       1.00000000      -0.01858916      -0.02228111      -0.01922896
O        2.39644112       3.52453457       6.38243647       1.00000000      -0.01648576       0.06218808       0.08165757
