50
Lattice="12.336457 0.0 0.0 -6.168228499999997 10.683685154694365 0.0 0.0 0.0 15.0" Properties=species:S:1:pos:R:3:forces:R:3 energy=-438.88524493677323 free_energy=-438.88524493677323 stress="-0.0024899529861501053 0.00036436323182833917 -3.453707855497608e-06 0.00036436323182833917 0.0031655393694543835 8.515457071076206e-06 -3.453707855497608e-06 8.515457071076206e-06 1.4514573899516336e-06" pbc="T T T"
C       -0.01688737       0.01737185       3.74830227       0.00323270       0.00508749      -0.00350056
C       -1.25416136       2.14760771       3.76197237      -0.00470785       0.00093772       0.00581115
C       -2.50494083       4.28777366       3.53158144      -0.00136156       0.00027218      -0.00548690
C       -3.72714665       6.43283343       3.42110295       0.00173654      -0.00068503      -0.00087856
C       -4.95658111       8.57247833       3.54148065      -0.00024670      -0.00865984      -0.00001979
C        2.45631371       0.02508101       3.77571873      -0.00690501      -0.00080150       0.00273180
C        1.21730319       2.13720080       4.09191931       0.00244152      -0.00313699       0.00163761
C       -0.10714185       4.33818506       3.92713719      -0.00023755      -0.00086858      -0.00102925
C       -1.28716388       6.44882626       3.55859236      -0.00026127      -0.00148810      -0.00236995
C       -2.49117271       8.57373128       3.53619578       0.00217946       0.00805997       0.00586828
C        4.92295448       0.00220303       3.72854533       0.00143101       0.00043149      -0.00281839
C        3.71301350       2.11087332       4.12328945       0.00265767       0.00374377      -0.00316054
N        1.03372354       6.45429132       4.21052776      -0.00243317       0.00711989       0.00353932
C       -0.01409399       8.53805417       3.69308399      -0.00077154      -0.00108939      -0.00129074
C        7.39540442      -0.01602155       3.71976002       0.00165154       0.00445078       0.00064167
C        6.15983309       2.15236878       3.78215071      -0.00011298      -0.00169307      -0.00143164
C        4.96714208       4.34972712       3.90471302      -0.00063510      -0.00372659      -0.00566587
O        3.76854332       6.45790335       3.63007793       0.00048152      -0.00031593       0.00155062
C        2.46378396       8.47933434       3.80218361      -0.00064810       0.00060057       0.00140247
C        9.84636875      -0.01372473       3.71253165       0.00263601      -0.00630937       0.00345325
C        8.61744259       2.13817145       3.62522393       0.00510934      -0.00026925       0.00032089
C        7.38312205       4.28988015       3.51810445      -0.00113372      -0.00087515      -0.00411983
C        6.15675222       6.43314532       3.50275253      -0.00398907       0.00126655      -0.00509599
C        4.91955083       8.55152865       3.64342447      -0.00213783       0.00497005       0.00069069
C       -0.01315050       1.44669378       3.87277207      -0.00106162       0.00503798       0.00122349
C       -1.27558791       3.58112356       3.71792338      -0.00371302       0.00136012       0.00094330
C       -2.50324670       5.71431708       3.46831175       0.00038783      -0.00178860      -0.00672746
C       -3.72301093       7.86060456       3.47317890       0.00604801      -0.00049773       0.00675074
C       -4.94745171       9.99935249       3.68501741      -0.00383000      -0.00758125       0.00300248
C        2.47222147       1.44859244       4.02192678       0.00237918      -0.00046175       0.00008553
B        1.10822097       3.61445012       4.35502631       0.00008941      -0.00336023      -0.00285037
C       -0.08761608       5.76607579       3.86157121       0.00282452       0.00151670      -0.00134499
C       -1.26126077       7.86033043       3.56968776      -0.00198537       0.00002584       0.00467082
C       -2.48496797       9.99405753       3.67104751      -0.00298637       0.00800351       0.00201670
C        4.91987685       1.42950378       3.87843077       0.00089128      -0.00113415      -0.00098177
B        3.90598139       3.53358461       4.71046078      -0.00458206       0.00300174       0.00487287
C        1.18757273       7.77816799       3.90062450      -0.00089172       0.00360801       0.00269286
C       -0.00904544       9.96563714       3.69700144       0.00239694      -0.00071669       0.00049672
C        7.38506296       1.42496133       3.69027602       0.00334183       0.00475714       0.00171875
C        6.14881659       3.59862630       3.72108512      -0.00024657      -0.00380776      -0.00039482
C        4.95018286       5.73370679       3.66774712      -0.00050284      -0.00233340      -0.00296494
C        3.71896370       7.83204521       3.70390527      -0.00118493       0.00100460      -0.00154821
C        2.45455546       9.92400155       3.73847699      -0.00013730      -0.00049197       0.00063253
C        9.85109348       1.42473504       3.68251011       0.00047261      -0.00724895       0.00999713
C        8.61069417       3.56689373       3.53230689       0.00089326      -0.00017767      -0.00437140
C        7.38374307       5.71009279       3.45113256      -0.00240775       0.00151246      -0.00376265
C        6.15527514       7.85498509       3.53692021      -0.00562782       0.00016958      -0.00086389
C        4.91560038       9.98062362       3.69990405       0.00588581       0.00365784      -0.00065400
Au       2.22011020       5.05090276       5.31257817       0.00416321      -0.00448709       0.00232541
O        3.63389005       3.82494321       6.02787199       0.00140765      -0.00658990      -0.00574457
