51
Lattice="12.336457 0.0 0.0 -6.168228499999997 10.683685154694365 0.0 0.0 0.0 15.0" Properties=species:S:1:pos:R:3:forces:R:3 energy=-447.30216163989564 free_energy=-447.30216163989564 stress="0.0012195141340524778 0.0034966034403404378 2.1302014591810267e-05 0.0034966034403404378 -0.0060341661272766516 -1.1664442155045872e-05 2.1302014591810267e-05 -1.1664442155045872e-05 -1.7873794076243742e-06" pbc="T T T"
C       -0.01252310      -0.00263161       3.78907653      -0.00548794      -0.00089075      -0.00671816
C       -1.21743674       2.16047271       3.72930122       0.01152044      -0.00266815       0.00522955
C       -2.43850204       4.29257411       3.61937773       0.00278020      -0.00511131       0.00650495
C       -3.70542674       6.40985903       3.61225080       0.00617399       0.00051172       0.00225416
C       -4.96692596       8.53284321       3.72127570      -0.01017576       0.00505235       0.00345959
C        2.45286726      -0.01343086       3.72184489       0.00494094       0.00616095      -0.00661515
C        1.23891870       2.13427196       3.87804514       0.00241152      -0.00014049      -0.00574994
C        0.03578029       4.29840473       3.80931128      -0.01287517       0.00575714       0.00258882
C       -1.19927639       6.42414335       3.61088170      -0.00490681      -0.00421076       0.00705177
C       -2.48715719       8.54539366       3.58887775       0.00513892      -0.00650460       0.00264543
C        4.92761575      -0.00259689       3.54895820      -0.00004561       0.00184969      -0.00748870
C        3.71413529       2.09932213       3.73594165       0.00559346       0.00094103      -0.00572714
B        2.54978436       4.29038298       4.21092375      -0.00552987      -0.00652786      -0.00152491
C        1.30431505       6.49618076       3.68971507      -0.01225918       0.00705050       0.00239877
C       -0.02388117       8.57367839       3.51373877      -0.00087795       0.00568425       0.00731988
C        7.39765387       0.02877169       3.51606887       0.00305655      -0.00494743       0.00202469
C        6.18394184       2.12882068       3.52146522      -0.00136370      -0.00317192       0.00106443
C        4.97389798       4.22436347       3.68176513       0.00401024      -0.00326573      -0.00268236
P        3.16288906       6.15271336       4.11874419       0.00623936      -0.00145892       0.00105376
C        2.43931724       8.62536651       3.68621507      -0.00363286       0.00160606      -0.00368147
C        9.87548702       0.03224096       3.68212132       0.00228045       0.00070479      -0.00130822
C        8.65476458       2.15819546       3.56108877      -0.00038828       0.00480947      -0.01013913
C        7.42418772       4.27949861       3.55012815      -0.00010150       0.00374061       0.00665149
C        6.12052487       6.39295037       3.70426523       0.01042795      -0.00756040       0.00159614
C        4.89137481       8.53845789       3.83803069      -0.00320615      -0.00404854      -0.00256677
C        0.00035411       1.42694521       3.80470280       0.00749950      -0.00491586      -0.00427693
C       -1.20516630       3.58712111       3.71159999       0.00091638      -0.00357338       0.00852849
C       -2.44414024       5.71479570       3.60797973       0.00092554      -0.00733615       0.00527098
C       -3.72231055       7.83143860       3.64017657      -0.00406429       0.00237843       0.00310707
C       -4.95376777       9.95779726       3.75663837      -0.00380610       0.00915851      -0.00302417
C        2.46437599       1.40291872       3.79961846       0.00825312       0.00497270      -0.00275904
C        1.23394576       3.56228192       3.96391240      -0.01674489      -0.00016669       0.00228931
C        0.07626824       5.73386014       3.70808396      -0.01009141       0.00570861       0.00235650
C       -1.24340239       7.84343685       3.54940535       0.00560466      -0.00506962       0.00968604
C       -2.48102309       9.96506069       3.61396051       0.00350167      -0.00262956      -0.01029799
C        4.94805677       1.40711941       3.58125882      -0.00058057      -0.00020319      -0.00497128
C        3.77206463       3.49567390       3.82990005       0.00324306      -0.00125505      -0.00524356
C        1.21603491       7.89220814       3.59499045      -0.00444200       0.00515388      -0.00167116
C       -0.00736080       9.98912141       3.50034186      -0.00038926       0.00383052       0.00074977
C        7.41645901       1.44010185       3.51093435      -0.00137942      -0.00440181      -0.00369949
C        6.20642288       3.54460603       3.54506722       0.00357491      -0.00289392       0.00386942
C        4.90569742       5.63528085       3.74697631       0.00970931      -0.00507767       0.00417274
C        3.61368448       7.88729371       3.89467385      -0.00445943       0.00726136       0.00016109
C        2.46483910      10.02925309       3.60538618       0.00300579      -0.00157111       0.00290923
C        9.88519091       1.45281774       3.64951762       0.00618110       0.00490613      -0.00458775
C        8.66331324       3.57864153       3.56193567      -0.00135837       0.00618745       0.00142454
C        7.39055681       5.69939507       3.61423809       0.00960706       0.00112083       0.00172371
C        6.12840254       7.82305011       3.77131340      -0.00379234      -0.00826498       0.00272328
C        4.91830048       9.97419593       3.77909608      -0.00241986      -0.00422674      -0.00750656
Au       2.82540040       5.51529041       6.37663632      -0.01149735       0.00479802      -0.00153389
O        2.67059033       5.33101187       8.31684428      -0.00072004       0.00274759       0.00295819
