51
Lattice="12.336457 0.0 0.0 -6.168228499999997 10.683685154694365 0.0 0.0 0.0 15.0" Properties=species:S:1:pos:R:3:initial_magmoms:R:1:forces:R:3 energy=-442.74464006584947 free_energy=-442.74464006584947 stress="-0.0012421337443630203 -0.00018452126659437466 -3.977159548580374e-06 -0.00018452126659437466 0.003197713299743936 3.804088593963652e-07 -3.977159548580374e-06 3.804088593963652e-07 1.3488118921882733e-05" pbc="T T T"
C       -0.05474428       0.02227890       3.74153720       0.00000000       0.00307999       0.00160627      -0.00365340
C       -1.29205265       2.15505307       3.74387845       0.00000000      -0.00339034      -0.00266791       0.00809524
C       -2.53924533       4.29457110       3.51162567       0.00000000      -0.00909152      -0.00789111       0.00808811
C       -3.76263964       6.43781675       3.41507286       0.00000000       0.00047908       0.00166243       0.00209243
C       -4.99336929       8.57506251       3.54685990       0.00000000      -0.00190911       0.00900515      -0.00426744
C        2.41793473       0.02457125       3.77757104       0.00000000      -0.00543599       0.00310497       0.00309954
C        1.17817399       2.13777758       4.07870988       0.00000000       0.00432334       0.00298235       0.00064811
C       -0.13120431       4.33910748       3.89781561       0.00000000       0.00329843       0.00605465      -0.01019605
C       -1.31799955       6.45128545       3.53152177       0.00000000      -0.00880860      -0.00309827       0.00626480
C       -2.52730383       8.57687033       3.53279179       0.00000000      -0.00086201       0.00588117       0.00451808
C        4.88116465       0.01122740       3.72294518       0.00000000      -0.00371232       0.00004608      -0.00639113
C        3.66840737       2.11261930       4.14766304       0.00000000      -0.00057719      -0.00229006      -0.00296878
N        1.02342672       6.45216144       4.11229289       0.00000000      -0.00068564       0.00389885      -0.00020338
C       -0.05063797       8.54705690       3.66501154       0.00000000       0.00077657      -0.00684926       0.00432823
C        7.35335709      -0.00289963       3.69516934       0.00000000       0.00311014       0.00122121       0.01556524
C        6.11365840       2.16480334       3.76830146       0.00000000       0.00434119      -0.00451639       0.00550525
C        4.93190754       4.36483462       3.94602041       0.00000000       0.00661242      -0.00370881      -0.00647344
O        3.73052056       6.46991847       3.65540055       0.00000000      -0.00207347       0.00148985       0.00748124
C        2.42630071       8.49458173       3.77357550       0.00000000       0.00529437      -0.00410401       0.00592576
C        9.80750639      -0.00280734       3.69364854       0.00000000       0.00402750      -0.00524666       0.00601009
C        8.57622235       2.14869107       3.60937242       0.00000000       0.00046823       0.00089190      -0.01162364
C        7.34232470       4.29863796       3.50690834       0.00000000      -0.00005215      -0.00357282       0.00730791
C        6.11990229       6.44023699       3.50821733       0.00000000       0.00076649       0.00388705       0.00146142
C        4.88228067       8.56046454       3.64084077       0.00000000       0.00006494       0.00275930       0.00113108
C       -0.05088728       1.45183125       3.85902369       0.00000000       0.00386058      -0.00018794      -0.00330169
C       -1.30786362       3.58824389       3.69642272       0.00000000      -0.00268302       0.00031612       0.00388670
C       -2.53638884       5.71995792       3.45046341       0.00000000      -0.00584802      -0.00790066      -0.00029833
C       -3.75906309       7.86404634       3.47520531       0.00000000      -0.00049422       0.00677865      -0.00709519
C       -4.98540449      10.00155431       3.68625038       0.00000000      -0.00079231       0.00412422       0.00009350
C        2.43622414       1.45185796       4.02428771       0.00000000      -0.00154855      -0.00143839       0.00026851
B        1.09210209       3.61812054       4.32305915       0.00000000       0.00326635       0.00425139      -0.00334763
C       -0.10834967       5.76644776       3.81387580       0.00000000       0.00090549       0.00722958      -0.01079801
C       -1.29642504       7.86412019       3.55043009       0.00000000      -0.00282038      -0.00335357      -0.00839267
C       -2.52340217       9.99741911       3.67143652       0.00000000      -0.00603622       0.00616448      -0.00262818
C        4.86996097       1.44236346       3.87809279       0.00000000      -0.00096252       0.00128731      -0.00270964
B        3.87769954       3.53658769       4.77328653       0.00000000      -0.00715244       0.00159101       0.00123087
C        1.15440227       7.78554652       3.85093049       0.00000000       0.00617165      -0.00381860      -0.01289379
C       -0.04974708       9.97633753       3.67847593       0.00000000      -0.00006559      -0.00326550       0.00129968
C        7.34044035       1.43826740       3.67218949       0.00000000       0.00523656       0.00191909       0.00106719
C        6.10376411       3.61137102       3.71632978       0.00000000       0.00635397      -0.00941967      -0.00258063
C        4.91097064       5.74059183       3.68375090       0.00000000      -0.00026780      -0.00124021      -0.00399407
C        3.68126866       7.84503946       3.69866549       0.00000000       0.00334375      -0.00149239       0.00540707
C        2.41435418       9.93826804       3.71248759       0.00000000       0.00438382      -0.00399085       0.00376383
C        9.81162579       1.43509239       3.66498736       0.00000000      -0.00325717      -0.00321777       0.00962729
C        8.57208887       3.57658386       3.51615583       0.00000000      -0.00558828      -0.00349213       0.00183283
C        7.34640304       5.71820137       3.44768410       0.00000000       0.00016957      -0.00005711       0.00465344
C        6.11819372       7.86004458       3.54396608       0.00000000      -0.00213389       0.00893863      -0.01003809
C        4.87741058       9.98914880       3.68955718       0.00000000       0.00448492       0.00063346      -0.00145736
Au       2.23596708       5.01982154       5.28857980       0.00000000       0.00092373       0.00469653       0.00604350
O        3.64529931       4.62384251       6.75512090       1.00000000      -0.00127955       0.00199128       0.00553497
O        4.18360626       3.43822306       6.22905059       1.00000000       0.00178526      -0.00759288      -0.01691939
