50
Lattice="12.336457 0.0 0.0 -6.168228499999997 10.683685154694365 0.0 0.0 0.0 15.0" Properties=species:S:1:pos:R:3:forces:R:3 energy=-438.923553760222 free_energy=-438.923553760222 stress="-0.003465490215415238 -0.0026275816803411193 -9.86685893467784e-06 -0.0026275816803411193 0.002710345625697736 1.3596274662657095e-05 -9.86685893467784e-06 1.3596274662657095e-05 -6.69680122796231e-07" pbc="T T T"
C        0.01899193       0.01707663       3.72369055       0.00096148       0.00568852       0.00459712
C       -1.24510694       2.13746323       3.87504508      -0.00601787       0.00377884       0.00800304
C       -2.47221983       4.29258040       3.63928590      -0.00306530      -0.00910866       0.00122053
C       -3.67063613       6.44063253       3.44182519       0.01132843       0.00830986       0.00746965
C       -4.90060091       8.58678079       3.48609346       0.00217318      -0.00207735       0.00233710
C        2.48347633       0.03424202       3.80335455      -0.00259353       0.00088162      -0.00223422
C        1.21438401       2.10459596       4.21513516       0.00404806      -0.00602020      -0.00303905
C       -0.10791461       4.30317375       4.21392000      -0.00618458       0.00749469       0.01066264
C       -1.23940886       6.43413885       3.75832627      -0.00596156      -0.00500800       0.00094646
C       -2.44365164       8.58048273       3.62940147      -0.00302181      -0.00073601       0.00712961
C        4.95800991       0.01831981       3.77778678      -0.00613320      -0.00633527      -0.00907764
C        3.71416642       2.15891452       4.00968612       0.00658059       0.00758131       0.00236947
C        1.17047251       6.41783153       4.24887673      -0.00076209      -0.00539148      -0.00398120
C        0.03059634       8.53834077       3.80668240      -0.00609941       0.00610204      -0.00520886
C        7.42510865      -0.00720433       3.72279514       0.00678753       0.01249959      -0.00702947
C        6.17739166       2.16684112       3.67924865      -0.00540491      -0.00426060      -0.00133642
C        5.00239178       4.38002565       3.59075611       0.00075095      -0.00185075      -0.00337632
O        3.83984281       6.48969904       3.45021376      -0.00210551      -0.01183876       0.00415084
C        2.52062306       8.49755602       3.76134265      -0.00068085      -0.00630122       0.00169721
C        9.88075473      -0.00769590       3.68167120      -0.00395719       0.00007773      -0.00171192
C        8.64179571       2.14391826       3.62584586       0.00194096       0.00058194       0.00251642
C        7.42765509       4.29861932       3.43517077       0.00016327       0.00405045       0.00362704
C        6.22616333       6.46596577       3.29977381       0.00334195      -0.00067287      -0.00835482
C        4.97407363       8.57344200       3.50021352       0.00352809       0.00466342       0.00057585
C        0.00786082       1.43167561       3.94871554      -0.00503300       0.00407891       0.00560637
C       -1.25833213       3.57781932       3.90262039       0.00089447       0.00315640       0.00602414
C       -2.45612944       5.71820138       3.58923831      -0.00201200      -0.00965408       0.01638018
C       -3.66611186       7.86969589       3.49620123       0.00292184       0.00562373       0.00138309
C       -4.90758290      10.00675899       3.66738831      -0.00071371      -0.00083896      -0.00429052
C        2.46091322       1.45946086       4.03629769       0.00678595       0.00564030      -0.00567226
B        1.03534318       3.49256524       4.90585018       0.00060874      -0.00399188      -0.00798071
C       -0.04085770       5.71010689       4.07492439      -0.00184276      -0.00209156      -0.00709843
C       -1.21272642       7.85532352       3.72039804      -0.00645249      -0.00327902       0.00510698
C       -2.44739021      10.00329886       3.73317424      -0.00897025      -0.00415999       0.00474628
C        4.94542049       1.45553464       3.82146200      -0.00520624      -0.00690212      -0.00969335
B        3.81037383       3.65448592       4.10369881       0.00284895       0.00607797       0.00331071
C        1.26843495       7.77099044       3.93067040      -0.00769109      -0.00121169       0.00356422
C        0.02402835       9.96984140       3.75995371       0.00474624       0.01026596      -0.01261734
C        7.41076908       1.43060682       3.65663471       0.00159057       0.00959702      -0.00089602
C        6.19019196       3.60060352       3.54566445      -0.00290046      -0.00265331       0.00313360
C        5.02734783       5.77694711       3.38820048       0.00235953      -0.00640188      -0.01088106
C        3.77035740       7.86654272       3.58080421       0.00223662      -0.00494707      -0.00845662
C        2.49258991       9.93786661       3.70978825      -0.00180803      -0.00214349       0.00014871
C        9.87525719       1.42825205       3.71158535      -0.00242652      -0.00105556       0.00138887
C        8.64851350       3.57338978       3.54171130      -0.00358702      -0.00424211      -0.00189272
C        7.44357463       5.72281582       3.35912155       0.01192356       0.00871763      -0.00540113
C        6.21617631       7.88493268       3.38634620       0.00209137      -0.00157862       0.01332693
C        4.95500418       9.99088409       3.62786843       0.00113593       0.00847634       0.00007187
Au       2.61714778       5.11955153       4.93636753       0.01205548       0.00558117      -0.01202682
O        1.50229038       3.78421390       6.14990955       0.00682762      -0.01417292       0.01076199
