51
Lattice="12.336457 0.0 0.0 -6.168228499999997 10.683685154694365 0.0 0.0 0.0 15.0" Properties=species:S:1:pos:R:3:initial_magmoms:R:1:forces:R:3 energy=-434.96689523540283 free_energy=-434.96689523540283 stress="3.986146226735228e-05 -0.003931916479807079 6.90087002489545e-05 -0.003931916479807079 -0.0016442476624264127 -4.993525226465244e-05 6.90087002489545e-05 -4.993525226465244e-05 7.785865855407721e-05" pbc="T T T"
C       -0.08689315      -0.08822322       3.76822876       0.00000000       0.03447657       0.00754227      -0.00064998
C       -1.34050373       2.04622250       3.96270805       0.00000000       0.01960767      -0.01890823       0.02214146
C       -2.57368898       4.19300671       3.83267104       0.00000000       0.04078888       0.01854814      -0.04443666
C       -3.75676702       6.33679877       3.62500416       0.00000000      -0.04624333      -0.01611751       0.00825159
C       -4.99642715       8.46942424       3.58564211       0.00000000      -0.00290099       0.01079282      -0.01349256
C        2.39466022      -0.11262347       3.75409686       0.00000000      -0.00402899       0.00095783      -0.00013320
C        1.15501944       1.98279579       4.16674943       0.00000000       0.03718378      -0.00707905       0.02060955
C       -0.19751016       4.20906596       4.41832540       0.00000000      -0.01244665      -0.02596861      -0.02650851
C       -1.31789302       6.33512199       3.99557400       0.00000000      -0.01419455      -0.02556322       0.00250222
C       -2.51669503       8.45733571       3.73356577       0.00000000       0.01196324       0.00196251       0.01354850
C        4.86078109      -0.08281153       3.65984120       0.00000000       0.02238726       0.01316728       0.05117618
C        3.57389315       2.00565716       3.57302883       0.00000000       0.02497853      -0.02810318      -0.01167904
B        1.10617858       6.38082437       4.65105827       0.00000000      -0.07250930       0.01430160       0.02044236
C       -0.04076587       8.46359606       3.92064498       0.00000000      -0.04260833      -0.01010434      -0.01790954
C        7.32325394      -0.07647525       3.66853744       0.00000000       0.00548514      -0.02598951       0.00344921
C        6.05888547       2.08326364       3.48299905       0.00000000       0.02862443       0.00768417      -0.00039672
C        4.88555035       4.30802657       3.29035365       0.00000000       0.03923938       0.02224601      -0.02922865
O        3.71031728       6.39988594       3.43666456       0.00000000       0.00860007       0.00080620       0.01240302
C        2.43043400       8.43884928       3.79210460       0.00000000      -0.00733985       0.00372106       0.00412167
C        9.78256087      -0.08249076       3.69600474       0.00000000       0.00282112      -0.01911608      -0.02620052
C        8.53892160       2.06299601       3.64809989       0.00000000      -0.02549588       0.01260617       0.02355579
C        7.31695483       4.21369333       3.48386904       0.00000000      -0.02246168      -0.02514708       0.06221205
C        6.12677241       6.37292400       3.39365978       0.00000000      -0.00246909       0.02357867      -0.01616514
C        4.86925401       8.47342101       3.52672844       0.00000000       0.01246540       0.01525798       0.03604784
C       -0.10040364       1.32489912       3.99158581       0.00000000       0.04099254       0.01427052      -0.02360990
C       -1.36378148       3.46684840       4.06531624       0.00000000       0.02103857       0.00143673       0.03588838
C       -2.54835015       5.61949993       3.80929881       0.00000000       0.01590073      -0.00651819      -0.02806233
C       -3.75206396       7.75682955       3.63785730       0.00000000      -0.00756868      -0.00466006       0.01858054
C       -5.01363645       9.88294376       3.70941657       0.00000000      -0.00286464      -0.00283821       0.01305875
C        2.37823374       1.29853586       3.85544831       0.00000000       0.01834116      -0.01568439       0.04361992
P        1.18436386       3.43696870       5.14309603       0.00000000      -0.05603417       0.02297276       0.00192919
C       -0.14617812       5.61875092       4.33482196       0.00000000      -0.06030462      -0.02252383      -0.00058110
C       -1.28247002       7.75191233       3.89109826       0.00000000      -0.02351819      -0.01674890      -0.00121545
C       -2.52940335       9.87745656       3.70631893       0.00000000       0.00356033       0.02666212      -0.01996539
C        4.83417942       1.35776320       3.54487233       0.00000000       0.04648604      -0.00412581      -0.00039283
S        3.30991916       3.64516418       3.11604474       0.00000000      -0.00939617       0.02261811      -0.00093108
C        1.20597566       7.77693064       4.09094259       0.00000000      -0.06195874       0.00222303      -0.07623488
C       -0.06951981       9.89281559       3.73207099       0.00000000       0.00645738      -0.01716723      -0.02433923
C        7.29895419       1.36062536       3.57769862       0.00000000      -0.00623814      -0.01340819       0.00377708
C        6.06305855       3.51804447       3.39773041       0.00000000       0.00544526       0.00439673       0.03143686
C        4.91509092       5.71083432       3.32679482       0.00000000       0.01101527       0.01928996       0.03120637
C        3.67004984       7.76273261       3.57506027       0.00000000       0.00472724       0.01062277      -0.02012753
C        2.39520632       9.87696219       3.69368477       0.00000000       0.00533629      -0.01502716       0.00134111
C        9.77299914       1.34655799       3.76108322       0.00000000      -0.00481296      -0.00482713      -0.01128696
C        8.54087830       3.48866216       3.64074307       0.00000000      -0.00419407       0.00539243      -0.00207879
C        7.34524564       5.63334122       3.47981818       0.00000000      -0.03914284      -0.02918882      -0.01566483
C        6.11589364       7.78250032       3.47332936       0.00000000      -0.01000024       0.01495760       0.01159337
C        4.85050718       9.89336533       3.66060879       0.00000000       0.03341565       0.00615845      -0.01542612
Au       2.43201824       5.33297870       5.91922251       0.00000000       0.03084740       0.05793496      -0.07810228
O        3.76382873       7.02301851       6.37118771       1.00000000      -0.03873530       0.04353783      -0.03565134
O        4.92161021       6.73045899       5.93740879       1.00000000       0.04528205      -0.05083199       0.06757750
