52
Lattice="12.336457 0.0 0.0 -6.168228499999997 10.683685154694365 0.0 0.0 0.0 15.0" Properties=species:S:1:pos:R:3:initial_magmoms:R:1:forces:R:3 energy=-452.55468208512707 free_energy=-452.55468208512707 stress="-0.0024843653690201045 0.003797276586939241 1.2578499292658686e-05 0.003797276586939241 -0.001280603855535338 2.504267833186579e-06 1.2578499292658686e-05 2.504267833186579e-06 -1.9338859971828514e-05" pbc="T T T"
C        0.05969278       0.05384294       3.75582954       0.00000000       0.00167455       0.00108669       0.00651133
C       -1.14914516       2.19991468       3.67790693       0.00000000      -0.00748992       0.00616697       0.00721936
C       -2.37342420       4.33473325       3.60749625       0.00000000      -0.00441737      -0.00601478      -0.00819738
C       -3.63381234       6.46471178       3.64671965       0.00000000       0.00200098      -0.00416329       0.01104042
C       -4.89126449       8.59544763       3.75808373       0.00000000       0.00195603       0.00351340      -0.00413664
C        2.52124031       0.06301083       3.67565877       0.00000000       0.00964528      -0.00978074      -0.01047351
C        1.31108086       2.22004845       3.80680832       0.00000000      -0.00088418      -0.00449203       0.00018542
C        0.09223804       4.35860526       3.76273674       0.00000000       0.00414364       0.00258078      -0.01935855
C       -1.16665079       6.48607874       3.59025512       0.00000000      -0.00154777      -0.00281794       0.00636797
C       -2.42479807       8.61098584       3.57769156       0.00000000       0.00202657      -0.00931272      -0.00346280
C        4.99551250       0.05582643       3.50124928       0.00000000       0.00707848       0.00030057       0.00879689
C        3.78427732       2.18121383       3.67622865       0.00000000      -0.00143846      -0.00656302       0.02578968
B        2.62159880       4.40273477       4.18170811       0.00000000       0.00548479      -0.00807402      -0.01841649
N        1.24834804       6.52638345       3.66822931       0.00000000      -0.00484421      -0.00174225       0.01044064
C        0.03683458       8.60932228       3.50376506       0.00000000       0.00412076      -0.00297581      -0.00765951
C        7.47381209       0.04848137       3.48180159       0.00000000      -0.00144556       0.00159079       0.01001333
C        6.26490951       2.16807885       3.50540126       0.00000000      -0.00322005       0.00591781       0.00234518
C        5.07214797       4.26592625       3.78100169       0.00000000       0.00948572      -0.00368291      -0.00277249
P        3.47504173       6.21970936       4.45856862       0.00000000       0.00086696       0.02009398       0.00000111
C        2.50256528       8.61008657       3.70614524       0.00000000       0.00003369       0.00356462       0.00442612
C        9.94205225       0.04997590       3.64656149       0.00000000      -0.00125676       0.01105854      -0.00551855
C        8.72946500       2.18634627       3.53235200       0.00000000      -0.01735825      -0.00340443      -0.00006882
C        7.50714622       4.31786090       3.59840290       0.00000000       0.00806311      -0.00003651       0.01269529
C        6.24213086       6.44420848       3.86019825       0.00000000      -0.00227824       0.00259875      -0.00874873
C        4.97031945       8.57853985       3.88710031       0.00000000      -0.00210184       0.00853485      -0.00320819
C        0.07427384       1.48638755       3.74781480       0.00000000      -0.00546144       0.00015737      -0.00969521
C       -1.13989287       3.63303770       3.67077435       0.00000000      -0.00019267       0.00516221      -0.00425588
C       -2.38886918       5.76074843       3.60668565       0.00000000       0.00030275      -0.00660614       0.00572134
C       -3.65341213       7.89154135       3.66524091       0.00000000      -0.00184001      -0.00427469      -0.01023834
C       -4.88011382      10.02437697       3.73973246       0.00000000       0.00629147       0.00043609       0.00125387
C        2.53446983       1.48656328       3.72903620       0.00000000      -0.00039126      -0.01081438       0.00168404
C        1.30421983       3.65636386       3.89866352       0.00000000       0.00168123       0.00001551      -0.00337700
C        0.09336179       5.80722803       3.67386848       0.00000000      -0.00497056      -0.00065857      -0.00104025
C       -1.18951595       7.90210942       3.53613714       0.00000000       0.00282843      -0.00323263      -0.00879467
C       -2.41644517      10.03495091       3.57505774       0.00000000       0.01157506      -0.00930640       0.00716821
C        5.01850975       1.46725645       3.53469725       0.00000000      -0.00159069       0.00265169       0.00287167
C        3.84457249       3.57760732       3.82291307       0.00000000       0.00372068       0.00030611      -0.02212042
C        1.25517645       7.88250232       3.60752916       0.00000000       0.00321860      -0.00454199      -0.00468378
C        0.06063652      10.02770077       3.46831378       0.00000000       0.00478815      -0.00193253       0.02409986
C        7.49430091       1.46643496       3.48295319       0.00000000      -0.01239518      -0.00119224      -0.02227764
C        6.29412488       3.58194863       3.58824738       0.00000000       0.00963675       0.00394428      -0.01600404
C        5.06339289       5.66703097       3.98687408       0.00000000       0.00096076      -0.00282627       0.02134361
C        3.69397079       7.89803241       3.96544848       0.00000000      -0.00073833       0.00721882      -0.00727498
C        2.53168776      10.02344161       3.58319400       0.00000000       0.00101870       0.00778569       0.00603929
C        9.95642523       1.47739772       3.60267988       0.00000000      -0.01241990       0.00947747       0.02032924
C        8.73733284       3.61232030       3.56205252       0.00000000      -0.00459165      -0.00697986      -0.00248882
C        7.48433558       5.74217591       3.69679964       0.00000000       0.00228658       0.00171939       0.00075854
C        6.21311946       7.87446046       3.86649042       0.00000000      -0.00280351       0.00769166      -0.01283992
C        4.99251985      10.01223434       3.76265271       0.00000000      -0.00272342       0.00942783       0.02373069
Au       2.53092730       5.33877075       6.38906807       0.00000000      -0.00208298      -0.01971477      -0.09245540
O        1.31390451       4.47159660       8.02387420       1.00000000      -0.01346856      -0.02457382      -0.03474649
O        0.51305534       3.70557773       7.38554163       1.00000000       0.00906307       0.03671287       0.12348135
