52
Lattice="12.336457 0.0 0.0 -6.168228499999997 10.683685154694365 0.0 0.0 0.0 15.0" Properties=species:S:1:pos:R:3:forces:R:3 energy=-446.1194177065627 free_energy=-446.1194177065627 stress="-0.0015188256227516204 -0.0007617352725315928 -9.151872280287386e-06 -0.0007617352725315928 0.0016163787572840576 2.0474307198654735e-06 -9.151872280287386e-06 2.0474307198654735e-06 4.067840554886635e-06" pbc="T T T"
C       -0.08730068      -0.07418930       3.84328153       0.00615888       0.00398009      -0.00999553
C       -1.32031250       2.06585880       3.90058666      -0.00582390      -0.00179315      -0.00855152
C       -2.55860200       4.20506761       3.72409800      -0.00541018      -0.00277301      -0.00033931
C       -3.78515834       6.34474795       3.59108101      -0.00213881      -0.00186699       0.00108094
C       -5.02149697       8.48145389       3.65840189       0.00841402      -0.00196759      -0.00072509
C        2.38454556      -0.08008930       3.85193189      -0.00687834       0.00090022       0.00933766
C        1.15145289       2.03241975       4.13101456      -0.00156588      -0.00034852       0.00529710
C       -0.12757570       4.24667249       4.06462564      -0.00345581       0.00337409       0.00800708
C       -1.33965332       6.35753267       3.73594333      -0.00010969       0.00170857      -0.00703373
C       -2.55335283       8.48243476       3.67781738       0.00268463       0.00157505      -0.00185090
C        4.85496688      -0.07380335       3.78703204      -0.00059554      -0.00962061      -0.00353129
C        3.61525531       2.04503323       4.02896240       0.00373557       0.00458932       0.00797466
N        1.04380794       6.37135293       4.12490571       0.00339190      -0.00083394      -0.00969093
C       -0.07825911       8.46112119       3.76728867       0.00058265      -0.00232060      -0.00203591
C        7.32556807      -0.08978721       3.77094960       0.00873664       0.00504860       0.00708527
C        6.07975482       2.07877407       3.76785815      -0.00305099      -0.00018013       0.00639096
C        4.86826242       4.27846269       3.75816755      -0.00228740       0.00004160       0.00572590
O        3.70530184       6.38757611       3.56373009       0.00087307       0.00093556      -0.00339864
C        2.40278130       8.40930071       3.80196731      -0.00135016      -0.00098070       0.00153323
C        9.77904532      -0.09097915       3.79538039       0.01069656       0.00617274       0.00120540
C        8.55017297       2.06067414       3.74006184      -0.00471298      -0.00191446      -0.00333588
C        7.31958771       4.20868261       3.61490957      -0.00186425      -0.00704739      -0.00470226
C        6.09737650       6.36033987       3.54150733      -0.00335354      -0.00181651      -0.00458076
C        4.85272431       8.47044794       3.69653288       0.00308278       0.00206978       0.00595209
C       -0.08607772       1.35303334       3.96754626      -0.00199113       0.00047985       0.00009699
C       -1.31899387       3.50215060       3.89101823      -0.00425899      -0.00037828      -0.00067271
C       -2.55678961       5.62908461       3.66721023      -0.00174566      -0.00101215      -0.00787902
C       -3.78484533       7.77022060       3.62343418       0.00776197      -0.00215342       0.01167014
C       -5.01917928       9.90281144       3.78541997       0.00115776      -0.00262509      -0.00156622
C        2.38564736       1.33970561       4.03368929       0.00067889       0.00275434       0.00778748
B        1.12176222       3.50702682       4.40666783       0.00039770       0.00234970      -0.00517920
C       -0.10210163       5.67885517       3.96512113      -0.00043147       0.00367629       0.00444264
C       -1.32203525       7.76935953       3.70720892       0.00041408       0.00167934      -0.00156834
C       -2.54879243       9.90253506       3.76634375      -0.00816686      -0.00022139      -0.00657341
C        4.84885945       1.35896179       3.85426748      -0.00031015      -0.00540870      -0.00093139
B        3.64473161       3.53215978       4.21609477      -0.01160237       0.01192069      -0.00593274
C        1.13650200       7.69703819       3.89336823      -0.00409145       0.00019703       0.00271760
C       -0.07743952       9.88842552       3.76143731       0.00787535      -0.00337545      -0.00105901
C        7.31642174       1.34852677       3.74662388      -0.00216863       0.00367813      -0.00242796
C        6.07306644       3.51416919       3.69851551      -0.00392131      -0.00172431      -0.00097703
C        4.88194709       5.68312221       3.58453259      -0.00197435      -0.00077320       0.00988670
C        3.65246971       7.75015090       3.69524458      -0.00213719      -0.00110730      -0.00573779
C        2.38698310       9.84805796       3.78399093       0.01160287       0.00396583       0.01240011
C        9.78392685       1.34703406       3.80736869      -0.00449584       0.00331195      -0.00813361
C        8.55162874       3.48926909       3.67929137      -0.00311982      -0.00624140       0.00759567
C        7.32483491       5.62933733       3.56348872      -0.00432648      -0.00607068       0.00289213
C        6.09101251       7.77578976       3.61461538       0.00489324       0.00114008      -0.01169267
C        4.84650646       9.89592665       3.78197423       0.00936305       0.00596954       0.00275086
Au       2.42066614       4.70159550       5.45764118      -0.00497897      -0.00187604      -0.00622335
O        3.79774855       5.99746460       6.27173957       0.00364420      -0.00274502       0.00984034
O        3.79392443       5.72967696       7.68550045       0.01334158      -0.01048840       0.00098413
H        4.74260178       5.54740263       7.84014330      -0.00716925       0.00814604      -0.00632888
