51
Lattice="12.336457 0.0 0.0 -6.168228499999997 10.683685154694365 0.0 0.0 0.0 15.0" Properties=species:S:1:pos:R:3:initial_magmoms:R:1:forces:R:3 energy=-436.2520931521582 free_energy=-436.2520931521582 stress="-0.0029071673087612956 0.000421620746662729 -7.326580676790918e-06 0.000421620746662729 -0.0070578161030816645 6.4177266016682495e-06 -7.326580676790918e-06 6.4177266016682495e-06 1.0795990467115832e-05" pbc="T T T"
C       -0.04821413       0.04574153       3.68427508       0.00000000      -0.00204768       0.00102521       0.00139354
C       -1.28413244       2.18308647       3.71965435       0.00000000       0.00262857       0.00197432      -0.00804941
C       -2.53270438       4.32595160       3.52606086       0.00000000       0.00393507      -0.00423747       0.00276193
C       -3.75649971       6.46268283       3.47944732       0.00000000       0.00461301      -0.00398593       0.00713288
C       -4.99676759       8.58781093       3.51958203       0.00000000      -0.00117088       0.00051389       0.00896424
C        2.41727574       0.03083577       3.82921740       0.00000000      -0.00212627       0.00432577       0.00773693
C        1.17538788       2.13454700       4.13116734       0.00000000       0.00151486       0.00144545      -0.00090715
C       -0.10657437       4.30124257       3.79150140       0.00000000       0.00157055      -0.00946184       0.00276796
C       -1.28566509       6.46455297       3.51517669       0.00000000       0.00018676       0.00373518      -0.00496049
C       -2.51682909       8.59207625       3.60033160       0.00000000      -0.00418609       0.00387828       0.00538936
C        4.87511618       0.05014889       3.79201958       0.00000000      -0.00015192      -0.00292860       0.00260469
C        3.66254417       2.12162838       4.27167517       0.00000000       0.00293674      -0.00368250      -0.00574075
P        1.46808115       6.30623356       4.07816019       0.00000000       0.01010913      -0.00137041       0.01377179
C       -0.05126771       8.61530872       3.69823445       0.00000000       0.00049939       0.00872444       0.00257278
C        7.33827167       0.08713129       3.68366475       0.00000000       0.00244588       0.00451804       0.00473765
C        6.11559270       2.19814562       3.89250299       0.00000000      -0.00300556      -0.00237948       0.00057532
C        4.94725233       4.35220489       4.07342568       0.00000000       0.00456033       0.00361071       0.00370717
S        3.43095227       6.29756733       2.83729285       0.00000000      -0.00117064      -0.00493390       0.00791603
C        2.42789462       8.68389062       3.55178197       0.00000000      -0.00216535       0.00586552      -0.00041363
C        9.82749345       0.08296208       3.58287319       0.00000000       0.00033282      -0.00234436      -0.00285483
C        8.57981908       2.20376675       3.64067483       0.00000000      -0.00142527      -0.00226335       0.01240143
C        7.34985894       4.33278696       3.63475080       0.00000000      -0.00065938      -0.00104838      -0.00086406
C        6.09568598       6.45008798       3.48991509       0.00000000      -0.00594650      -0.00303695      -0.01396358
C        4.87859415       8.60690206       3.40325147       0.00000000       0.00237434      -0.00197044      -0.00051743
C       -0.04714027       1.46636204       3.84827168       0.00000000       0.00122433       0.00224011      -0.00665309
C       -1.31209253       3.59469704       3.65491231       0.00000000       0.00254382       0.00081941      -0.00033003
C       -2.52672571       5.74864898       3.47987700       0.00000000       0.00627131      -0.00444229      -0.00302227
C       -3.75471019       7.88411056       3.51713760       0.00000000      -0.00209363      -0.00151735      -0.00423863
C       -4.98465602      10.01237762       3.67035337       0.00000000      -0.00097608       0.00397119       0.00529686
C        2.43364339       1.45118251       4.10599088       0.00000000       0.00159250       0.00411955       0.00114813
B        1.10140881       3.61119976       4.37532098       0.00000000      -0.00354607      -0.00699399      -0.00614984
C       -0.09126696       5.69831153       3.60586446       0.00000000      -0.00384428      -0.00525583      -0.00415002
C       -1.27958187       7.88737168       3.60386081       0.00000000      -0.00161777       0.01407835      -0.00521671
C       -2.52200865      10.01267846       3.73895276       0.00000000      -0.00396797       0.00335182      -0.00424999
C        4.86933286       1.47271364       3.97948865       0.00000000       0.00081532      -0.00421561      -0.00337272
B        3.90554483       3.51803633       4.95770801       0.00000000      -0.01274427      -0.00091386       0.00434377
C        1.21836100       7.97879242       3.74616713       0.00000000       0.00382125      -0.00287780      -0.00091825
C       -0.05871235      10.04500548       3.71189224       0.00000000       0.00435454       0.00473374      -0.00349802
C        7.33754838       1.50353723       3.72531502       0.00000000      -0.00300924       0.00181128       0.00116224
C        6.12958765       3.62839077       3.88094235       0.00000000      -0.00308626       0.00031164      -0.00807965
C        4.89400378       5.65651397       3.58472473       0.00000000      -0.01178138       0.00221901       0.00612527
C        3.62699589       7.97311677       3.31560538       0.00000000       0.00130837       0.00788621       0.00413154
C        2.41625631      10.09300051       3.59034323       0.00000000      -0.00133681       0.00186563      -0.00087119
C        9.81964170       1.49497569       3.63295689       0.00000000       0.00138269      -0.00105722      -0.00290202
C        8.57717774       3.62002021       3.58549334       0.00000000       0.00016600      -0.00332844      -0.00119332
C        7.34192077       5.75040652       3.52987464       0.00000000      -0.00231289      -0.00188924      -0.00204664
C        6.10334024       7.87332879       3.42673895       0.00000000       0.00125487      -0.00322370      -0.00179634
C        4.88845579      10.03949985       3.54429267       0.00000000      -0.00010415      -0.00349271      -0.00549689
Au       2.25858245       4.82160505       5.70315643       0.00000000       0.01195917      -0.00356617       0.01087375
O        3.37300264       3.66963651       7.13264644       1.00000000      -0.00020666      -0.00223959      -0.00069369
O        4.46054398       3.34786480       6.33638463       1.00000000       0.00028137       0.00163262      -0.01436464
