49
Lattice="12.336457 0.0 0.0 -6.168228499999997 10.683685154694365 0.0 0.0 0.0 15.0" Properties=species:S:1:pos:R:3:forces:R:3 energy=-425.6457611990263 free_energy=-425.6457611990263 stress="-0.0005196504885745876 0.00010889523187495238 -1.9099572402326368e-05 0.00010889523187495238 -0.0060810191720319685 -9.018749790097583e-06 -1.9099572402326368e-05 -9.018749790097583e-06 1.3004431349931659e-06" pbc="T T T"
C        0.00674697      -0.00475440       3.94034860      -0.00904023       0.00279371       0.00119672
C       -1.21834633       2.14754056       3.85807329       0.00004761       0.00773119      -0.00747316
C       -2.45790943       4.28199220       3.61596884       0.00054518       0.00005553       0.00516087
C       -3.69066431       6.41156462       3.60690924       0.00564013      -0.01243945      -0.00030968
C       -4.93942697       8.52822079       3.81409242      -0.00163295       0.01004577      -0.00253969
C        2.47530029      -0.02947406       3.83334336       0.00809658       0.00273309       0.00429961
C        1.26768221       2.11352747       4.01543090       0.00678639      -0.00800505      -0.00832689
C       -0.02387723       4.28936638       3.90307368      -0.00416789       0.00416373      -0.00783320
C       -1.20815539       6.41715571       3.69798120       0.00192926       0.00123711      -0.00144212
C       -2.45891672       8.53715422       3.74347866      -0.00488543      -0.00346603       0.00353627
C        4.93874907       0.00187003       3.67444141       0.00090776      -0.00250840      -0.00960587
C        3.67289490       2.05213169       3.38306541       0.00214509       0.01010992      -0.00941777
B        1.38022091       6.38606007       3.98228818       0.00098017      -0.00614108       0.00329644
C        0.00539937       8.56709034       3.83309321      -0.00541215      -0.01032601       0.00859905
C        7.39701779       0.04253522       3.75427113       0.00043596      -0.00164457       0.00135430
C        6.16874745       2.13976821       3.37323450      -0.01210033      -0.00227438      -0.00860684
C        5.00870011       4.29205223       3.03412942       0.00116142       0.00298579       0.00906161
P        3.39554961       6.19463055       4.00175469       0.00605854      -0.00005971       0.01665267
C        2.45525829       8.63609693       4.02532673       0.00416801       0.00598475      -0.00056950
C        9.87937905       0.03539537       3.89809275       0.01173504       0.00491727       0.00097328
C        8.64701033       2.15440949       3.61674243      -0.00030666       0.00043535      -0.00137741
C        7.42209374       4.28062549       3.39542087      -0.00386781      -0.00483017       0.00740752
C        6.16706607       6.40945332       3.57224530      -0.00658925       0.00515265      -0.00052648
C        4.93727370       8.55292477       3.96288584      -0.00444684      -0.00168393      -0.00944096
C        0.01791480       1.43125646       3.96420655      -0.00290290       0.00142373      -0.00356930
C       -1.22880081       3.56369440       3.77255233      -0.00492057       0.00531887      -0.00102379
C       -2.45240179       5.70507081       3.61442380       0.01064538      -0.00404124       0.00586368
C       -3.69733842       7.82827815       3.72044086      -0.00279617      -0.00740763      -0.00428626
C       -4.93331437       9.95087214       3.89455838      -0.00233064       0.01164575       0.00910143
C        2.47769594       1.39866017       3.79702107       0.01186441      -0.00010690      -0.00278157
B        1.23432116       3.57852346       4.35231347       0.00451615       0.00205712      -0.00477425
C        0.02306771       5.68716952       3.79953912       0.00069752       0.00215088      -0.00774770
C       -1.22164900       7.83843839       3.74855025      -0.00796622      -0.00423299       0.00617106
C       -2.45875264       9.95979865       3.75599186       0.00388769      -0.00105022      -0.00008899
C        4.93555905       1.42039657       3.46584571      -0.00570904       0.00067426      -0.00827118
S        3.51911864       3.54546522       2.53578069      -0.00228144      -0.01238579       0.01439958
C        1.24874448       7.90307272       3.95607772       0.00273982      -0.00072220       0.01029758
C        0.00331786       9.99596687       3.75809090      -0.00203981      -0.00928581       0.00033965
C        7.39926271       1.45250486       3.57525429      -0.00768830      -0.00031395      -0.00661302
C        6.19428568       3.55164875       3.22287124      -0.00599259      -0.00130270      -0.00056922
C        4.95286372       5.65664761       3.37612439      -0.00388392      -0.00061354      -0.00147628
C        3.67817258       7.91603162       4.07955891      -0.00072573       0.00048342      -0.00591144
C        2.46500786      10.04380224       3.91024373       0.01090105       0.00839293      -0.00147000
C        9.88043174       1.44913369       3.78782089       0.00630860       0.00588503      -0.00092197
C        8.65132133       3.57118609       3.52595671       0.00054570      -0.00005484       0.00584461
C        7.41006712       5.70295240       3.50315244      -0.00401842      -0.00366308       0.00161038
C        6.15883951       7.81960089       3.80598806      -0.00428201       0.00777415      -0.00336405
C        4.93987572       9.98596163       3.95267864      -0.00176422      -0.00429992      -0.00562463
Au       2.45198924       4.78507862       5.54398549       0.00900804      -0.00129243       0.01079695
