50
Lattice="12.336457 0.0 0.0 -6.168228499999997 10.683685154694365 0.0 0.0 0.0 15.0" Properties=species:S:1:pos:R:3:forces:R:3 energy=-433.00564741955066 free_energy=-433.00564741955066 stress="-0.00542088539555148 -0.0007479082303558577 -1.2278929137087742e-06 -0.0007479082303558577 -0.003830843264908742 -4.434138884053359e-06 -1.2278929137087742e-06 -4.434138884053359e-06 3.452085794167608e-06" pbc="T T T"
C       -0.01993424      -0.01622501       3.67499426       0.00893950      -0.00556823      -0.00109707
C       -1.25868147       2.11543467       3.43583791      -0.00380487      -0.00526748       0.01481262
C       -2.51385640       4.26344243       3.47973747      -0.01168124       0.00017164       0.01042639
C       -3.72711019       6.40486947       3.64124062       0.00615626       0.01291881       0.00277341
C       -4.94450034       8.53905149       3.73670961      -0.00184797      -0.00528479      -0.00519753
C        2.44817603      -0.03214189       3.83482761      -0.00359448       0.00144414       0.00594250
C        1.23797891       2.05281257       3.47610945      -0.00399101      -0.00479396       0.01137651
C       -0.10458048       4.29973957       3.25367453      -0.00149109       0.01064998       0.00011028
C       -1.28224208       6.40703474       3.67408435      -0.00715444      -0.00449718       0.00153201
C       -2.47927285       8.53154640       3.82024350       0.00544215      -0.00238043       0.00821177
C        4.91781853      -0.01594324       3.92340489      -0.00562738      -0.00319648      -0.00176746
C        3.66429681       2.10154072       3.96083590      -0.00315846       0.00906815       0.00123610
B        1.10352974       6.36261128       4.13879561      -0.00223328       0.00179427       0.00116898
C       -0.01639584       8.53185152       3.94572636       0.00029012      -0.00078480      -0.00404004
C        7.38553870      -0.01260733       3.87492288       0.01484549       0.00745192       0.00173915
C        6.14262395       2.13385180       3.85321049      -0.00373294       0.00260508       0.00067976
C        4.94795780       4.31469357       3.85193180       0.00253785       0.00004269      -0.00075687
N        3.76174664       6.43820731       3.83844176      -0.01214475      -0.00305221      -0.00608069
C        2.46308159       8.52666563       3.96288250      -0.00220643      -0.01425382      -0.00788979
C        9.84955456      -0.01482441       3.73218104      -0.00276314      -0.00196105      -0.00091384
C        8.60867456       2.12194172       3.64866898       0.00388606       0.00306065      -0.00855419
C        7.38010546       4.26870312       3.65474607       0.00024116      -0.00517074      -0.00817561
C        6.16548517       6.42602159       3.67983914       0.00159788      -0.01197315       0.00083140
C        4.92635055       8.53452158       3.78454395       0.00136258       0.01526328      -0.00375814
C       -0.01970696       1.40808511       3.51301119      -0.00035110      -0.01139726       0.00702997
C       -1.28175824       3.53714470       3.33856154      -0.00576570       0.00471791       0.01216906
C       -2.51186357       5.68726426       3.57383938      -0.00592223       0.00083034       0.00137357
C       -3.71476407       7.82580246       3.73003069       0.00520321       0.00999877       0.00368281
C       -4.95416395       9.95835505       3.75431293       0.00387712      -0.00753198       0.00404143
C        2.44608426       1.39102829       3.80873777      -0.00230426       0.00360700       0.00593394
S        1.41671611       3.62697677       2.79736393       0.00945303      -0.00146944      -0.00518366
C       -0.09102107       5.66798611       3.59498266      -0.00160403       0.00838161       0.00381164
C       -1.24794538       7.82196041       3.83930317       0.00130919      -0.00786255       0.00134257
C       -2.48030822       9.95123241       3.88624148      -0.00709666      -0.00394045      -0.00185544
C        4.90909178       1.42018351       3.93608527      -0.00732224       0.00067961       0.00350913
B        3.70664115       3.57875322       4.18886250       0.01267922       0.00355605      -0.00509437
C        1.22933337       7.84463340       4.03465895      -0.00558866      -0.00745963      -0.00332323
C       -0.01745623       9.96185911       3.92762675       0.00760449       0.00615419      -0.00403530
C        7.37804825       1.41495908       3.79533694       0.00634529       0.01137939      -0.01050106
C        6.14233665       3.56488939       3.77968096      -0.00022124      -0.00065672      -0.00357440
C        4.92411574       5.74367094       3.76084098      -0.00800903      -0.00446970      -0.00238501
C        3.70691149       7.78395737       3.88119270       0.00234189       0.00418036      -0.01106565
C        2.45689290       9.95150362       3.86545877       0.00484634      -0.01438775      -0.00510218
C        9.84945578       1.41006834       3.59614884      -0.00236483      -0.00369471       0.00970869
C        8.60062775       3.54704570       3.58366658      -0.00563442      -0.00382545      -0.00531103
C        7.38078862       5.69344927       3.64110604       0.01319538      -0.00326208      -0.00494392
C        6.15975228       7.83715978       3.72067806      -0.00549605      -0.00568469      -0.00011767
C        4.91342837       9.95497204       3.73431885       0.00304334       0.01542307      -0.01095050
Au       2.28137279       4.88955710       4.96269851       0.01347084       0.01253198       0.00685544
O        3.34713172       5.33445927       6.51567486      -0.00555647      -0.00208418       0.00137547
