50
Lattice="12.336457 0.0 0.0 -6.168228499999997 10.683685154694365 0.0 0.0 0.0 15.0" Properties=species:S:1:pos:R:3:forces:R:3 energy=-432.9601248698434 free_energy=-432.9601248698434 stress="-0.0016246927362754005 0.002383783043685564 7.448718824199644e-06 0.002383783043685564 -0.007525086277652062 8.263549209468709e-06 7.448718824199644e-06 8.263549209468709e-06 -1.8187990762443082e-05" pbc="T T T"
C       -0.01404070       0.00877120       3.68488460       0.00334137       0.00099027       0.00224039
C       -1.22804353       2.16707749       3.49768563      -0.00297915      -0.00107839       0.00609997
C       -2.48422834       4.29887343       3.55241245       0.00419256      -0.00324563      -0.00613166
C       -3.72177634       6.42552478       3.66399586      -0.00442615       0.00116405       0.00325476
C       -4.96498546       8.54524175       3.70170947      -0.00816700       0.00097611      -0.01426792
C        2.44958795      -0.00801652       3.87088314       0.00594311      -0.00678820       0.00377262
C        1.25691108       2.08093784       3.51613069      -0.00745626       0.00141395      -0.00068736
C       -0.06459999       4.33192343       3.20165563       0.00255960      -0.00363711      -0.01170063
C       -1.24774825       6.43624662       3.60360107       0.00457023       0.00568154       0.01071839
C       -2.48685969       8.55225351       3.79974851      -0.00626734       0.00199235       0.00813262
C        4.91530553       0.01111402       3.96871963       0.00465813       0.00412162       0.00069661
C        3.68106030       2.11105172       4.16965232      -0.00003592      -0.00286978      -0.00509266
B        1.30109175       6.41689534       3.84873880      -0.00450617      -0.00632055       0.00179239
C       -0.02459869       8.58576226       3.85782235       0.00226563       0.00791288      -0.00469741
C        7.38477541       0.05307672       3.90382125      -0.00083861      -0.00435819       0.01469965
C        6.16481542       2.16023782       4.06841994       0.00835047      -0.00078531      -0.00358556
C        4.97022146       4.29422577       4.12830690       0.00242946       0.00595928      -0.00589056
P        3.33602876       6.24793397       3.12068744       0.00507810      -0.00591611       0.00266976
C        2.44050861       8.63853543       3.78043630      -0.00232521      -0.00183346      -0.00733438
C        9.86716835       0.05004372       3.73265976      -0.00263533       0.00069525      -0.00896772
C        8.63308006       2.17274377       3.77427563      -0.00234349       0.00014515      -0.00104422
C        7.40039704       4.29515109       3.81597909      -0.00116773       0.00145577      -0.00274851
C        6.13383902       6.40634858       3.65456081       0.00410608      -0.00349562       0.00340641
C        4.90331509       8.56236516       3.61840654       0.00717746      -0.00203971       0.00240796
C       -0.00069227       1.43955568       3.56276282      -0.00441215       0.00122866       0.01062446
C       -1.25149629       3.58098691       3.38650978       0.00544251      -0.00640183      -0.00659019
C       -2.48763552       5.71962071       3.59269597       0.00198353       0.00083936       0.00604089
C       -3.72486908       7.84430120       3.71817781      -0.01103892       0.00270385      -0.00547506
C       -4.95456081       9.97151657       3.75273665       0.00264015       0.00010570      -0.00975916
C        2.47143452       1.42439835       3.89912360      -0.00689392      -0.00683713       0.00488011
S        1.39924100       3.57140441       2.67760691      -0.00502810       0.01574416      -0.00899341
C       -0.02055843       5.71462629       3.47190235      -0.00023324      -0.00335114       0.00011484
C       -1.25387321       7.85458465       3.77314306       0.00024725       0.01157197       0.00524630
C       -2.48418781       9.97216506       3.90274841       0.00848636      -0.00039191      -0.00128460
C        4.91153250       1.43895174       4.09053424       0.00619714       0.00347143      -0.00482397
B        3.81104287       3.50378935       4.83191815      -0.00975754      -0.00569971       0.01442266
C        1.21857481       7.93309018       3.83454342      -0.00190173      -0.00497638      -0.00302711
C       -0.01890078      10.01385727       3.92176379       0.00027349       0.00423667       0.00187121
C        7.39251714       1.46897294       3.92402781       0.00369364      -0.00680417      -0.00070293
C        6.17876148       3.58439255       4.04043365       0.00147397       0.00155749       0.00025683
C        4.92580177       5.62736567       3.71598884       0.00472549       0.00928716       0.00340438
C        3.64510586       7.91675417       3.57955102       0.00378372       0.00245460       0.00081261
C        2.45624219      10.05420669       3.82524818      -0.00323956      -0.00147187       0.00443745
C        9.87579202       1.47122671       3.67122340      -0.00463845       0.00111273      -0.00660967
C        8.62845900       3.58788708       3.71651667      -0.00204520       0.00090300      -0.00489900
C        7.38134738       5.71122528       3.70415082      -0.00024995      -0.00123486       0.00737035
C        6.13535378       7.83317843       3.62163856       0.00131410      -0.00803689      -0.00109144
C        4.91772319       9.99612352       3.67942933       0.00381571       0.00152312      -0.00029958
Au       2.19167568       5.27408198       5.34992770      -0.00468106      -0.00193231       0.00412609
O        3.32755562       3.76867516       6.07936157      -0.00148109       0.00025814       0.00220497
