49
Lattice="12.336457 0.0 0.0 -6.168228499999997 10.683685154694365 0.0 0.0 0.0 15.0" Properties=species:S:1:pos:R:3:forces:R:3 energy=-425.7414569364671 free_energy=-425.7414569364671 stress="-0.004629521480166047 0.0011523632765561254 1.1070944198188022e-05 0.0011523632765561254 -0.0066921355560567095 -5.310181820769835e-09 1.1070944198188022e-05 -5.310181820769835e-09 2.1636457637286291e-07" pbc="T T T"
C        0.00028619       0.00019420       3.66563510       0.00540185      -0.00930829      -0.00567455
C       -1.23078248       2.14207207       3.81821469       0.00681037      -0.00396931       0.01832454
C       -2.47272743       4.27989079       3.72138215      -0.00826076      -0.00047249      -0.00761765
C       -3.69659372       6.41538595       3.51654072      -0.00852606      -0.00178413       0.00135727
C       -4.94303897       8.54432080       3.45384037      -0.00508427       0.00080916       0.01289404
C        2.46406083      -0.01950158       3.71080822       0.00516972       0.00595083       0.01645304
C        1.23855961       2.08825773       4.07190631      -0.00054882       0.00212327      -0.00591076
C       -0.08340040       4.28451624       4.25291117       0.00253543      -0.00099916       0.00150943
C       -1.27797186       6.42823751       3.97337495      -0.01108780       0.00988617       0.00545953
C       -2.46883508       8.54467219       3.65777388      -0.00118527      -0.00806131       0.01810797
C        4.93897980      -0.00787487       3.68963729      -0.00755301       0.00617077       0.00097033
C        3.70598107       2.08701437       3.89744665      -0.00031506       0.00056196       0.00528852
P        1.20519798       6.50996260       5.16113432      -0.00461271      -0.01134195       0.00198511
C       -0.00143636       8.55817002       3.88595446       0.00470356       0.00452047       0.01189958
C        7.40249713       0.01689128       3.68836504      -0.00310623      -0.01025755       0.00699322
C        6.17512264       2.13837253       3.64259874       0.00745452       0.00526345       0.00393782
C        4.98492704       4.29207682       3.51652280       0.00122883      -0.00421362      -0.01648987
S        3.50958407       6.35931998       2.64480735      -0.00254048       0.00038923      -0.00525055
C        2.46833373       8.58140027       3.74189393       0.00215771      -0.00370229       0.00384020
C        9.87717930       0.01706940       3.63657160      -0.00542166       0.00074560       0.00185814
C        8.64378232       2.14505094       3.63182939       0.00176095       0.00374716      -0.01537081
C        7.42484451       4.27732017       3.46903259      -0.00537256      -0.00284414       0.01589173
C        6.18121268       6.42027206       3.24769790       0.01696239      -0.00379764       0.00245992
C        4.92884324       8.55638774       3.40217153      -0.00117060       0.00834425      -0.00867949
C        0.00088523       1.41932786       3.86104712       0.00618844      -0.01151024       0.00176471
C       -1.25378985       3.56191575       3.91766532      -0.00067034      -0.00408481      -0.00818144
C       -2.48171222       5.70471852       3.71882547      -0.00976981       0.00318754      -0.00119746
C       -3.70214109       7.83736860       3.52428541      -0.00909883      -0.00245349       0.00640818
C       -4.93945837       9.96492036       3.60515167       0.00993661       0.00374700      -0.00201617
C        2.46828735       1.39464521       3.91751889      -0.00160875       0.00723514      -0.00640456
B        1.20388241       3.53353525       4.47250228       0.01360543       0.00099700       0.00149535
C       -0.12590012       5.69429096       4.36324684       0.00479702       0.01032339       0.00017259
C       -1.24544693       7.84519542       3.85926890       0.00585156       0.00137682       0.00001464
C       -2.46750160       9.96501655       3.66858629      -0.00115984      -0.00491518       0.00420020
C        4.94295475       1.41684825       3.72469346       0.00158192       0.00988554      -0.00068515
B        3.79288960       3.56040563       4.06833698      -0.00134967      -0.00616848       0.00112159
C        1.25062758       7.89846681       4.07550606      -0.00485616       0.00046320      -0.00675457
C        0.00293199       9.97874488       3.71936492      -0.00868090       0.00056616       0.01106292
C        7.40713761       1.43503274       3.63582213       0.00479258      -0.00512162      -0.01082353
C        6.19525014       3.55866546       3.53549494       0.00160844       0.00139349      -0.00836813
C        4.99130125       5.66393808       3.17243535       0.01405902      -0.00072545      -0.00094414
C        3.67224864       7.90856263       3.37594753       0.00045164       0.01776009      -0.00816038
C        2.47279341      10.00123625       3.68289403      -0.00284008      -0.01328106      -0.00993315
C        9.87773140       1.43814910       3.68371243       0.00336655       0.00710947      -0.00952407
C        8.64746714       3.56614584       3.58908173      -0.00406423       0.00094913      -0.00594587
C        7.41795881       5.70018150       3.39131049       0.00404282      -0.01125405      -0.00256848
C        6.15971676       7.84053380       3.31758092       0.00003249      -0.00033134       0.00478814
C        4.93784259       9.98302763       3.57384560      -0.00464284       0.00150432      -0.00593460
Au       2.67683103       4.64819685       5.40254366      -0.01097312       0.00558698      -0.00782331
