51
Lattice="12.336457 0.0 0.0 -6.168228499999997 10.683685154694365 0.0 0.0 0.0 15.0" Properties=species:S:1:pos:R:3:initial_magmoms:R:1:forces:R:3 energy=-434.0471457790061 free_energy=-434.0471457790061 stress="-0.0008655529853074988 -0.0004805319644879705 -4.900723664802499e-05 -0.0004805319644879705 -0.002985259553570152 -5.276997820794082e-05 -4.900723664802499e-05 -5.276997820794082e-05 0.00017017380609739608" pbc="T T T"
C        0.09364383      -0.01794204       3.72513417       0.00000000      -0.00857650       0.00753877      -0.02608665
C       -1.13477044       2.12792876       3.54576081       0.00000000      -0.01545443      -0.00010294       0.00803362
C       -2.39175362       4.26849590       3.60736917       0.00000000      -0.01373403      -0.01347300      -0.00128767
C       -3.61524141       6.40126032       3.76777707       0.00000000       0.00276384       0.00822930      -0.06525311
C       -4.83686936       8.53221191       3.79891200       0.00000000       0.00015773       0.00895487       0.03239723
C        2.56104197      -0.03093349       3.85063364       0.00000000       0.00062963      -0.01300424      -0.00824823
C        1.35448122       2.05660813       3.51764839       0.00000000      -0.01075374      -0.01192015       0.02706650
C       -0.02873833       4.28990113       3.02759280       0.00000000      -0.03197909      -0.00845478      -0.00999845
C       -1.18650154       6.42443650       3.33039028       0.00000000      -0.01634682       0.00527461      -0.03689923
C       -2.36504164       8.53208069       3.69076497       0.00000000       0.02099556       0.02223823      -0.01060665
C        5.03010130      -0.01304673       3.90410585       0.00000000      -0.00416584       0.01388994      -0.06061429
C        3.77337895       2.08347114       4.22286795       0.00000000      -0.00225321      -0.00012211       0.02026328
S        1.37683338       6.46905261       2.31394316       0.00000000       0.06686368      -0.01074386       0.08312088
C        0.08571819       8.56936901       3.46634188       0.00000000       0.00474470      -0.01621829       0.02997430
C        7.49648319       0.00240004       3.81646452       0.00000000      -0.03001693       0.00324638      -0.01481709
C        6.26491528       2.13116175       4.11245508       0.00000000      -0.00251526       0.01066960       0.01825713
C        5.08461026       4.31260137       4.43799487       0.00000000      -0.01119783      -0.03110990       0.05300915
C        3.82824471       6.47106197       4.31576110       0.00000000       0.07427730       0.00091239       0.00366196
C        2.55236741       8.54281813       3.64544332       0.00000000       0.00627032       0.02935547       0.02548972
C        9.96756064      -0.00287525       3.76459161       0.00000000       0.02159690      -0.00756363      -0.01199735
C        8.73362350       2.13499331       3.83426610       0.00000000      -0.01343925      -0.00206012      -0.02924512
C        7.50118364       4.26883590       3.97552987       0.00000000      -0.00938064       0.03653619       0.01120470
C        6.27027183       6.41671411       3.99379857       0.00000000      -0.00438167       0.01877543       0.00253118
C        5.02692358       8.53128096       3.84311318       0.00000000       0.00099226      -0.02047654      -0.04153699
C        0.09745523       1.40845900       3.57508752       0.00000000      -0.01300222       0.01422032       0.04775406
C       -1.16436798       3.54748345       3.40753868       0.00000000      -0.01924715      -0.01764652      -0.02503499
C       -2.39747960       5.69240006       3.58459019       0.00000000       0.00165802      -0.00838287      -0.00436614
C       -3.60680977       7.82191056       3.75155289       0.00000000       0.01846644       0.00902141       0.01468705
C       -4.84177245       9.95105920       3.77993102       0.00000000      -0.00523022       0.01100489       0.00224586
C        2.55766799       1.38905067       3.90586230       0.00000000       0.00869333      -0.02788737      -0.04374346
S        1.52222405       3.56881299       2.72883691       0.00000000      -0.01291437      -0.02274547      -0.07166910
C       -0.05821256       5.68961414       2.92945657       0.00000000      -0.01678606      -0.02659328      -0.01215410
C       -1.14350038       7.84156889       3.47035721       0.00000000       0.00040122       0.00823434      -0.00694047
C       -2.36587838       9.95074516       3.83084071       0.00000000       0.00085859       0.00980529       0.01479566
C        5.02791780       1.40905974       4.11061745       0.00000000      -0.00504533       0.00778791      -0.00812445
P        3.74209793       3.52953637       5.23176892       0.00000000      -0.01196446       0.03131581      -0.06455150
C        1.33630616       7.93528497       3.22769915       0.00000000       0.01306023      -0.01727360       0.08930360
C        0.09376634       9.97595987       3.75403725       0.00000000      -0.01813696      -0.01192300      -0.01661081
C        7.49706231       1.42648031       3.93453233       0.00000000      -0.01820418       0.00465937       0.01245224
C        6.27310392       3.56145372       4.18379718       0.00000000       0.00989924       0.00982456       0.02341785
C        5.03188830       5.73567679       4.25912807       0.00000000       0.02433458      -0.01955274       0.00145957
C        3.78274106       7.79829437       3.88379167       0.00000000       0.00470167       0.00512307       0.00273673
C        2.56021171       9.96836265       3.75369335       0.00000000      -0.00604925       0.02906609      -0.00981065
C        9.97360566       1.42532249       3.71971746       0.00000000       0.00631236      -0.01165001       0.00768240
C        8.72570633       3.55822559       3.81799462       0.00000000      -0.01793171       0.00397592       0.00732586
C        7.49600105       5.69176588       3.92452468       0.00000000      -0.01374272       0.03712207      -0.03660522
C        6.26262329       7.82564716       3.87293465       0.00000000      -0.00671454       0.00988767      -0.01232165
C        5.02626401       9.95786279       3.75928630       0.00000000       0.00954269      -0.02524986       0.02220926
Au       2.22363231       5.60789071       5.19388126       0.00000000       0.00983828      -0.03131652       0.26730783
O        0.13761830       5.54357632       7.00927850       1.00000000       0.02567745       0.02787868      -0.13499762
O        0.52048258       4.74125584       6.06343389       1.00000000       0.00642840      -0.02907780      -0.06486662
