51
Lattice="12.336457 0.0 0.0 -6.168228499999997 10.683685154694365 0.0 0.0 0.0 15.0" Properties=species:S:1:pos:R:3:initial_magmoms:R:1:forces:R:3 energy=-443.28496391422516 free_energy=-443.28496391422516 stress="-0.0009135847715869706 -0.0002691081402649181 -3.478551260166905e-05 -0.0002691081402649181 0.00476851652905381 1.1901760729942676e-05 -3.478551260166905e-05 1.1901760729942676e-05 0.00016861996779439468" pbc="T T T"
C       -0.06638838      -0.05083062       3.72585193       0.00000000      -0.00178002      -0.00234032       0.00198459
C       -1.30682765       2.07732503       3.66146262       0.00000000      -0.00203445       0.00388505      -0.00533753
C       -2.53333946       4.21557298       3.58616559       0.00000000       0.00051621      -0.00228495      -0.00214341
C       -3.76098256       6.35722705       3.62594840       0.00000000       0.00189402      -0.00029844      -0.00211894
C       -4.99586720       8.50399274       3.69638279       0.00000000       0.00218005      -0.00024148      -0.00065983
C        2.40616430      -0.01852582       3.82285189       0.00000000       0.00136738      -0.00710289      -0.00317923
C        1.14772449       2.11538911       3.96527921       0.00000000       0.00295186       0.01518306       0.00260101
C       -0.06423782       4.23535493       3.80916709       0.00000000       0.00812653      -0.00231717       0.00072324
C       -1.29705026       6.36207331       3.66176904       0.00000000       0.00384385       0.00037601      -0.00095308
C       -2.52556569       8.50387389       3.70262759       0.00000000      -0.00062255      -0.00028085      -0.00343858
C        4.87535144      -0.04518601       3.75175454       0.00000000       0.00118812      -0.00977545       0.00049785
C        3.65535228       2.12888721       3.98957819       0.00000000       0.00355433       0.01898519       0.01353716
O        1.08334415       6.38232663       3.71904860       0.00000000      -0.00463962      -0.00175681       0.00491168
C       -0.05762111       8.47834998       3.69826312       0.00000000      -0.00039642      -0.00235058      -0.00054548
C        7.34852424      -0.08352094       3.67430320       0.00000000       0.00265410      -0.00342494      -0.00415724
C        6.11356904       2.08211745       3.70197664       0.00000000       0.00485170       0.00058402       0.00114974
C        4.86897240       4.24300559       3.85826862       0.00000000      -0.00976296      -0.00535240       0.00002404
O        3.74138498       6.38602060       3.85149727       0.00000000      -0.00338399      -0.00366915      -0.00455202
C        2.40331943       8.40325277       3.70451148       0.00000000      -0.00259129       0.00038962      -0.00363995
C        9.79544957      -0.08707861       3.66015005       0.00000000      -0.00450397       0.00018689      -0.00071073
C        8.57064220       2.06743032       3.60447072       0.00000000       0.00011335       0.00170165      -0.00552162
C        7.33911348       4.21624752       3.60758838       0.00000000      -0.00464858       0.00004410       0.00401690
C        6.11326070       6.36329063       3.66293053       0.00000000      -0.00446070      -0.00296498       0.00344816
C        4.87076874       8.47605649       3.68989062       0.00000000      -0.00363203      -0.00185778      -0.00234428
C       -0.07892397       1.37359351       3.75821479       0.00000000       0.00089180       0.00082628      -0.00579518
C       -1.30209047       3.50626856       3.64143314       0.00000000       0.00265977       0.00034580      -0.00419723
C       -2.53184057       5.63839752       3.61695386       0.00000000       0.00171267       0.00139754       0.00215129
C       -3.76102684       7.78821516       3.67552172       0.00000000      -0.00050036      -0.00165862      -0.00313754
C       -4.99262543       9.93668903       3.75389297       0.00000000      -0.00646516       0.00239613      -0.00090648
C        2.40506643       1.41332581       3.97197764       0.00000000       0.00424720       0.00401878      -0.00012844
C        1.03890315       3.48480493       4.21888644       0.00000000      -0.00351375      -0.00792785      -0.00328915
C       -0.09150868       5.67056531       3.73676094       0.00000000      -0.00771007       0.00251472       0.00580162
C       -1.30025002       7.78656834       3.68368205       0.00000000      -0.00261853      -0.00294701      -0.00282111
C       -2.53164062       9.93806961       3.76511657       0.00000000       0.00180635      -0.00138793       0.00018210
C        4.88337312       1.38060817       3.79636177       0.00000000       0.00195354      -0.00136148       0.00144749
C        3.74867634       3.50741458       4.23682915       0.00000000       0.00543311      -0.01274684       0.00355531
C        1.13667073       7.75700999       3.70266765       0.00000000      -0.00413175       0.00609059      -0.00221857
C       -0.05699123       9.91047215       3.70434510       0.00000000       0.00347354       0.00289937       0.00112060
C        7.34598743       1.35295613       3.64627436       0.00000000      -0.00139464      -0.00054116       0.00083975
C        6.10744362       3.50978614       3.68603593       0.00000000      -0.00157128      -0.00723406       0.00222887
C        4.90419226       5.67743571       3.75780908       0.00000000       0.00024202       0.00093955       0.00033364
C        3.67637699       7.75202859       3.71937774       0.00000000       0.00305784       0.00879736       0.00245079
C        2.40249580       9.85185730       3.67468424       0.00000000       0.00035352       0.00377343      -0.00203404
C        9.79633073       1.34893215       3.62567880       0.00000000       0.00200758      -0.00433676      -0.00152857
C        8.57020864       3.49666400       3.58220490       0.00000000      -0.00237505       0.00076585      -0.00109523
C        7.34385104       5.64107176       3.62214648       0.00000000       0.00360941       0.00500253       0.00133563
C        6.11580407       7.78576157       3.67738237       0.00000000      -0.00162385       0.00455775       0.00198253
C        4.86686508       9.90579814       3.68478008       0.00000000      -0.00029031       0.00232335       0.00011890
Au       2.35076851       4.42414344       5.37582297       0.00000000      -0.02788577       0.00782617       0.31223833
O        4.62055276       5.85682178       6.36380410       1.00000000      -0.02147327       0.02901798      -0.01541183
O        3.36159119       5.91938397       6.56114794       1.00000000       0.05932054      -0.03866884      -0.28681595
