50
Lattice="12.336457 0.0 0.0 -6.168228499999997 10.683685154694365 0.0 0.0 0.0 15.0" Properties=species:S:1:pos:R:3:forces:R:3 energy=-442.15069150771234 free_energy=-442.15069150771234 stress="-0.004232661962201021 0.0018866889835267384 6.237990598295579e-06 0.0018866889835267384 0.00449413456431227 -1.0826211154742765e-05 6.237990598295579e-06 -1.0826211154742765e-05 -1.592869740249006e-05" pbc="T T T"
C        0.02321217      -0.00504526       3.68747882       0.00059990      -0.00030234      -0.00077660
C       -1.21987655       2.10429120       3.75692631       0.00110082       0.00030883       0.00038716
C       -2.46707436       4.24591512       3.89030217      -0.00119678       0.00020386      -0.00223393
C       -3.69740594       6.39571130       3.86216502      -0.00024773      -0.00112739       0.00103939
C       -4.91472174       8.54535158       3.75615423       0.00139876       0.00053516      -0.00009233
C        2.49380064       0.03872174       3.72242512      -0.00013589      -0.00066487      -0.00081530
C        1.25884272       2.20551350       3.57725699       0.00081734       0.00072783      -0.00349892
C       -0.01487099       4.25929316       3.82237284       0.00036632       0.00049154      -0.00405626
C       -1.24560824       6.39098445       3.98227668       0.00114923      -0.00212566      -0.00175795
C       -2.46000727       8.54193055       3.85371410      -0.00095850       0.00071268      -0.00063635
C        4.95272417      -0.02543733       3.77164894      -0.00041331       0.00180509       0.00129486
C        3.77500579       2.11504843       3.80074825      -0.00156972      -0.00068802       0.00005057
C        1.14061600       6.43724057       4.55243869       0.00317619      -0.00652294      -0.00770159
C        0.01128508       8.51774554       3.89759858       0.00311880      -0.00091264       0.00017474
C        7.42924920      -0.05595852       3.75878585      -0.00153994       0.00035837      -0.00026652
C        6.20944605       2.09088922       3.77692889      -0.00065236       0.00085452       0.00562893
C        5.00457820       4.20490019       3.80175980      -0.00172178      -0.00015311       0.00154181
C        3.78604508       6.34895005       3.34366470       0.00200196      -0.00140114      -0.00188760
C        2.47082860       8.45878579       3.73187107      -0.00137642      -0.00092603       0.00111411
C        9.88714696      -0.05295263       3.70585983       0.00093440       0.00024446       0.00034981
C        8.66151483       2.09386823       3.78643445      -0.00045522      -0.00049947       0.00342289
C        7.42709710       4.24712732       3.81437594      -0.00076602      -0.00075988       0.00163494
C        6.18174871       6.37623992       3.76114590       0.00161293       0.00046133      -0.00400055
C        4.95573949       8.50334591       3.65941069       0.00110951      -0.00026659      -0.00127816
C        0.02484378       1.42686139       3.67254821       0.00051661      -0.00009373      -0.00110695
C       -1.24311071       3.52520052       3.86200586       0.00030234       0.00082984      -0.00243333
C       -2.48062521       5.67381588       3.91170051      -0.00072453      -0.00047028      -0.00160166
C       -3.69280269       7.82694013       3.83036003      -0.00128303      -0.00022179       0.00122971
C       -4.90776928       9.98060134       3.71315295       0.00038635       0.00008260      -0.00228269
C        2.51705573       1.48094597       3.67617064      -0.00047171      -0.00112756      -0.00036828
C        1.13649404       3.59282962       3.38716467       0.00230857       0.00003794      -0.00139747
C       -0.04248981       5.67227290       4.03186580      -0.00624253      -0.00315477      -0.00490134
C       -1.23623475       7.82450737       3.94000100      -0.00059690       0.00111058      -0.00080445
C       -2.45699999       9.97650998       3.78477698       0.00007808       0.00114978      -0.00116541
C        4.97395439       1.39702046       3.76236730      -0.00025846       0.00055592       0.00099125
O        3.86725361       3.46590958       4.04906655      -0.00048766       0.00147769      -0.00115816
C        1.24048758       7.81282708       3.95869605       0.00100868       0.00072692       0.00220498
C        0.01877211       9.93947132       3.79371571      -0.00100410       0.00048417      -0.00042577
C        7.42987415       1.37826505       3.76713539      -0.00194353       0.00065609       0.00377828
C        6.20756698       3.51560459       3.78726500      -0.00029200      -0.00034899       0.00374777
C        4.94315013       5.63320167       3.66414140      -0.00267534       0.00019862      -0.00108728
C        3.72057518       7.73287638       3.58491790       0.00087452      -0.00020801      -0.00109678
C        2.48761083       9.89951581       3.72187236      -0.00007282      -0.00094176       0.00276547
C        9.88623094       1.37548034       3.75309709       0.00044335       0.00038522       0.00035049
C        8.64970718       3.52491374       3.83378121      -0.00098590      -0.00012394       0.00289177
C        7.41036867       5.67167902       3.82458335      -0.00012122      -0.00060334      -0.00021672
C        6.18843603       7.80819047       3.71978279       0.00235784       0.00032304      -0.00229183
C        4.95738208       9.93471202       3.68663714       0.00120631       0.00031331      -0.00068452
Au       2.33765114       5.08635105       2.67146321       0.00459397      -0.00383021      -0.00186004
O        1.76133745       6.09320446       5.56942803      -0.00326937       0.01243907       0.01928580
