51
Lattice="12.336457 0.0 0.0 -6.168228499999997 10.683685154694365 0.0 0.0 0.0 15.0" Properties=species:S:1:pos:R:3:initial_magmoms:R:1:forces:R:3 energy=-434.32845759784027 free_energy=-434.32845759784027 stress="0.0032859135636479305 0.004135042380575083 4.749288585887837e-05 0.004135042380575083 -0.004718052641864083 -3.914768631821619e-05 4.749288585887837e-05 -3.914768631821619e-05 -2.3533715169893893e-05" pbc="T T T"
C       -0.02061215      -0.00434473       3.67841724       0.00000000       0.00411129      -0.02042115      -0.00489222
C       -1.20966722       2.18127581       3.68477977       0.00000000      -0.00386722       0.01429408      -0.00193565
C       -2.47253403       4.30941487       3.84689150       0.00000000       0.00195151      -0.00239237      -0.00280645
C       -3.73141040       6.41923399       3.85218434       0.00000000      -0.00887027      -0.00569355      -0.00161986
C       -4.98567236       8.52990036       3.78543330       0.00000000       0.00479067       0.02223921       0.00019886
C        2.44589548      -0.04505842       3.47849767       0.00000000      -0.01509775       0.00996021       0.02686343
C        1.23887595       2.05007554       3.27948733       0.00000000      -0.00405945       0.03597716       0.00718934
C       -0.04128535       4.36843372       3.78708565       0.00000000       0.03428845      -0.00154581      -0.02201401
C       -1.23382821       6.44962762       3.99541061       0.00000000       0.01122480      -0.00509676      -0.01416905
C       -2.49990378       8.55016147       3.78817499       0.00000000      -0.00566847      -0.00066616       0.04664306
C        4.91859074      -0.00065093       3.54875961       0.00000000      -0.02345962       0.00188271       0.00207985
C        3.71186175       2.02148353       2.94256290       0.00000000       0.00921954      -0.02534151       0.00340391
C        1.31105056       6.50194342       4.00635233       0.00000000       0.00211439       0.00400664      -0.01963475
C       -0.03757599       8.59184148       3.89273294       0.00000000       0.00765818       0.02937686      -0.02408633
C        7.38023346       0.05075044       3.70402374       0.00000000       0.00652723       0.00316317       0.04828092
C        6.16607558       2.15306919       3.35740409       0.00000000       0.01571953      -0.01053998      -0.00191462
C        4.99926928       4.30920441       3.10231827       0.00000000       0.02906552       0.00163082      -0.00333342
P        3.20549909       6.18914871       4.23141824       0.00000000       0.03887634      -0.02085663      -0.00256723
C        2.43003472       8.65149903       3.99561999       0.00000000      -0.02465901       0.00325344       0.00622298
C        9.86606108       0.05223933       3.79669166       0.00000000       0.01588347       0.00518796       0.01126990
C        8.63781281       2.17759592       3.67262040       0.00000000      -0.01473278       0.00408529      -0.01065139
C        7.39514965       4.29311794       3.61645219       0.00000000       0.00562986      -0.02000980       0.04077918
C        6.09282739       6.39351905       3.74184091       0.00000000       0.00469276       0.00132418      -0.00035118
C        4.88283728       8.55339030       3.93826023       0.00000000      -0.00929931      -0.02189570       0.00326023
C        0.00322430       1.43449652       3.56327025       0.00000000      -0.00322183      -0.01156440      -0.03033255
C       -1.22435867       3.60218995       3.79419497       0.00000000       0.01474820       0.02346934      -0.02685832
C       -2.47348108       5.72766403       3.91834154       0.00000000       0.00120634      -0.00502287      -0.00712743
C       -3.73885280       7.83635697       3.81725486       0.00000000      -0.01328120       0.00238271       0.01272035
C       -4.96700523       9.95058287       3.65573128       0.00000000       0.00412831       0.01246009       0.00890595
C        2.46668865       1.35048460       3.18576309       0.00000000      -0.01748120       0.00227855       0.00837452
S        1.37931167       3.74039999       3.11905714       0.00000000       0.00046833      -0.01361837       0.05235374
C        0.04544860       5.77344590       3.99976996       0.00000000       0.00939028      -0.01033893      -0.04478414
C       -1.26178771       7.86503096       3.91350191       0.00000000       0.01544811       0.01252475      -0.00110316
C       -2.48438713       9.95628722       3.60132181       0.00000000      -0.02580326       0.00066548       0.02021034
C        4.93272007       1.41103827       3.28221431       0.00000000       0.01142592      -0.00780811       0.00010062
S        3.85905679       3.51529132       2.05039855       0.00000000      -0.00583878      -0.01390395      -0.02944795
C        1.20712391       7.90409676       3.98901201       0.00000000      -0.01219922      -0.00320604      -0.01409385
C       -0.02023019      10.00295925       3.72627400       0.00000000      -0.00754564       0.02693669      -0.00014898
C        7.38938110       1.46595685       3.57684818       0.00000000       0.00047445      -0.00812490       0.01196830
C        6.18609705       3.56969193       3.34708883       0.00000000       0.02366108      -0.00716677       0.00505565
C        4.86104541       5.64319547       3.54963816       0.00000000      -0.03700733       0.00298181      -0.00449685
C        3.61890217       7.91317627       4.08807788       0.00000000      -0.02828594       0.00787058      -0.04817648
C        2.44844592      10.05495455       3.84131607       0.00000000       0.00824465       0.00241530       0.02181322
C        9.88559735       1.47643267       3.72796894       0.00000000      -0.00954073       0.01905641      -0.02332712
C        8.63511539       3.59382260       3.71570388       0.00000000      -0.00416206      -0.00650755       0.01549375
C        7.36258093       5.70865114       3.74064103       0.00000000      -0.00236459      -0.01527645      -0.00463374
C        6.10775617       7.82065416       3.85601677       0.00000000       0.01346478       0.00226009       0.00169106
C        4.90991124       9.98999347       3.82478693       0.00000000       0.00889498      -0.02493507       0.00565243
Au       3.33091188       5.49428196       6.43435042       0.00000000      -0.01202383       0.00256154      -0.08073442
O        2.54471691       4.83625435       9.03658940       1.00000000       0.00108580      -0.00150796       0.01417189
O        3.64042555       4.68724360       8.39355796       1.00000000      -0.01592528       0.00919571       0.05053770
