51
Lattice="12.336457 0.0 0.0 -6.168228499999997 10.683685154694365 0.0 0.0 0.0 15.0" Properties=species:S:1:pos:R:3:initial_magmoms:R:1:forces:R:3 energy=-437.81341022989426 free_energy=-437.81341022989426 stress="0.00391747183131929 -0.004592468878024325 -3.896312836703749e-05 -0.004592468878024325 -0.003029501593684071 -4.0430843815780064e-05 -3.896312836703749e-05 -4.0430843815780064e-05 -8.958970736061713e-05" pbc="T T T"
C        0.06483552      -0.00570354       3.62127661       0.00000000      -0.00393434      -0.00099009       0.00265602
C       -1.19036069       2.13159243       3.54833886       0.00000000       0.00142725       0.00077523       0.00429505
C       -2.41549296       4.27873798       3.59899500       0.00000000       0.00289387       0.00125973       0.00570107
C       -3.63259397       6.40528013       3.70870784       0.00000000       0.00655690      -0.00029454       0.00255522
C       -4.85988429       8.53964305       3.71903940       0.00000000      -0.00046839       0.00126424       0.00117864
C        2.52416758      -0.00383449       3.64422975       0.00000000      -0.00319935      -0.00302561       0.00051209
C        1.24855528       2.10665947       3.55219014       0.00000000      -0.00281630      -0.00369493      -0.00517483
C        0.03980996       4.19837972       3.64433316       0.00000000       0.00009781      -0.00302619       0.00697629
C       -1.10166386       6.36383834       3.74132656       0.00000000      -0.00146598      -0.00049698      -0.00491075
C       -2.37500903       8.52497059       3.75217712       0.00000000      -0.00268166       0.00030758      -0.00542914
C        4.99400476      -0.00400058       3.64736983       0.00000000       0.00050723       0.00184276      -0.00729282
C        3.72899247       2.10721516       3.30557417       0.00000000       0.00308474      -0.00307174       0.00216766
P        1.81384845       6.20618861       4.21649320       0.00000000       0.00452250      -0.00044601       0.00651483
C        0.09452499       8.54021393       3.85379578       0.00000000      -0.00674401      -0.00524749      -0.00064653
C        7.44672192       0.03507293       3.67544537       0.00000000       0.00167195       0.00557740      -0.00674306
C        6.19681675       2.16221718       3.49626689       0.00000000      -0.00239679       0.00356201      -0.00329390
C        4.97396194       4.32642774       3.43068399       0.00000000      -0.00098500      -0.00043395      -0.00524654
C        3.65420291       6.47593896       3.77200883       0.00000000      -0.00226452       0.00169972      -0.00206265
C        2.54966422       8.62866978       3.81941963       0.00000000       0.00101622      -0.00238300      -0.00033738
C        9.92985496       0.02874066       3.63179763       0.00000000       0.00595259       0.00636838      -0.00104248
C        8.67307772       2.15909334       3.57326749       0.00000000       0.00172706      -0.00027769      -0.00044715
C        7.43799763       4.29381378       3.61000539       0.00000000       0.00083934      -0.00452461      -0.00268641
C        6.19157444       6.42309475       3.72285152       0.00000000      -0.00199429      -0.00011333       0.00391797
C        5.00904946       8.56735941       3.70366822       0.00000000       0.00351635       0.00197087      -0.00013350
C        0.04664963       1.41724438       3.56097534       0.00000000       0.00037287      -0.00006989       0.00633274
C       -1.18701081       3.54236202       3.55765240       0.00000000      -0.00313492       0.00062515      -0.00172080
C       -2.38094505       5.69107071       3.67732494       0.00000000       0.00593677      -0.00306873       0.00191845
C       -3.62099504       7.82563910       3.73585556       0.00000000       0.00147151       0.00100552       0.00297186
C       -4.86835974       9.96510504       3.67454111       0.00000000      -0.00205820      -0.00051687      -0.00124097
C        2.49626694       1.42132405       3.50951983       0.00000000      -0.00016696      -0.00476626       0.00521705
O        1.22092826       3.47162852       3.73253395       0.00000000      -0.00039036      -0.00197972       0.00268105
C        0.12941237       5.59134566       3.73367310       0.00000000      -0.01310883      -0.00667232       0.00258576
C       -1.13005738       7.80398571       3.80044014       0.00000000      -0.00362247       0.00108729      -0.00345349
C       -2.39943186       9.95719028       3.69260196       0.00000000      -0.00047228      -0.00002349      -0.00436539
C        4.97131272       1.42913268       3.47778736       0.00000000       0.00077586       0.00044553      -0.00300400
P        3.67660786       3.65627847       2.49949382       0.00000000       0.00099177      -0.00174567       0.00366262
C        1.36388880       7.89993588       3.95937685       0.00000000      -0.00613170      -0.00059006      -0.00330379
C        0.06271908       9.97906802       3.73510314       0.00000000      -0.00124167      -0.00336746       0.00011216
C        7.43423488       1.45518891       3.58210452       0.00000000      -0.00086696       0.00534727      -0.00585879
C        6.19678533       3.58794056       3.50912740       0.00000000      -0.00236089       0.00137015      -0.00081305
C        4.91217361       5.73846162       3.67652128       0.00000000      -0.00530419      -0.00400523      -0.00205649
C        3.76707363       7.87951330       3.76536783       0.00000000       0.00263275       0.00456813      -0.00126707
C        2.52460829      10.03324293       3.70402809       0.00000000       0.00457014       0.00184420       0.00089718
C        9.91809984       1.44434812       3.57499018       0.00000000       0.00140719       0.00662756      -0.00203393
C        8.67334238       3.58041478       3.58627270       0.00000000       0.00284901      -0.00154188       0.00874331
C        7.44224965       5.71373406       3.68496008       0.00000000      -0.00046253      -0.00534293      -0.00051989
C        6.23419081       7.84064177       3.72302716       0.00000000      -0.00238918      -0.00085150       0.00656948
C        4.99741430       9.98520234       3.65107684       0.00000000      -0.00235596      -0.00161848      -0.00339999
Au       1.86704282       5.70787670       6.47901896       0.00000000       0.01047655      -0.00401754      -0.07657293
O        0.98654838       5.54042919       9.11676583       1.00000000       0.02240321      -0.01617231       0.03621308
O        1.99779144       5.03563448       8.51413957       1.00000000      -0.01468370       0.03682778       0.04067815
