49
Lattice="12.336457 0.0 0.0 -6.168228499999997 10.683685154694365 0.0 0.0 0.0 15.0" Properties=species:S:1:pos:R:3:forces:R:3 energy=-424.1457280186949 free_energy=-424.1457280186949 stress="0.002566225545615462 0.0034230483887964427 -1.1701832355793235e-05 0.0034230483887964427 -0.0036661106856066485 1.49411621738566e-06 -1.1701832355793235e-05 1.49411621738566e-06 -3.8659285601702e-06" pbc="T T T"
C       -0.01621873      -0.02926855       3.74230624      -0.00147110      -0.00221099      -0.00705465
C       -1.21436332       2.14861885       3.65796485      -0.00386037       0.00282671      -0.00202475
C       -2.46220186       4.28004795       3.86006266       0.00606120       0.00167980       0.01145458
C       -3.71765655       6.39379528       3.93413057      -0.00054156       0.00360042      -0.00229265
C       -4.97379287       8.51102934       3.89999866      -0.00076915      -0.00998669       0.00083377
C        2.44965437      -0.05368076       3.60844824      -0.00354284       0.00127561       0.00147186
C        1.22327946       2.02388735       3.22795869      -0.00026291       0.00702579       0.00197079
C       -0.03935533       4.33150191       3.61150140      -0.00018584       0.00216367      -0.00925412
C       -1.21362333       6.41198730       3.97292970       0.00287602      -0.00141578      -0.01524430
C       -2.49118630       8.52723742       3.89299149       0.00425873      -0.00313439      -0.00425434
C        4.91963984      -0.02183212       3.66011473       0.00050867       0.00190376       0.01217931
C        3.71233882       2.00336203       3.04996577       0.01360789      -0.01289644       0.00194462
C        1.33004379       6.45835554       3.92696194      -0.01333902      -0.00535131      -0.00059666
C       -0.02675501       8.55708969       3.90072654      -0.00101823       0.00390903       0.00380398
C        7.38389886       0.02066339       3.77926895      -0.00029761       0.00549750      -0.00322762
C        6.16755905       2.12607327       3.46962676       0.00027712       0.00479963       0.01058311
C        5.01705574       4.28405152       3.21494509      -0.00472297      -0.00319218      -0.00573673
P        3.21093437       6.15670269       4.25232810       0.00867059      -0.01182593      -0.00846697
C        2.43520573       8.61253628       3.98807857      -0.00442484       0.00764919      -0.00483329
C        9.86913754       0.01994375       3.84003420       0.00221868       0.00795365       0.00605060
C        8.63998557       2.14782333       3.73555307      -0.00520446      -0.00575711       0.00466211
C        7.40499615       4.26600031       3.72493449       0.00042934      -0.00225553       0.00629245
C        6.10921713       6.37122386       3.84077029      -0.00131242       0.00028688      -0.00306654
C        4.89064558       8.52522325       3.99098220      -0.00619374       0.00143488      -0.00150413
C       -0.00010270       1.40274714       3.55555200      -0.00409966       0.00296513      -0.00456638
C       -1.22303412       3.57186900       3.73230455       0.00390616       0.00266380      -0.00489138
C       -2.45830395       5.69854227       3.94152369       0.00165043       0.00552721      -0.00198381
C       -3.72815890       7.81345899       3.92693682       0.00428794      -0.00200100      -0.00293681
C       -4.95845970       9.93349352       3.76729489      -0.00299459      -0.00959338       0.00278881
C        2.46331396       1.33767374       3.26174283       0.00475649       0.00444971       0.01171064
S        1.23350714       3.66227828       2.70353886      -0.00341791      -0.00218049       0.00994109
C        0.06632090       5.72730084       3.89073963       0.00035628      -0.00122754      -0.00872248
C       -1.24930253       7.83168682       3.94365906       0.00333185      -0.00147488       0.00572000
C       -2.48294654       9.94027696       3.73279462      -0.00090054      -0.00082836      -0.00063247
C        4.93144140       1.39058640       3.40123280       0.00930628      -0.00025443       0.01140633
S        3.85995734       3.50648450       2.18405738       0.00044809      -0.00410078      -0.01010568
C        1.21794460       7.86208794       3.94351833      -0.00464524      -0.00619561       0.00205401
C       -0.01582392       9.97490915       3.79522729       0.00022857       0.00594994       0.00070157
C        7.39134028       1.43675381       3.66949254      -0.00521051       0.00045695       0.00174075
C        6.19546993       3.54235221       3.46612794      -0.00455527       0.00139662      -0.00250869
C        4.87847480       5.62142825       3.64315013       0.00740599      -0.00142075       0.00081997
C        3.62428376       7.88066093       4.08556739      -0.00810852       0.00144304       0.00463241
C        2.45282263      10.02185070       3.88388159       0.00226805       0.01140148      -0.00555120
C        9.88589267       1.44443309       3.75532521      -0.00329121       0.00383145       0.00577372
C        8.64226121       3.56408337       3.78647013       0.00534605      -0.00560202       0.00233500
C        7.37631689       5.68307149       3.84261946      -0.00099936       0.00232542      -0.00646165
C        6.12170196       7.79853041       3.94710985      -0.00661602       0.00002256      -0.00912432
C        4.91504438       9.96100560       3.87912553      -0.00222036       0.00238378      -0.00459406
Au       3.12899312       5.49861083       6.43314385       0.01200582      -0.00391803       0.00876421
