50
Lattice="12.336457 0.0 0.0 -6.168228499999997 10.683685154694365 0.0 0.0 0.0 15.0" Properties=species:S:1:pos:R:3:forces:R:3 energy=-431.03338178731735 free_energy=-431.03338178731735 stress="-0.005315396521152157 -0.002493064502479825 9.667475403936143e-06 -0.002493064502479825 -0.006897801694053465 3.0745112051815427e-06 9.667475403936143e-06 3.0745112051815427e-06 -2.1379711196785023e-06" pbc="T T T"
C        0.02396162      -0.00106357       3.99095866       0.00917598       0.00516922      -0.00496902
C       -1.22076052       2.15272646       3.99564665      -0.00189712      -0.01093207      -0.00350977
C       -2.46943138       4.28527766       3.67093085      -0.00005361      -0.00363926       0.00076551
C       -3.67888039       6.42610179       3.60448902       0.00179491       0.00288587       0.00133183
C       -4.89373417       8.55723234       3.80248026      -0.00482768      -0.00307280      -0.01206801
C        2.50437408      -0.03384512       3.89953578      -0.00184327      -0.00392991       0.00109694
C        1.27416593       2.06408295       4.22776505       0.00826464      -0.00084070       0.00402027
C       -0.05456359       4.34036438       3.78779476       0.00136201      -0.00705445      -0.01373745
C       -1.22980988       6.42445534       3.38762948      -0.00299402      -0.00395163      -0.00279286
C       -2.42532381       8.54257643       3.60269961       0.00692957       0.00151071       0.01667050
C        4.96217984      -0.00210869       3.70235132      -0.00927182       0.00672120      -0.00891474
C        3.69621424       2.07418847       3.68453973       0.00380683       0.00832976       0.00184468
S        1.40142298       6.36442579       2.65779483      -0.00308706       0.00655921      -0.00435136
C        0.03443319       8.55933657       3.49447674       0.00031542       0.00234000       0.00089842
C        7.42144315       0.01818281       3.73487233      -0.00407143       0.00740440       0.00461770
C        6.17124360       2.15968830       3.62336538      -0.00047952       0.00379294       0.00607221
C        4.98555690       4.35140030       3.56235952      -0.00660476       0.00618335       0.00450657
C        3.82146923       6.46992128       4.24793280      -0.00061674      -0.01040816      -0.00194879
C        2.49372096       8.56494493       3.78162508       0.00823854      -0.00981816      -0.00148896
C        9.88906009       0.01949666       3.91681575      -0.00308995      -0.00414308      -0.00108716
C        8.64585030       2.15342056       3.77544469       0.00614333       0.00362161      -0.00100613
C        7.41649347       4.29557843       3.64172669      -0.00559868      -0.00889663       0.00756545
C        6.21507818       6.44852766       3.75425175       0.00324840      -0.00187814      -0.00609415
C        4.97276677       8.56390846       3.91198556      -0.00232801       0.00856617      -0.00364146
C        0.01638223       1.42330231       4.09869674       0.00724271       0.00158459      -0.00124463
C       -1.24586090       3.57440435       3.83876776      -0.00114949      -0.01110177      -0.01302060
C       -2.46042608       5.70667639       3.54129017      -0.00175961      -0.00269557       0.00287739
C       -3.66764220       7.84409021       3.65747535       0.00401592       0.00474923       0.00881013
C       -4.90697700       9.96558505       3.91737141       0.00053226      -0.00503960      -0.00668803
C        2.49859796       1.37883256       3.98981400       0.00764760      -0.00143520       0.00559119
P        1.26548372       3.70730503       4.75531289      -0.00078935       0.00025555       0.00364444
C       -0.04549126       5.66667905       3.31836774       0.00041698      -0.00030683      -0.00049916
C       -1.19693008       7.84160432       3.44164835       0.00265699      -0.00242938      -0.00797251
C       -2.42961354       9.95970819       3.73331725      -0.00394835       0.00176592       0.00200770
C        4.95046475       1.43397083       3.67091182       0.00024043       0.00446271      -0.00604911
S        3.50709553       3.65383111       3.01456544      -0.00203848       0.01028730      -0.00476201
C        1.29617892       7.91585921       3.40463246       0.00181959      -0.00175550       0.00757637
C        0.03032144       9.98163529       3.65487553      -0.00826882       0.00820301      -0.00286984
C        7.40644854       1.44926067       3.71585541       0.00485558       0.01016936      -0.00178683
C        6.17141114       3.58691949       3.59607144      -0.01007934      -0.00109758       0.00242767
C        4.97049282       5.75618242       3.82967420       0.00586120      -0.00096287       0.00351115
C        3.73522266       7.83108927       3.95268901       0.00593697      -0.00917980       0.00893454
C        2.48832484       9.99237061       3.82573560      -0.00387086      -0.00655473       0.00747834
C        9.88503800       1.44447019       3.90531987      -0.00080991      -0.00695683      -0.01262761
C        8.64047482       3.57419740       3.69485950       0.00097739       0.00004799       0.01005787
C        7.42790799       5.71736580       3.65439214       0.00338677      -0.00678602      -0.00042178
C        6.20821389       7.86116493       3.83662630      -0.00664420       0.00056807       0.00012365
C        4.95698288       9.98605194       3.93724436       0.00451307       0.01045919       0.01299817
Au       2.61939314       5.42523583       5.44475673       0.00219868       0.00486086      -0.00456072
O        1.24565682       4.05304682       6.29384061      -0.01545970       0.00436845       0.00268394
