52
Lattice="12.336457 0.0 0.0 -6.168228499999997 10.683685154694365 0.0 0.0 0.0 15.0" Properties=species:S:1:pos:R:3:forces:R:3 energy=-446.4519215397531 free_energy=-446.4519215397531 stress="-0.0013971794497261046 -0.003715991844796638 -1.968129679363935e-05 -0.003715991844796638 0.00807126559708899 2.285423907408142e-05 -1.968129679363935e-05 2.285423907408142e-05 -1.1771588034632744e-05" pbc="T T T"
C       -0.06419187       0.02410332       3.76168521       0.00297398      -0.00246188      -0.00090994
C       -1.33117123       2.13051480       3.69076959      -0.00627086       0.00459057      -0.00073194
C       -2.55312599       4.28739473       3.65074686       0.00143527      -0.00443274      -0.00156021
C       -3.75331796       6.43920800       3.65974779      -0.00096026       0.00740997       0.00649541
C       -4.98131163       8.59104925       3.72295790      -0.00415837      -0.00285519      -0.00762979
C        2.39926572       0.08779525       3.82601477      -0.00061498       0.00079299      -0.00518510
C        1.11227479       2.16242486       3.71852661      -0.00993369      -0.00543717       0.00757891
C       -0.12400773       4.24452150       3.66640490       0.00301113       0.00213825      -0.00323623
C       -1.29185845       6.41637513       3.70687909      -0.00336735      -0.00222826       0.01011429
C       -2.52556025       8.58889523       3.76788604       0.00170707      -0.00113711      -0.00573197
C        4.86727933       0.03910689       3.85215922      -0.00981559      -0.00220109       0.00774497
C        3.62033605       2.27063861       3.99945956       0.01103800       0.00021499      -0.00027558
C        1.08668784       6.35306103       4.22557972      -0.00140777      -0.01031070       0.00012919
C       -0.05161649       8.52830699       3.86901207      -0.00149340       0.00887112       0.00615142
C        7.33715969      -0.01635185       3.81721709       0.00338439       0.01030630       0.00313466
C        6.09320579       2.16254791       3.78704528       0.00541701      -0.00371710       0.00695517
C        4.85428692       4.34004983       3.81035836      -0.00413233       0.00943760       0.00376514
O        3.77349585       6.49606395       3.46337334      -0.00050592       0.00276169      -0.00401501
C        2.43072928       8.47508043       3.85828186      -0.00222426      -0.00935983       0.00629772
C        9.78878829      -0.02089525       3.76331055       0.00483089       0.00578437      -0.00951851
C        8.54962670       2.13619917       3.70931482       0.00424924       0.00276511      -0.00147964
C        7.32962636       4.29518084       3.65475491       0.00053510      -0.00407069      -0.00091153
C        6.13275167       6.45284434       3.64703857      -0.00083489      -0.00528584      -0.00563386
C        4.89286843       8.56408605       3.72491265       0.00535169       0.00031110       0.00330434
C       -0.08858864       1.44405112       3.73424613      -0.01167085      -0.00414684       0.00141933
C       -1.33061239       3.55488112       3.65656073       0.00531205       0.00436265      -0.00229413
C       -2.52666561       5.71308332       3.65243129      -0.00333773      -0.00269140      -0.00084895
C       -3.74759177       7.87189304       3.71027243      -0.00061536       0.00575905      -0.00049374
C       -4.98663076      10.02895157       3.77173121       0.00299997      -0.00418291      -0.00598333
C        2.37227578       1.53047322       3.87249943       0.00172460       0.00292379      -0.00162630
O        1.02705145       3.51456977       3.48663888      -0.00610440      -0.00526873      -0.00279884
C       -0.05070519       5.67015885       3.81050541      -0.00132333      -0.00129128      -0.00305879
C       -1.29073267       7.84564210       3.78115881       0.00248455       0.00283110       0.00467737
C       -2.53522898      10.02468448       3.82786329      -0.00650855      -0.00556510      -0.00308383
C        4.85141652       1.47957525       3.87986206       0.00566091      -0.00579352      -0.00611026
C        3.71519908       3.66125160       4.23580190      -0.00039914       0.00448022      -0.00946866
C        1.18141552       7.73885415       3.98112730      -0.00684133      -0.00706565       0.00970423
C       -0.06511685       9.97003691       3.84527158      -0.00376553       0.01327520       0.01184145
C        7.32628452       1.42012386       3.76534794       0.00854192       0.00493615      -0.00099130
C        6.09655997       3.59325658       3.71230901      -0.00398999      -0.00165955      -0.00353310
C        4.92734317       5.76426067       3.63820987      -0.00577339       0.00588739       0.00295497
C        3.69046574       7.84515325       3.70407683       0.00212285       0.00049556       0.00289109
C        2.40260525       9.92117181       3.81082899       0.00374815      -0.00077750       0.00752232
C        9.78437468       1.41687097       3.72022334      -0.00270925       0.00869165      -0.00574018
C        8.55588156       3.56889070       3.66239394       0.00231945      -0.00461549      -0.00295490
C        7.35549367       5.72144617       3.64855787       0.00054177      -0.00173029      -0.00359686
C        6.13467538       7.87759136       3.68601982      -0.00128441      -0.00854110      -0.00877572
C        4.86671357       9.98378925       3.75648866       0.00471039       0.00236582       0.00329363
Au       2.38142964       5.03765490       5.16672495       0.00825981       0.00960297      -0.00025413
O        3.53549234       4.03446567       6.53222364       0.00589269      -0.00081783      -0.00714800
O        3.46583465       4.69653584       7.81199726      -0.01096143      -0.00852192      -0.00362838
H        4.37908748       5.03950207       7.89859558       0.01275145      -0.00482888       0.01323312
