50
Lattice="12.336457 0.0 0.0 -6.168228499999997 10.683685154694365 0.0 0.0 0.0 15.0" Properties=species:S:1:pos:R:3:forces:R:3 energy=-437.33456463171933 free_energy=-437.33456463171933 stress="-9.42917463397059e-05 -3.5439794794220134e-05 -3.516631676892185e-06 -3.5439794794220134e-05 0.005635914902266827 9.394075433660768e-06 -3.516631676892185e-06 9.394075433660768e-06 1.394706761660879e-06" pbc="T T T"
C       -0.02734282      -0.02132082       3.77463753      -0.00352386       0.01155339       0.00920670
C       -1.26543627       2.10682764       3.72740917      -0.00498715      -0.00331757       0.01158828
C       -2.49149982       4.24390756       3.64802641       0.00626281      -0.00335924       0.00679750
C       -3.72254780       6.38458135       3.66978778      -0.00262685       0.00454417      -0.00859452
C       -4.95927545       8.53143364       3.72887130      -0.00103497       0.00757948      -0.00171561
C        2.44468035       0.01179015       3.86604474      -0.00097449      -0.01020871      -0.00760180
C        1.18791117       2.14948461       4.03994480       0.00734008       0.00013685       0.01133515
C       -0.02218068       4.26334421       3.89891302       0.00198059       0.00616862       0.00259940
C       -1.25591356       6.38999718       3.72119821      -0.01030798      -0.00382637       0.00744066
C       -2.48652198       8.53249825       3.73600151      -0.00503307       0.00070557       0.01223372
C        4.91517651      -0.01640680       3.76917991      -0.00262614       0.00312750       0.00164448
C        3.69397517       2.16084003       3.98984015      -0.00220110      -0.00340329      -0.00167393
O        1.12448068       6.40607110       3.74147293       0.01237079      -0.00377226      -0.00609492
C       -0.01620706       8.50505640       3.71298081      -0.00655995      -0.00527236      -0.00124884
C        7.38907130      -0.05608876       3.68070424      -0.00033187      -0.00233355      -0.00221836
C        6.15248973       2.11114908       3.70011027       0.00492250      -0.01272563      -0.00118951
C        4.89382199       4.27141047       3.75840983       0.00578495       0.00168470      -0.00045923
O        3.77247793       6.41050836       3.45723069      -0.00250602       0.00060941       0.00719418
C        2.44170374       8.42723719       3.66153890      -0.00277208       0.00867163      -0.01358558
C        9.83510876      -0.05826043       3.67632549      -0.00211419       0.00357439       0.00966528
C        8.61214362       2.09514938       3.63509173      -0.00218292       0.00835066       0.00239863
C        7.37931934       4.24356693       3.62287303      -0.00298996      -0.00339377      -0.01102242
C        6.14788015       6.38985813       3.63535811       0.01047566      -0.00049897      -0.00389331
C        4.90576581       8.50398386       3.67257395       0.00403721      -0.00186160      -0.00958074
C       -0.03804644       1.40459047       3.82896811       0.00127295       0.00975917       0.01607257
C       -1.25859843       3.53623913       3.72033846       0.00592352      -0.00467441       0.00920891
C       -2.49165693       5.66675351       3.67563167      -0.00854235      -0.00430187       0.00223241
C       -3.72287027       7.81631620       3.71247781      -0.00413073       0.00685225       0.00437930
C       -4.95430074       9.96503252       3.79849396      -0.00664611       0.00549897      -0.00599210
C        2.44384839       1.44354535       4.01419929       0.00249516      -0.01170089       0.00255718
C        1.08833087       3.51979017       4.30375563       0.00303346       0.00061567      -0.00342322
C       -0.05178733       5.69914757       3.80876113      -0.00168175       0.00567300       0.00615019
C       -1.25992569       7.81503825       3.71755510      -0.01033836      -0.00496042       0.00914611
C       -2.49264265       9.96735917       3.79541393       0.00098635      -0.00243288      -0.00063961
C        4.92250414       1.41030909       3.80097630      -0.00252232       0.00137374      -0.00190046
C        3.78232936       3.55004156       4.18551126       0.00626691      -0.00291257      -0.00470866
C        1.17605400       7.78085107       3.70214016       0.00183340      -0.00001335      -0.00172860
C       -0.01679671       9.93816968       3.71482777      -0.00480406      -0.00006715      -0.00715057
C        7.38615452       1.38110458       3.65955554       0.00718374      -0.00631927      -0.00476138
C        6.14267276       3.53885201       3.66249021      -0.00018844      -0.01150571      -0.00207158
C        4.93023450       5.70843740       3.62516203       0.00719408       0.00584262       0.00114005
C        3.71211340       7.77322573       3.60464589      -0.00346100       0.00279812      -0.00170747
C        2.44240955       9.87755264       3.66945998      -0.00067311       0.00659001      -0.00656535
C        9.83790235       1.37758590       3.66523849      -0.00938560       0.00198313       0.00159715
C        8.61168118       3.52472993       3.62361864       0.00133099       0.00742624      -0.01099553
C        7.38231805       5.66865917       3.64383829       0.00537102      -0.00332084      -0.00792045
C        6.15121759       7.81449368       3.67619395       0.00746974      -0.00075526      -0.00867944
C        4.90587244       9.93383463       3.70763488      -0.00002033       0.00327667       0.00595829
Au       2.44260532       4.52299938       5.38968811       0.00495485      -0.00412017      -0.00114655
O        3.61537130       5.98377737       5.95647276      -0.00332399      -0.00333785      -0.00227636
