49
Lattice="12.336457 0.0 0.0 -6.168228499999997 10.683685154694365 0.0 0.0 0.0 15.0" Properties=species:S:1:pos:R:3:forces:R:3 energy=-432.94437664166276 free_energy=-432.94437664166276 stress="0.00020459452545483055 -3.137067872596581e-05 -2.97836670049891e-06 -3.137067872596581e-05 0.004954947550149753 9.923573329262683e-08 -2.97836670049891e-06 9.923573329262683e-08 -3.275159730607728e-06" pbc="T T T"
C       -0.00462865       0.01618263       3.70586122      -0.00518833       0.00136727       0.00666763
C       -1.24203585       2.14563515       3.65980652       0.01402655      -0.00432454      -0.00167706
C       -2.46581843       4.27921316       3.59952666       0.01103767       0.00459425       0.00122799
C       -3.70121051       6.41901916       3.63573712      -0.00008859      -0.01084504       0.00006899
C       -4.93780518       8.56527559       3.68968500      -0.00194135      -0.00482157      -0.01131502
C        2.46707522       0.04130404       3.80866869      -0.00044913       0.00571499      -0.00934841
C        1.21631262       2.18488415       3.97241802      -0.00225026       0.00052427      -0.00102112
C        0.01691320       4.30252835       3.83817846      -0.00871813      -0.00009702       0.01331411
C       -1.23288585       6.42412687       3.66252667      -0.00230674      -0.00303554       0.00370242
C       -2.46449153       8.56546554       3.68338881       0.00049169      -0.00474904      -0.00171380
C        4.93883283       0.01621447       3.71179727       0.00904039       0.00482155       0.01363492
C        3.71742087       2.18445488       3.98501552      -0.00313048       0.00358713      -0.01087472
O        1.14999693       6.44429073       3.67774439      -0.00897056       0.01185346      -0.00399525
C        0.00525502       8.54002296       3.63721891      -0.00079393       0.00604131      -0.00426620
C        7.41196262      -0.01880663       3.61558456       0.00020135      -0.01397847      -0.00277631
C        6.17628320       2.14558660       3.67880083      -0.00544441      -0.00464955       0.00302805
C        4.91791551       4.30282241       3.86512247       0.00529829      -0.00838506       0.00023680
O        3.78475433       6.44362424       3.69559374       0.00209624       0.01870769       0.00179806
C        2.46722610       8.46795777       3.61253032       0.00218076       0.00746176      -0.00034499
C        9.85932670      -0.01880328       3.60906648      -0.00857346      -0.01394384       0.00327676
C        8.63522449       2.13353381       3.58494923      -0.00120336       0.00199831      -0.01514529
C        7.39978927       4.27916376       3.61385151      -0.01018565       0.00511897       0.00382288
C        6.16725839       6.42409279       3.68509630       0.00417530      -0.00242326      -0.00134451
C        4.92852156       8.53941708       3.64350687       0.00635108       0.00893335       0.00428141
C       -0.01464972       1.43973399       3.75382526       0.00486636       0.00136683       0.00249034
C       -1.23366224       3.57408147       3.65856555       0.00531545      -0.00480545       0.00546500
C       -2.46802382       5.70233001       3.62811903       0.00099337      -0.00240881       0.00630089
C       -3.70107724       7.85000452       3.67361359      -0.00323100      -0.00788805      -0.00668052
C       -4.93237163       9.99866434       3.73881169      -0.00934832       0.00379134       0.00227970
C        2.46675520       1.47036753       3.96385735      -0.00037861       0.00674264      -0.00615410
C        1.12841735       3.55642821       4.25248812      -0.00764061       0.00059336      -0.01324913
C       -0.02159265       5.73540502       3.74241057      -0.00815240       0.00185775       0.00402697
C       -1.23812008       7.84792210       3.65501848       0.00270150      -0.00252483       0.00378276
C       -2.46984373       9.99870166       3.73993178       0.00751832       0.00191273      -0.00528762
C        4.94900084       1.43952583       3.76922955      -0.00485658       0.00174632      -0.00087746
C        3.80246071       3.55581434       4.26661064       0.00514024       0.00096367       0.00208149
C        1.19889780       7.81791868       3.62505308       0.00093423       0.00614944       0.00936129
C        0.00661486       9.97286508       3.64546533       0.00358607       0.00093949       0.00563365
C        7.40919149       1.41786987       3.61150161      -0.00617723      -0.00956927      -0.00620873
C        6.16807588       3.57418568       3.68301357      -0.00333618      -0.00597830      -0.00625595
C        4.95634808       5.73547638       3.76887891       0.00678652      -0.00078517      -0.00077540
C        3.73515256       7.81701292       3.63449068       0.00281039       0.01446939      -0.00318946
C        2.46754739       9.91872472       3.60420187      -0.00802205      -0.00984924      -0.01089383
C        9.86152530       1.41798395       3.59945681       0.00617386      -0.01460940       0.00893448
C        8.63514670       3.56137914       3.58268781      -0.00210563       0.01530414       0.00349342
C        7.40201992       5.70224292       3.64213090       0.00435672      -0.00160535       0.00229152
C        6.17204110       7.84767820       3.66867850       0.00139003      -0.00168609      -0.00102723
C        4.92766440       9.97252056       3.64214903      -0.00002069      -0.00064790       0.00420562
Au       2.45868201       4.42650577       5.53285428       0.00504130      -0.00295061       0.00901499
