50
Lattice="12.336457 0.0 0.0 -6.168228499999997 10.683685154694365 0.0 0.0 0.0 15.0" Properties=species:S:1:pos:R:3:forces:R:3 energy=-436.2405116470605 free_energy=-436.2405116470605 stress="-0.0027413177587271745 -0.002934023946907665 -8.827919797657863e-06 -0.002934023946907665 0.007106387103293603 -1.3113207530631775e-06 -8.827919797657863e-06 -1.3113207530631775e-06 4.962804670946194e-06" pbc="T T T"
C        0.00101121       0.00479323       3.70156766       0.00445851      -0.00442120       0.00317270
C       -1.26349510       2.11148872       3.63278674       0.00919003       0.00017718       0.00075046
C       -2.48642376       4.26762547       3.61102278       0.00089150       0.00034725       0.00506735
C       -3.69194025       6.41941581       3.63528257       0.00243412      -0.00531946      -0.01415613
C       -4.91974877       8.56994206       3.68373646      -0.00747794      -0.00047925      -0.01135149
C        2.46260347       0.06690429       3.77428144       0.00988291       0.00422873      -0.00655084
C        1.18116131       2.14362537       3.65893491      -0.00939979       0.00308752       0.00341155
C       -0.06123567       4.22993221       3.60165531      -0.00231713       0.00627763      -0.00125904
C       -1.23554019       6.39957752       3.66711391      -0.00192597      -0.00052748       0.00915106
C       -2.46449896       8.56988535       3.73139935      -0.00040125      -0.00392193       0.00301982
C        4.93280105       0.01558671       3.81353328       0.00487650       0.00678161      -0.00062526
C        3.69265322       2.23830058       3.93612104      -0.00864182      -0.00108022       0.00233798
C        1.13436521       6.34673787       4.15796231      -0.00422657       0.00451147       0.00190742
C        0.00849673       8.51345180       3.83483471       0.00199176      -0.00637333       0.00299064
C        7.40631378      -0.03800331       3.78625155      -0.01074111      -0.00076132       0.00757062
C        6.16515495       2.13701826       3.75638906      -0.00089955       0.00464426      -0.00572854
C        4.93351896       4.31099326       3.76633081       0.00496099      -0.00367721       0.01417962
O        3.83321134       6.46209878       3.44609893       0.00548398      -0.00415705       0.01625285
C        2.49547757       8.45589299       3.82223056       0.00929450      -0.00461642      -0.00794863
C        9.85715200      -0.04160865       3.71987857      -0.00878976      -0.00139778      -0.00393970
C        8.62019555       2.11455824       3.67848797       0.00525610       0.00385583      -0.01410586
C        7.40023815       4.27315134       3.62954820      -0.00425709       0.00178345      -0.00804105
C        6.19691545       6.42992015       3.62334284      -0.00286332      -0.00257586      -0.00056915
C        4.95497986       8.54036720       3.68247224      -0.00198066       0.00592090       0.00879615
C       -0.02105466       1.42627582       3.66812390       0.00171848      -0.00574054       0.01078499
C       -1.26295106       3.53665629       3.60134504       0.00287635       0.00228116       0.00157194
C       -2.46655691       5.69353262       3.61942909       0.00403217      -0.00219771      -0.00713690
C       -3.68644085       7.85201738       3.67995907      -0.00543966      -0.00355756      -0.01391096
C       -4.92348469      10.00828045       3.71964940       0.00880267       0.00142216      -0.00369864
C        2.43796128       1.51069194       3.81590878      -0.00988378       0.00385602      -0.00677720
O        1.10186293       3.50417495       3.42854767      -0.00623853       0.00384755       0.01759034
C        0.00012680       5.65556964       3.74698091      -0.00549742       0.00350280       0.01588666
C       -1.23141229       7.82959120       3.74730220       0.00072418      -0.00434771      -0.00431451
C       -2.47257891      10.00459430       3.78340373       0.01062250       0.00114484       0.00706643
C        4.92501583       1.45293931       3.83909436      -0.00214136       0.00673066       0.00338351
C        3.79611368       3.61831557       4.16632674       0.00401140      -0.00516329      -0.00015849
C        1.24025333       7.72776722       3.93409460       0.00806379       0.00035347       0.00284180
C        0.00089054       9.95091133       3.81371461      -0.00527796      -0.00600253      -0.00122751
C        7.39830244       1.39679383       3.73582511       0.00035150       0.00436673       0.00261953
C        6.16920871       3.56736297       3.68244973       0.00152521       0.00047961       0.00747081
C        4.99534146       5.73671927       3.62526150       0.00202060      -0.00637517      -0.00356147
C        3.75301575       7.82285278       3.67326650       0.00892499      -0.00322862       0.00154764
C        2.47112478       9.89970049       3.77813001      -0.01007486      -0.00457383      -0.00740049
C        9.85355827       1.39664538       3.67665128       0.00714340       0.00062699      -0.01009250
C        8.62571834       3.54719125       3.63363269      -0.00256270       0.00529895      -0.01307406
C        7.42021915       5.69895493       3.62328611      -0.00072876      -0.00080309       0.00403753
C        6.19727181       7.85498596       3.64959788      -0.00943477      -0.00024634      -0.00234853
C        4.93272461       9.96199402       3.70505437      -0.00401973       0.00481916       0.00340791
Au       2.46017971       4.97977537       4.98657895       0.00040624       0.00039787      -0.01179695
O        2.46939811       4.98155798       6.92848000       0.00527712       0.00080112       0.00295660
