50
Lattice="12.336457 0.0 0.0 -6.168228499999997 10.683685154694365 0.0 0.0 0.0 15.0" Properties=species:S:1:pos:R:3:forces:R:3 energy=-434.61211590900973 free_energy=-434.61211590900973 stress="0.0028807895540133837 -0.001096500849428081 5.1476237523189835e-06 -0.001096500849428081 0.010588837287312898 6.26476159811622e-06 5.1476237523189835e-06 6.26476159811622e-06 9.690602299890565e-06" pbc="T T T"
C       -0.02873403       0.02570685       3.71760541       0.00308984       0.00574618       0.00652524
C       -1.27452596       2.14623358       3.81336466       0.00010402      -0.00127602       0.00145333
C       -2.50471123       4.29220971       3.80982691       0.01514129      -0.00046315       0.00073199
C       -3.72969311       6.43573942       3.69930085      -0.00208669      -0.00261791       0.00048595
C       -4.96393792       8.57852297       3.65474078      -0.00574459      -0.00385218       0.01442430
C        2.43407966       0.09344763       3.70857618       0.00332167      -0.00293007       0.00506766
C        1.16299239       2.18923427       3.78367620       0.00418246       0.00318795       0.00252539
C       -0.06129020       4.26025581       3.99836162      -0.00754949       0.00067152      -0.01356148
C       -1.26461616       6.42188375       3.87967064       0.00189474       0.00305772      -0.00683739
C       -2.50348810       8.58604197       3.74882917       0.00458795       0.00332989       0.01123337
C        4.89734559       0.03672898       3.74896372      -0.00177755       0.00505917      -0.00604821
C        3.69585209       2.22136409       3.62775932       0.00084195      -0.00436516      -0.00764285
C        1.07224274       6.45756056       4.50664564      -0.00212943      -0.00108787      -0.00066563
C       -0.03153536       8.54685634       3.89229004      -0.00094188       0.00615646       0.00927922
C        7.37482114      -0.01064110       3.79048515      -0.00525004      -0.00547221      -0.00347701
C        6.13403611       2.16416186       3.68587338      -0.00172772       0.00290870       0.00111836
C        4.91340617       4.29882621       3.50112787      -0.00341806      -0.00315358       0.00096699
O        3.75469694       6.44595801       3.43955387       0.00186857      -0.00082603       0.00459272
C        2.45828884       8.47889469       3.86234112      -0.00125038      -0.00202569       0.00652938
C        9.83217958      -0.01626132       3.76025680       0.00204725       0.00193082       0.00132211
C        8.59899475       2.14255318       3.76091099      -0.00292110       0.00722590      -0.00526581
C        7.36749082       4.29537301       3.66335645       0.00598055       0.00262658       0.00316927
C        6.13811923       6.42164112       3.55529519      -0.00255519      -0.00517285      -0.00580742
C        4.90750777       8.54278892       3.65549318      -0.00114745      -0.00562042      -0.00113267
C       -0.02971459       1.45962829       3.77539824       0.00318588       0.00579242       0.00027159
C       -1.26895116       3.57045378       3.87933646       0.00298520      -0.00729950       0.00216928
C       -2.49819010       5.71567663       3.78676186       0.00437212      -0.00070890      -0.01009395
C       -3.72741672       7.86713295       3.69330333       0.00099804       0.00067050      -0.00297979
C       -4.95577713      10.02436057       3.69155779      -0.00065033       0.00031960      -0.00378634
C        2.43043255       1.54639091       3.70903289       0.00470400      -0.00415618      -0.00513374
O        1.11899209       3.56001554       3.89047908      -0.00744387       0.00645932      -0.01585330
C       -0.02808015       5.69607647       4.09126013      -0.00134349       0.00063713      -0.01048272
C       -1.27051137       7.85281645       3.84379204       0.00523084       0.00308146       0.00147649
C       -2.50801157      10.02570621       3.73252979       0.00384108       0.00226708       0.00281481
C        4.88994476       1.47483020       3.69278773       0.00123847       0.00127500       0.00350520
O        3.73885439       3.58284334       3.44234318      -0.00594682      -0.00703513       0.00076929
C        1.19788343       7.78501455       4.06043679      -0.00317553       0.00447713       0.00015768
C       -0.03394619       9.98033878       3.79993387      -0.00853637       0.00392538       0.01102099
C        7.36142799       1.43145802       3.74409239      -0.00505722      -0.00077272       0.00602553
C        6.12811712       3.59412302       3.61281283       0.00184860       0.00464371      -0.00225763
C        4.92790969       5.72082584       3.45858582      -0.00112697      -0.00061492       0.00661828
C        3.70533143       7.81145705       3.67045699      -0.00033628      -0.00403066      -0.00144028
C        2.44080783       9.92582572       3.79793336       0.00047967      -0.00363943       0.00516222
C        9.83601706       1.42592100       3.78099262      -0.00268521       0.00542212      -0.00796804
C        8.60068224       3.57452949       3.74525129       0.01305715       0.00763332      -0.00192157
C        7.37575993       5.71530763       3.63305168      -0.00558531      -0.00159973       0.00375090
C        6.14754961       7.85205589       3.60831960      -0.00310509      -0.00786126      -0.00494248
C        4.90066007       9.97539221       3.71506419       0.00263375      -0.00108978       0.00845750
Au       2.37447451       5.49315716       5.70494005       0.00064728      -0.01027213      -0.00563965
O        3.81292900       4.20532042       5.88510371      -0.00479029      -0.00056157       0.00131293
