50
Lattice="12.336457 0.0 0.0 -6.168228499999997 10.683685154694365 0.0 0.0 0.0 15.0" Properties=species:S:1:pos:R:3:forces:R:3 energy=-434.6069474820542 free_energy=-434.6069474820542 stress="-0.00047992688898877977 -9.271049378096003e-05 1.8784032633622094e-05 -9.271049378096003e-05 -0.0014131668160367369 -3.600778276930315e-06 1.8784032633622094e-05 -3.600778276930315e-06 2.5197312893126895e-06" pbc="T T T"
C        0.02803309       0.03089705       3.89686504       0.00978303      -0.00083745      -0.01039841
C       -1.21812377       2.16859807       4.04580121      -0.00388813      -0.00795650      -0.00053717
C       -2.48919594       4.30382321       3.76682383      -0.00398322      -0.00433313       0.00026453
C       -3.70705256       6.43696702       3.56733411       0.00453460      -0.00209486      -0.00192592
C       -4.91678699       8.57426651       3.66809076       0.00257981       0.00325510      -0.00436936
C        2.50361885       0.03722619       3.74505786      -0.00543391      -0.00008595      -0.00049280
C        1.29906022       2.10678611       4.27263490      -0.00459045      -0.00461902      -0.00156474
C       -0.11093758       4.36891885       4.18293553       0.00203011      -0.00411728      -0.01505997
C       -1.23347558       6.43062702       3.55109082       0.00691203       0.00061708      -0.00505203
C       -2.44761178       8.56760848       3.54015876       0.00862977       0.00383817       0.00037365
C        4.95849729       0.01321052       3.59422546      -0.01548518       0.00580131       0.00118705
C        3.76243337       2.14855741       3.70825897       0.00145807       0.00124778       0.00497637
P        1.60600421       6.20782219       3.15408374       0.00031256      -0.00265939      -0.00394999
C        0.03322849       8.56137924       3.50412446       0.00250899      -0.00314190      -0.00036637
C        7.42287851       0.03180962       3.65294669      -0.00105393       0.00570018       0.00462813
C        6.18627602       2.15883188       3.57819813      -0.00252731       0.00604525       0.00815841
C        4.94790979       4.26414837       3.52383570       0.00034256       0.00392655       0.00409349
C        3.68270317       6.43612265       3.90905803      -0.00101337       0.00352353       0.00501371
C        2.50157790       8.60455008       3.70659051      -0.00162267      -0.00378526       0.00203045
C        9.89641463       0.04185080       3.83270221       0.01297818       0.00088841       0.00522820
C        8.65069841       2.16801818       3.74556296       0.00365907       0.00027291      -0.00248190
C        7.39442400       4.30466153       3.57898575      -0.00475639      -0.01194687      -0.00134681
C        6.14218256       6.41939098       3.58085597      -0.00498524      -0.00047536       0.00469380
C        4.96502544       8.57769710       3.78421922      -0.00522269       0.00925514      -0.00697051
C        0.03547676       1.45202753       4.08889728      -0.00310026      -0.00774424      -0.00487521
C       -1.27661005       3.59352050       4.02816212      -0.00201154      -0.00481168      -0.00614182
C       -2.47926151       5.72457947       3.61841264       0.00506358      -0.00340802      -0.00403512
C       -3.69007944       7.86198498       3.57465353       0.00890791       0.00422456      -0.00116303
C       -4.90645327      10.00145691       3.77548166       0.00350147      -0.00026384      -0.00524386
C        2.52647781       1.46153009       3.90936608       0.00051289      -0.00442129       0.01197344
P        1.23608318       3.65892387       5.05862829       0.00614940      -0.00318404      -0.00205393
C       -0.03119138       5.67822739       3.67731060       0.00710127       0.00656854       0.00132558
C       -1.21488044       7.85471074       3.48608776       0.00706553      -0.00118807      -0.00372579
C       -2.44494786       9.99634716       3.60629026      -0.01044515       0.00286077      -0.00332998
C        4.95956320       1.44508254       3.61386912      -0.00177733       0.00484271       0.00688808
O        3.78681247       3.51107491       3.52060352       0.00986804       0.00056532       0.01621596
C        1.29668259       7.89973798       3.50651633       0.00164052      -0.00846007      -0.00031022
C        0.02755400       9.99044804       3.57090290      -0.01085725       0.00359275      -0.00011062
C        7.41548637       1.45797267       3.65173298       0.00114158       0.00971872       0.00070646
C        6.16377383       3.58179516       3.53714940      -0.00587245      -0.00022032      -0.00463687
C        4.88360131       5.69090563       3.59590234      -0.00649689       0.00104563       0.00704447
C        3.72942609       7.86287918       3.79552629      -0.00252055       0.00012127      -0.00270021
C        2.49452601      10.02519791       3.73643768       0.00768565       0.00170763       0.00406549
C        9.89253204       1.46285817       3.87611905       0.00134639      -0.00264098       0.00332877
C        8.62730587       3.59075803       3.69207557      -0.00234961      -0.00608864      -0.00346835
C        7.38448881       5.72203995       3.56115918      -0.00208307      -0.00950342       0.00312867
C        6.18224665       7.85266209       3.68571525      -0.00633948       0.00753386      -0.00794072
C        4.96195246      10.00770941       3.84158833       0.01246609       0.00633255       0.00343342
Au       2.66138024       5.40918606       5.44629477      -0.01115962      -0.00708470       0.00577377
O        1.38219532       3.88186099       6.58026772      -0.00860337       0.01158655      -0.00028020
