49
Lattice="12.336457 0.0 0.0 -6.168228499999997 10.683685154694365 0.0 0.0 0.0 15.0" Properties=species:S:1:pos:R:3:forces:R:3 energy=-424.01890573837375 free_energy=-424.01890573837375 stress="-0.0020601395134965794 -0.0010890743802640017 1.3132205765248087e-05 -0.0010890743802640017 -0.0051791927876761994 -9.838354964132675e-06 1.3132205765248087e-05 -9.838354964132675e-06 1.936615802002147e-06" pbc="T T T"
C       -0.00482595      -0.02994759       3.70948884       0.00466966      -0.00468097      -0.00858184
C       -1.23959012       2.11078894       3.49079660       0.00985513       0.00666322       0.00144797
C       -2.49208418       4.25316181       3.47108688      -0.00602311      -0.00095700       0.00199556
C       -3.70996867       6.39131426       3.60133862      -0.00347992      -0.00054277       0.00321646
C       -4.92648761       8.52337355       3.72765190      -0.00173918      -0.00608107       0.01086024
C        2.46543207      -0.05800138       3.81004348       0.00352128      -0.00284686      -0.00885390
C        1.25528870       2.02763177       3.46838818       0.00024181      -0.00966069      -0.00250534
C       -0.10546853       4.26653808       3.00986073       0.01441503      -0.00581894      -0.00528364
C       -1.26146709       6.40621710       3.30617323       0.00681740       0.00629223      -0.00023842
C       -2.45070097       8.51606241       3.64313285       0.00231899       0.00958202      -0.00067058
C        4.93316383      -0.02340202       3.89415248      -0.00290262      -0.00505287      -0.00156151
C        3.65547129       2.06752480       4.14476556      -0.00608095      -0.00446035       0.00122453
S        1.41113443       6.41999724       2.60058652      -0.01230914      -0.00322414      -0.00935486
C        0.00444708       8.54242347       3.57434176       0.00323831       0.01018364       0.00044227
C        7.39774701      -0.00759558       3.86622736      -0.00817777       0.00369424      -0.00098320
C        6.15524054       2.12745007       4.00331981      -0.00347403      -0.00548236       0.00157164
C        4.98734602       4.31929388       4.19821488       0.01246632       0.00917518       0.00631419
C        3.77661469       6.45187488       4.44458003      -0.00317719       0.00307062       0.00122588
C        2.46592387       8.54191683       3.85922313      -0.00565717       0.00305743      -0.00280102
C        9.87031321      -0.00748616       3.81596398      -0.00036902       0.00264794       0.00573761
C        8.62641333       2.12470700       3.74779480       0.00406870       0.00263564       0.00773715
C        7.39634067       4.26105810       3.78806740       0.00041882      -0.00063932       0.00733211
C        6.18510216       6.41747456       3.85267465       0.00303622      -0.00543143       0.00338732
C        4.93957566       8.53228634       3.90432420      -0.00146866      -0.00494007       0.00358767
C       -0.00564473       1.39330396       3.54051144       0.00488035      -0.00192428      -0.00292697
C       -1.26425238       3.52609341       3.32289089       0.00506361       0.00432279      -0.00000564
C       -2.48959298       5.67696281       3.45370876      -0.00263359       0.00079762       0.00350148
C       -3.69622433       7.81103568       3.64613259       0.00188632       0.00298306       0.00781485
C       -4.93871678       9.93689923       3.74074010       0.00341969      -0.00457495       0.00285352
C        2.44981193       1.35379040       3.85394876       0.00313147      -0.00559818      -0.00583751
S        1.45447871       3.54747209       2.69417612      -0.01005364      -0.00935880       0.00424571
C       -0.10731680       5.66740126       2.99435264       0.00765877       0.00073226      -0.01536816
C       -1.22212164       7.82039846       3.48073193       0.00482800       0.01145580       0.00247391
C       -2.45719792       9.93182331       3.80385708       0.00029193       0.00253954      -0.00021565
C        4.92466046       1.40324671       4.05577441      -0.00625688      -0.01346883       0.00830073
P        3.49404257       3.67644286       4.74564761       0.00001302       0.00797426      -0.00591791
C        1.26797074       7.90723257       3.44608623      -0.00577924      -0.00224592       0.00191905
C       -0.00049878       9.95941432       3.80721806      -0.00371027       0.00459671      -0.00789549
C        7.39193415       1.41949595       3.88489095       0.00010357       0.00282352       0.00536685
C        6.16945429       3.55428103       3.99272413       0.00402829       0.00071018      -0.00161397
C        4.95341057       5.73988793       4.13379943       0.00094270       0.00580159      -0.00710894
C        3.69976483       7.79668890       4.05695484      -0.00504633       0.00216496      -0.00058330
C        2.46617758       9.96590890       3.87556778      -0.00838014       0.00434466      -0.00860060
C        9.87010255       1.41417992       3.68706984       0.00809924       0.00497827       0.00090376
C        8.61949474       3.54631938       3.66670209      -0.00406097       0.00051063       0.00850010
C        7.39731738       5.68565240       3.73235974       0.00217275      -0.00385819       0.01010686
C        6.17620265       7.82813384       3.81872730      -0.00144272      -0.00947743       0.00009568
C        4.93074281       9.95164053       3.80444460       0.00186755      -0.00447848      -0.00631376
Au       2.45843221       5.49018090       5.78350438      -0.01123239       0.00106590      -0.00894086
