50
Lattice="12.336457 0.0 0.0 -6.168228499999997 10.683685154694365 0.0 0.0 0.0 15.0" Properties=species:S:1:pos:R:3:forces:R:3 energy=-431.8818569359846 free_energy=-431.8818569359846 stress="0.003464196145188617 -0.004652023579106097 1.3386536306432212e-05 -0.004652023579106097 -0.003631944251273499 -1.196844185120078e-05 1.3386536306432212e-05 -1.196844185120078e-05 4.6285270230187915e-07" pbc="T T T"
C        0.02743891      -0.01975231       3.68039286       0.01181821      -0.00108557      -0.00620904
C       -1.22797693       2.11694032       3.63490333      -0.00120287      -0.00421741      -0.00030591
C       -2.45372537       4.26257524       3.68076824      -0.00911319       0.00300025       0.00332391
C       -3.67051653       6.39036948       3.76226308       0.00119002      -0.00035591      -0.00048478
C       -4.89695757       8.52526675       3.76235391       0.00143005      -0.00249998       0.00251880
C        2.48653204      -0.01754883       3.70847538      -0.00328130      -0.00539498      -0.00810870
C        1.21052626       2.09336084       3.65190874       0.00015163      -0.00272847       0.00240942
C        0.00104633       4.17975628       3.75540409      -0.00595431       0.00066531       0.00143567
C       -1.14157185       6.34840465       3.79854659       0.00395067       0.00451476      -0.00146181
C       -2.41276610       8.51063371       3.78825156      -0.00021747      -0.00638074       0.00111424
C        4.95620218      -0.01905507       3.67055638      -0.00457636      -0.00261086       0.00996496
C        3.68750211       2.09420550       3.37101890       0.00141682      -0.00155097      -0.00790124
P        1.78009329       6.19906858       4.21498846      -0.00502979      -0.00441570       0.00572545
C        0.05708700       8.52474276       3.85346218       0.00362447       0.00142779       0.01165696
C        7.40869542       0.02028981       3.67694032       0.00397077      -0.00260154      -0.01024686
C        6.15798920       2.14764238       3.52539764       0.00986252       0.00630542       0.00131394
C        4.93759998       4.31149931       3.46392505      -0.00524879       0.00161272      -0.00152291
C        3.61994405       6.46304285       3.77710645      -0.00335325      -0.00031363       0.00555349
C        2.51304986       8.61468193       3.79869071      -0.00154920      -0.01023069       0.00084034
C        9.89339965       0.01448596       3.64767749      -0.00281003       0.00253311       0.01113266
C        8.63509263       2.14408883       3.61674374       0.00013541       0.00295054      -0.00001510
C        7.40018941       4.27819794       3.65804834      -0.00213524      -0.00072142       0.00134066
C        6.15525949       6.40832295       3.75778630       0.00570094       0.00316576      -0.00476592
C        4.97344288       8.55291048       3.71473477      -0.00102363       0.01319310       0.00060592
C        0.00923617       1.40371884       3.65074423       0.00294033      -0.00476762      -0.00882771
C       -1.22516934       3.52624823       3.66117437      -0.00751967      -0.00134070       0.00726328
C       -2.41976226       5.67529352       3.74567368       0.00089106       0.00465597      -0.00694874
C       -3.65854237       7.81106770       3.78081902      -0.00029240      -0.00308902       0.00491287
C       -4.90591199       9.95097054       3.73109679       0.00444137      -0.00660354      -0.00033732
C        2.45803580       1.40855943       3.59313306      -0.00102726      -0.00477499      -0.00707139
O        1.18301968       3.45592165       3.85086561      -0.00218240      -0.00006035      -0.01480842
C        0.08788212       5.57500267       3.80725114       0.00110813       0.00048538       0.00651678
C       -1.16831626       7.78927810       3.82733009       0.00581423       0.00128561       0.01019687
C       -2.43689434       9.94298144       3.73213911      -0.00685306      -0.00759011      -0.00044124
C        4.93232487       1.41477217       3.51361963       0.00621802       0.00262588       0.00136833
P        3.62481866       3.63770946       2.55650748      -0.00426660       0.00493710      -0.00817373
C        1.32762382       7.88459783       3.94278418      -0.00316591      -0.00910414      -0.01074411
C        0.02517967       9.96319077       3.73800129       0.00055573       0.00117197       0.00088010
C        7.39580978       1.44075448       3.60315292       0.00717405       0.00127910       0.00136844
C        6.15896002       3.57302431       3.54592720       0.00032234       0.00525438      -0.00164711
C        4.87698974       5.72424860       3.70202822       0.00218911       0.00291729      -0.00971192
C        3.73136267       7.86687766       3.75641460       0.00180342       0.00088057       0.00394517
C        2.48732388      10.01883334       3.69526539       0.00063146      -0.00947835       0.00484770
C        9.88057204       1.43017902       3.62292984      -0.00380406       0.00153407       0.00287870
C        8.63548088       3.56471967       3.64870123      -0.00611515       0.00094309      -0.00763258
C        7.40498300       5.69817871       3.73232866       0.00438412      -0.00242956       0.00193001
C        6.19809168       7.82580947       3.75397827      -0.00108155       0.00676891      -0.00109785
C        4.96069386       9.97077923       3.67540530       0.00460821       0.01405369       0.00955899
Au       1.91779406       5.82144395       6.52768068       0.00314599      -0.00367897       0.01767049
O        2.04485115       5.46489027       8.43828302      -0.00767560       0.00986341      -0.01380975
