49
Lattice="12.336457 0.0 0.0 -6.168228499999997 10.683685154694365 0.0 0.0 0.0 15.0" Properties=species:S:1:pos:R:3:forces:R:3 energy=-427.3691321090173 free_energy=-427.3691321090173 stress="-0.002105955219190984 -0.0017081908401080403 -6.240503641765873e-06 -0.0017081908401080403 -0.0026659501111187234 -7.620200623406249e-06 -6.240503641765873e-06 -7.620200623406249e-06 -1.2410734430816584e-06" pbc="T T T"
C        0.00054609      -0.02186682       3.62311628      -0.00767333       0.00331981      -0.00310050
C       -1.23966517       2.11955991       3.54717898       0.00234218      -0.00500215      -0.00101554
C       -2.47930331       4.25806637       3.63195715       0.01245985      -0.00056403      -0.00171336
C       -3.69756669       6.39685539       3.62486343       0.00554772       0.00266403      -0.00031360
C       -4.92753677       8.52912664       3.62278312       0.00054040      -0.01115675       0.00364790
C        2.46814627      -0.06024663       3.81956933      -0.00879004      -0.00001120      -0.00543994
C        1.25902371       2.05172573       3.52077415      -0.00239492       0.00481330       0.00322018
C       -0.02680633       4.30878327       3.60522701       0.00929833       0.01385653       0.00415481
C       -1.25752453       6.40568032       3.82845348       0.00329379       0.00283602      -0.00225764
C       -2.46254138       8.52531350       3.82332203       0.00222152      -0.01025062      -0.00814894
C        4.94360818      -0.02865509       3.93132187      -0.00241701      -0.00254537       0.00692736
C        3.67147077       2.05377973       4.05451926      -0.00246649       0.00406108       0.00008160
C        1.13952189       6.39320526       4.36926792       0.00874729      -0.00898645       0.00581870
C        0.01481779       8.51221619       3.95714211      -0.00414541       0.00475020      -0.00785709
C        7.40946410      -0.02905543       3.84215109       0.00392418       0.00672237      -0.00035332
C        6.15348011       2.14101546       3.82443143      -0.01002992       0.00291200      -0.00244843
C        4.93908987       4.37597375       3.59828475      -0.00168683       0.00653673       0.00567430
O        3.79855276       6.48847414       3.34327125       0.00261883      -0.00763546      -0.01222756
C        2.50403086       8.48162458       3.84042526      -0.00525271      -0.00072155       0.00149794
C        9.86342477      -0.02786857       3.67330429      -0.00136460       0.00278280       0.00509782
C        8.62489162       2.11802923       3.67415641      -0.00357085      -0.00426877      -0.00242622
C        7.39019409       4.26579382       3.58814429      -0.00236410       0.00425649      -0.00142188
C        6.19751016       6.42942029       3.41413761      -0.00188817      -0.00644727       0.00616414
C        4.95009565       8.53981369       3.58165562       0.00047147      -0.00040370      -0.00293202
C       -0.00108559       1.40264562       3.54934249      -0.00283662      -0.00037413       0.00332025
C       -1.23398480       3.55255608       3.58017630       0.01534511      -0.00265224      -0.00132829
C       -2.47484969       5.68246849       3.69126398       0.00701443       0.00457918      -0.00521768
C       -3.69067777       7.81814095       3.68568783       0.00375987      -0.00795652       0.00006571
C       -4.93491488       9.94373811       3.69079164      -0.00934630      -0.00827652      -0.00587672
C        2.45821914       1.34795083       3.83038089      -0.00607665       0.00729474      -0.00278692
P        1.50055778       3.69386661       2.92532724      -0.00496224      -0.00428256       0.00562810
C       -0.01572006       5.70489414       3.91299980      -0.00032574       0.00923576       0.00657145
C       -1.23085880       7.81880056       3.89049716       0.00207946      -0.00176982      -0.00581960
C       -2.45695518       9.93817412       3.88131577      -0.00401039      -0.00900680      -0.00136331
C        4.93458875       1.40608282       3.96316547      -0.00494809       0.00219227       0.00160033
P        3.42197710       3.77458981       4.24989688       0.01463833      -0.00519716      -0.00279175
C        1.25765375       7.75534216       4.05138833      -0.00773922      -0.00549422       0.00526946
C        0.01118804       9.93897424       3.91282683       0.00280887       0.00833771       0.00360862
C        7.39071065       1.40952397       3.77969336      -0.00674849       0.00109987      -0.00057687
C        6.14151740       3.57690180       3.66642942      -0.00625525       0.00213793       0.00063226
C        4.97807885       5.76855526       3.39915391       0.00438279      -0.00011525      -0.00392594
C        3.74578115       7.83277981       3.60934297       0.00068911      -0.00418280      -0.00385169
C        2.47690199       9.91750874       3.78363379       0.00215622       0.00493307       0.00660515
C        9.86367197       1.40688986       3.62971048      -0.00196474      -0.00195208      -0.00211096
C        8.62539347       3.54527969       3.62681065       0.00377040       0.00019893       0.00018825
C        7.41199087       5.68634037       3.52042566       0.00192480       0.00551957       0.00437570
C        6.18724856       7.83830768       3.50767356       0.00032518      -0.00757383       0.00410269
C        4.93252252       9.95982754       3.63064608      -0.00523767       0.00524780       0.00188526
Au       2.34151360       5.23164512       5.64668093       0.00413561       0.00653910       0.00116781
