49
Lattice="12.336457 0.0 0.0 -6.168228499999997 10.683685154694365 0.0 0.0 0.0 15.0" Properties=species:S:1:pos:R:3:forces:R:3 energy=-427.6099042505083 free_energy=-427.6099042505083 stress="-0.008634062900504507 0.003226565831004145 -2.5096543089121458e-06 0.003226565831004145 -0.0020156514234771477 -4.2761731248641305e-06 -2.5096543089121458e-06 -4.2761731248641305e-06 5.328541455836743e-06" pbc="T T T"
C        0.00376074       0.00251855       3.72838159      -0.00099050      -0.00630636       0.00213487
C       -1.22055082       2.14097334       3.60896054       0.00333201       0.00172220      -0.00546237
C       -2.46380788       4.28269958       3.79551430      -0.00425598      -0.00276020       0.00135563
C       -3.71310544       6.42178638       3.88332713      -0.00369776       0.00008621      -0.00064064
C       -4.94619831       8.55559129       3.81055867       0.00549419      -0.00450804      -0.00317057
C        2.46593028       0.03807217       3.83910709      -0.00576986       0.00291490      -0.00099145
C        1.25015370       2.08260693       3.32345932      -0.00066253       0.01492322       0.00281809
C       -0.10383073       4.34522343       3.25829549       0.00772877      -0.01138532       0.00074813
C       -1.28941604       6.44977575       3.74863232       0.00048219       0.00038816      -0.00425159
C       -2.48886874       8.57374057       3.91461589      -0.00435427       0.00222189       0.00046135
C        4.93443974       0.01043711       3.95040877      -0.00410823       0.00057059       0.00023470
C        3.74091471       2.17799673       3.89769158      -0.00310017      -0.00427906      -0.00355415
N        1.05374615       6.44093737       3.95371873       0.00448251      -0.00346086      -0.00191166
C       -0.02480233       8.55266951       3.89720024       0.00275325       0.00709363      -0.00225378
C        7.41697352      -0.02160741       3.95225577       0.00096790       0.00355955      -0.00060433
C        6.20403737       2.11121326       3.98931821       0.00772389      -0.00336521      -0.00162027
C        5.02501188       4.21018560       3.83030308       0.00009452      -0.00105785       0.00869928
P        3.64841934       6.29614794       2.67905686       0.00402209      -0.00612740      -0.01049268
C        2.45547544       8.51325766       3.76713886      -0.00102209       0.00105177       0.00655585
C        9.87691051      -0.01492333       3.80860541      -0.00282379       0.00583988       0.00068457
C        8.66407298       2.12452695       3.90582131       0.00243251      -0.00655637      -0.00271021
C        7.44360648       4.26341125       3.92322538       0.00959642       0.00187153       0.00307638
C        6.19138113       6.39365671       3.70676081       0.00221995       0.00859374       0.01466974
C        4.93223462       8.53849125       3.64813264       0.00010869      -0.00509039       0.00829933
C        0.00794193       1.42743593       3.56897919       0.00351102      -0.00030937      -0.00070661
C       -1.23981090       3.57618938       3.57018901      -0.00281145      -0.00066542       0.00120091
C       -2.49031805       5.70855262       3.82147620      -0.00442411      -0.00041129       0.00114842
C       -3.71617410       7.85063689       3.88077347       0.00094204      -0.00481495      -0.00836067
C       -4.93247341       9.98933607       3.79652030       0.00176242      -0.00729668      -0.00334063
C        2.47576251       1.47184628       3.70844399      -0.00272982       0.00211633      -0.00762382
S        1.14244437       3.51863822       2.32007016      -0.00954877       0.00088779       0.00858910
C       -0.07981999       5.75179516       3.59228198       0.00274785      -0.00627094      -0.00144649
C       -1.26247516       7.86285889       3.87920107       0.00092230       0.00761301      -0.00354647
C       -2.47716289      10.00031904       3.92336231      -0.00867091       0.00318561       0.01315650
C        4.95532000       1.42905554       3.95548597       0.00141000      -0.00094529      -0.00158084
N        3.86525229       3.53071749       4.07686732      -0.00896923      -0.00226150       0.00021480
C        1.18675547       7.80462650       3.85770585       0.00108701      -0.00041493       0.00482453
C        0.00098775       9.97075543       3.94845746       0.00014704       0.00658654      -0.00233715
C        7.43298938       1.40226705       3.97477449       0.00540881      -0.00405858      -0.00330571
C        6.23675875       3.52094685       3.93426762       0.00936860      -0.00073689      -0.00056418
C        5.02860337       5.61416343       3.53737896      -0.00355977       0.00835332      -0.00340819
C        3.68256089       7.85973517       3.50347233      -0.00243514      -0.00947835       0.00080549
C        2.47182178       9.94320818       3.87140067      -0.00232727       0.00600935       0.00026444
C        9.89639643       1.42015589       3.79444807       0.00143654       0.00473013      -0.00512982
C        8.66606310       3.55117856       3.90496172       0.00262451      -0.00828559      -0.00307795
C        7.41904109       5.68907511       3.86718795      -0.00141875       0.00385186      -0.00115604
C        6.16829781       7.83076262       3.69364122       0.00391913       0.00322198       0.01199888
C        4.93677769       9.96527522       3.74565815      -0.00545979      -0.00103561      -0.00061964
Au       2.44536491       4.99962902       4.40722414      -0.00358596       0.00448925      -0.00807311
