51
Lattice="12.336457 0.0 0.0 -6.168228499999997 10.683685154694365 0.0 0.0 0.0 15.0" Properties=species:S:1:pos:R:3:forces:R:3 energy=-447.18389610932104 free_energy=-447.18389610932104 stress="0.0038890739289542966 -3.13665010565881e-07 1.4176566228058176e-06 -3.13665010565881e-07 0.005430155784316794 2.461810800037601e-06 1.4176566228058176e-06 2.461810800037601e-06 -2.430018935464264e-06" pbc="T T T"
C       -0.00537744      -0.01147438       3.66222896       0.00431385       0.00288377      -0.00908484
C       -1.23036184       2.13307997       3.71572830      -0.00126214      -0.00482095       0.00134270
C       -2.45739648       4.26032793       3.74075365      -0.00134699      -0.00657801      -0.01069353
C       -3.70167838       6.39252501       3.71341253      -0.00113871       0.00228962       0.00298347
C       -4.94263515       8.53023764       3.66631731      -0.00250855       0.00418541       0.00699480
C        2.46650067      -0.00857873       3.66513848      -0.00012897      -0.00887856       0.00071466
C        1.23777242       2.13956842       3.73819110       0.00079601      -0.00437201       0.00607636
C        0.04215845       4.29970994       3.80044974      -0.01353491       0.00523207      -0.00094457
C       -1.22463267       6.39702849       3.71435868      -0.00478213      -0.00399231       0.00234867
C       -2.46083942       8.53023494       3.66734433       0.00261896       0.00432754       0.00589573
C        4.93837127      -0.01151400       3.66238538      -0.00469057       0.00337955      -0.00911069
C        3.69519328       2.13961738       3.73780450      -0.00008548      -0.00538224       0.00646047
N        2.46656929       4.14971788       4.27065686      -0.00067300      -0.01096627       0.00407245
O        1.16860616       6.41503113       3.59975410       0.00600421      -0.00010121       0.00038021
C        0.01110446       8.51527555       3.64247957      -0.00271195       0.00223377      -0.00495856
C        7.40968264      -0.03169770       3.65339519       0.00382272       0.00480096       0.00429327
C        6.16333209       2.13310908       3.71462947       0.00145275      -0.00547174       0.00241276
C        4.89087642       4.29974450       3.80021208       0.01343134       0.00504529      -0.00061332
O        3.76410594       6.41508654       3.60359815      -0.00336947       0.00147837      -0.00428654
C        2.46650498       8.45215662       3.60547530      -0.00077124      -0.01098482      -0.00143136
C        9.85968433      -0.03168394       3.65369447      -0.00281528       0.00475187       0.00378389
C        8.63474440       2.11906137       3.70431586      -0.00084281       0.01778772       0.00249415
C        7.39037934       4.26028739       3.73985641       0.00218627      -0.00532900      -0.00968140
C        6.15765636       6.39700906       3.71312190       0.00453179      -0.00316712       0.00353045
C        4.92186780       8.51539690       3.64183411       0.00311502      -0.00001814      -0.00451451
C       -0.00061431       1.42121550       3.69353204       0.00423077      -0.00087342       0.00066684
C       -1.20279253       3.56945784       3.75261311      -0.00579057      -0.00781427      -0.00149183
C       -2.46423733       5.67881172       3.73098645      -0.00464120      -0.00791594      -0.00589184
C       -3.70172781       7.81866743       3.68071459      -0.00016268       0.00904202       0.01148698
C       -4.93826761       9.96103661       3.65886248      -0.00065946      -0.00002743       0.00083561
C        2.46648164       1.41833025       3.70680014       0.00036456      -0.00939341      -0.00330737
C        1.28058585       3.56125302       3.91215207      -0.00799331       0.00353618      -0.00032465
C       -0.00466022       5.71138424       3.71859973       0.00023005       0.00633066       0.00333118
C       -1.23152235       7.81875951       3.67333735      -0.00144411      -0.00255496      -0.00561170
C       -2.46518743       9.96102267       3.65943942       0.00028034       0.00016766      -0.00010860
C        4.93357150       1.42122660       3.69291051      -0.00368862      -0.00148768       0.00125927
C        3.65250045       3.56127932       3.91196352       0.00682973       0.00308837      -0.00033644
C        1.20518130       7.78962995       3.60860016      -0.00216696      -0.00165617       0.00031376
C        0.00681648       9.95217413       3.64803318      -0.00218875       0.00704054       0.00284235
C        7.40077389       1.40779721       3.68841035       0.00644560       0.00872879       0.00147175
C        6.13576197       3.56946314       3.75155733       0.00673126      -0.00767111      -0.00066056
C        4.93767483       5.71139417       3.71918742       0.00054263       0.00682249       0.00202745
C        3.72778714       7.78971796       3.60950479       0.00167995      -0.00125590      -0.00092765
C        2.46645710       9.90696061       3.63534297       0.00036201      -0.00667453       0.00006589
C        9.86867924       1.40776303       3.68912530      -0.00723944       0.00977706       0.00060429
C        8.63472879       3.54519026       3.73042988       0.00022783       0.00863106      -0.00088411
C        7.39732531       5.67877551       3.72999632       0.00268741      -0.00678019      -0.00523607
C        6.16448852       7.81878887       3.67191776       0.00217583      -0.00311600      -0.00399785
C        4.92614102       9.95230543       3.64775976       0.00244775       0.00450214       0.00322463
Au       2.46677432       5.26835534       6.15554255      -0.00099196       0.00257741       0.00378900
O        2.46642465       6.19154655       7.80746276       0.00012064      -0.00135694      -0.00160504
