52
Lattice="12.336457 0.0 0.0 -6.168228499999997 10.683685154694365 0.0 0.0 0.0 15.0" Properties=species:S:1:pos:R:3:forces:R:3 energy=-443.9103805138481 free_energy=-443.9103805138481 stress="-0.003066022909096417 0.003983163680703232 4.8059409657336375e-05 0.003983163680703232 0.0014499778666645588 1.8794226221143157e-05 4.8059409657336375e-05 1.8794226221143157e-05 1.7310512245145635e-05" pbc="T T T"
C        0.01718862       0.03341052       3.70574177       0.01275508      -0.00290447      -0.00412225
C       -1.20251825       2.17623417       3.71506645      -0.00564535       0.00022058       0.00125057
C       -2.47892039       4.31227083       3.67377168      -0.00967226       0.00520315       0.00034480
C       -3.73104175       6.44044964       3.63719875      -0.00077447       0.00177393      -0.00024347
C       -4.95049986       8.56925715       3.65506864       0.00799513      -0.00076170       0.00671139
C        2.48321875       0.02956660       3.68651015       0.00955928       0.01369541      -0.00223589
C        1.29863859       2.14325157       3.73668802       0.00156966      -0.00970796       0.00559498
C       -0.06269218       4.39661649       3.74289122       0.00137941       0.00566966       0.00275017
C       -1.29340005       6.48317895       3.67757077      -0.01071570       0.00239287       0.00792292
C       -2.48314601       8.59047786       3.65137633       0.00011487      -0.01270704       0.00488468
C        4.95788275       0.01969959       3.66716900      -0.01053416      -0.00942470       0.00277948
C        3.75755021       2.19123249       3.69207291       0.00614760       0.00227988       0.00045464
N        1.14478269       6.45100986       3.83981673       0.00788914      -0.00176250       0.00305404
C        0.00168160       8.56257959       3.68575296       0.01557967       0.00442867       0.00203513
C        7.43674934      -0.00413680       3.68745591       0.00882009      -0.01304371       0.00724245
C        6.20537347       2.15481081       3.65495588       0.00347361       0.00101011      -0.01247082
C        4.91125095       4.28326440       3.63827011      -0.00594157      -0.00787944       0.01648276
O        3.76726489       6.44027127       3.62750375      -0.01037382       0.00296219      -0.00667865
C        2.49639024       8.49653940       3.71233283      -0.00251916       0.00065803      -0.00563919
C        9.88745613       0.00484021       3.70820257      -0.00650057      -0.00491955      -0.00871194
C        8.66444264       2.15506654       3.67916457      -0.00665839      -0.00436971      -0.00258052
C        7.39730675       4.29395268       3.63123311       0.00753681       0.00972949       0.00589973
C        6.14429484       6.42061628       3.63096475       0.00311655      -0.00369640      -0.00105582
C        4.93366171       8.55237143       3.67769698      -0.00957961       0.01154840       0.00739052
C        0.03896272       1.47926811       3.72429275       0.00058370      -0.00368306      -0.00258936
C       -1.21995935       3.61297995       3.70760830      -0.00408015       0.00599845      -0.00248639
C       -2.49751389       5.73502155       3.65964173      -0.01360090       0.00276092      -0.01229462
C       -3.71700331       7.86662793       3.64256812       0.00239092      -0.00717839       0.00389983
C       -4.92932128      10.00319540       3.68324647       0.01664125       0.00487940       0.00370640
C        2.50888946       1.45180488       3.71356268       0.01240205       0.01097813      -0.00423301
S        1.55803834       3.86730611       3.73065689       0.00722055       0.00197760      -0.00410465
C       -0.04468673       5.81726419       3.74731264      -0.00226289       0.00887290      -0.00009937
C       -1.25622179       7.88991107       3.66403569       0.00845218      -0.00051418       0.01288519
C       -2.45510935      10.00609528       3.66673875      -0.00982287      -0.01048057      -0.00776437
C        4.97730483       1.44486923       3.66600985      -0.00046518      -0.00240972      -0.00805651
N        3.77961992       3.54068172       3.74476902      -0.01174970      -0.00235009       0.00576674
C        1.22008605       7.78669723       3.74030452       0.00913235      -0.00093981       0.00451494
C        0.02503140       9.98085962       3.67652536       0.00416227       0.00396300      -0.00387337
C        7.43808464       1.43132004       3.67272281       0.00020323      -0.01139763      -0.00330463
C        6.17547343       3.58127629       3.62955198       0.00509499       0.00540879       0.00116698
C        4.93834271       5.72371905       3.63078504      -0.00305448      -0.00668275       0.00662607
C        3.73379303       7.82433737       3.67631692      -0.00741628       0.00485756       0.00040644
C        2.49550404       9.93782266       3.70526704       0.00251589      -0.00871367      -0.01226863
C        9.90457873       1.44938259       3.70384811      -0.00775068      -0.00903841      -0.00828372
C        8.64361936       3.58283687       3.65879164      -0.00401975       0.00192720       0.00009277
C        7.38311111       5.71233329       3.62682995       0.01262824       0.00797978       0.01075751
C        6.16046356       7.84983811       3.65130908      -0.00530368       0.00571116      -0.00007537
C        4.94571556       9.99143218       3.70151336       0.00276655       0.01127150      -0.00075293
Au       2.20799158       4.37734893       5.98358653      -0.00407405       0.00041152      -0.00340264
O        2.84295929       4.87726523       7.82589866      -0.00439341       0.01076377      -0.00865244
O        1.85338039       4.37653579       8.72278957      -0.00916322      -0.00153516      -0.00482102
H        2.41496433       3.89022780       9.35865177      -0.00405877      -0.01323341       0.00618044
