50
Lattice="12.336457 0.0 0.0 -6.168228499999997 10.683685154694365 0.0 0.0 0.0 15.0" Properties=species:S:1:pos:R:3:forces:R:3 energy=-432.4270860108465 free_energy=-432.4270860108465 stress="-0.0006934815033610104 0.002418495075098131 2.819957910116414e-05 0.002418495075098131 0.004148595823033226 2.4381618274266984e-05 2.819957910116414e-05 2.4381618274266984e-05 -3.1569894066512565e-05" pbc="T T T"
C        0.00758506       0.01171702       3.72396941       0.00395975       0.00163034      -0.00239856
C       -1.21549282       2.16358197       3.83127250       0.00299039       0.00007399       0.00242254
C       -2.46405650       4.29578354       3.68445791       0.00560536       0.00406150       0.00113158
C       -3.70482868       6.43033144       3.57028189      -0.00357988       0.00025814      -0.00065095
C       -4.93108182       8.56867736       3.58986231       0.00006084       0.00082965      -0.00447946
C        2.48747563       0.04021985       3.62157459       0.00703498      -0.00279923      -0.00342700
C        1.27119831       2.12598561       3.97435182      -0.00219088       0.00596243       0.00990013
C       -0.03300954       4.39107359       3.96369697       0.00043467      -0.00734082       0.00859825
C       -1.25405727       6.45638400       3.63581169      -0.00141269       0.00673171      -0.00224448
C       -2.46470708       8.57366177       3.55699563      -0.01228411      -0.00417738      -0.00101070
C        4.94580789       0.01929254       3.58557416       0.00919166       0.00379765      -0.00558951
C        3.75798840       2.16679660       3.64631878      -0.00778623      -0.00817843       0.00346794
O        1.14950254       6.46789625       3.88913871      -0.01559158       0.00108534      -0.00102662
C        0.00511331       8.55519413       3.61395189       0.00139557       0.00398574      -0.00029612
C        7.42354630      -0.01201820       3.63759527      -0.00551078      -0.00186424       0.00271621
C        6.19328389       2.14618465       3.58964436       0.01159900      -0.00501119      -0.00062540
C        4.96665515       4.27031565       3.55147983       0.00010880      -0.00765078       0.00176793
N        3.75709485       6.40767080       3.56309821      -0.00665769      -0.00609022      -0.00254827
C        2.45498182       8.48245213       3.67293963       0.00479675       0.01085048      -0.00221770
C        9.87422705      -0.01085009       3.70841663      -0.00781164       0.00380250      -0.00487961
C        8.65531742       2.14338429       3.67101044       0.00029198      -0.00533023      -0.00431198
C        7.40913154       4.28882636       3.58542291       0.00509606       0.00565982      -0.00193656
C        6.16833798       6.41263674       3.56499417       0.00343821       0.00646677       0.00060455
C        4.93589626       8.53584688       3.63975668       0.00665199      -0.00071331       0.00006771
C        0.01844679       1.44392157       3.85450597       0.00326284       0.00537452       0.00616410
C       -1.22344931       3.60081650       3.82603297       0.00473048      -0.00309701       0.00623974
C       -2.47956040       5.71783906       3.62000307       0.00141772       0.00676870      -0.00363380
C       -3.70152071       7.85715279       3.56050579      -0.01167508      -0.00573672       0.00367145
C       -4.92392153       9.99848983       3.64220266       0.00583405      -0.00065613      -0.00512655
C        2.51545893       1.47023154       3.72707604      -0.00887605      -0.00328183       0.00619971
P        1.39496017       3.71902238       4.65423499       0.00314019       0.00369389       0.01046405
C       -0.04836971       5.79764296       3.82602811      -0.01003144      -0.00713185       0.00847416
C       -1.24277575       7.86806201       3.58472759      -0.00490868       0.00761378      -0.00338038
C       -2.45931499      10.00476862       3.57171231       0.00853346      -0.00244159      -0.00199604
C        4.95446467       1.45319505       3.59494388       0.00397656       0.00411950      -0.00623947
O        3.79001140       3.55459485       3.55019812      -0.00664698      -0.00923906       0.00207072
C        1.20264774       7.83502737       3.70295076       0.00326642       0.00282632      -0.00343228
C        0.01660109       9.98237931       3.60095023       0.00201080       0.00042758       0.00056894
C        7.41900348       1.43033259       3.62773806       0.00419247      -0.01114347      -0.00194594
C        6.17210880       3.57620561       3.56987039       0.00758221      -0.00300071       0.00022169
C        4.90983339       5.70988515       3.55416552       0.00186280      -0.00018016      -0.00153893
C        3.71604830       7.74943766       3.62977324       0.00356262       0.00043370      -0.00250414
C        2.47585177       9.92430875       3.67237470      -0.00826779       0.00951320      -0.00316798
C        9.88791246       1.42993801       3.73744398      -0.00080363       0.00064568      -0.00367881
C        8.64461520       3.57351819       3.64198037       0.00414962       0.00028544       0.00074204
C        7.39537598       5.70769663       3.56747010       0.00032351       0.00559770      -0.00175484
C        6.17091706       7.83968794       3.59561603       0.00836703       0.00383485      -0.00209751
C        4.93845105       9.96578609       3.69479244      -0.00315857       0.00125138      -0.00034461
Au       1.78168619       3.94831150       6.96626611      -0.00394732      -0.00644798      -0.01318489
O        2.13710197       4.16426471       8.87661766      -0.00772779      -0.00606995       0.01617561
