50
Lattice="12.336457 0.0 0.0 -6.168228499999997 10.683685154694365 0.0 0.0 0.0 15.0" Properties=species:S:1:pos:R:3:forces:R:3 energy=-438.4812447045472 free_energy=-438.4812447045472 stress="-0.00019352190028412784 0.0009517208437721833 2.7266274758251134e-05 0.0009517208437721833 0.009493312684605482 1.6567445248937765e-05 2.7266274758251134e-05 1.6567445248937765e-05 2.720204089363517e-05" pbc="T T T"
C       -0.01518798      -0.00023871       3.75082018      -0.00032839       0.00207520      -0.00033358
C       -1.26007719       2.10949392       3.77453356      -0.00117312      -0.00069274      -0.00152770
C       -2.50011925       4.24910871       3.66498083      -0.00236850       0.00157080      -0.00214049
C       -3.73210010       6.39783092       3.58790577       0.00309865      -0.00449052      -0.00026400
C       -4.95659958       8.54868607       3.63849157      -0.00186802      -0.00191996      -0.00091084
C        2.44828934       0.05270282       3.73009177      -0.00192767       0.00342565       0.00054912
C        1.20124025       2.20893944       3.93498331       0.00859495       0.01170287       0.00313556
C       -0.04745503       4.24124517       3.95511838       0.03384616      -0.00836369       0.00384310
C       -1.28419653       6.39456245       3.73804986       0.00052717       0.00419713      -0.00000345
C       -2.50117739       8.54716769       3.68254932       0.00446411      -0.00111778      -0.00188590
C        4.90965087      -0.01744838       3.69850504       0.00194345       0.00183821      -0.00042645
C        3.71789931       2.13635408       3.62405834      -0.00444830       0.00927663       0.00180243
N        1.06725542       6.39813473       4.16881657      -0.02539225      -0.00110489      -0.01036417
C       -0.02967409       8.50367838       3.79895838       0.00346316      -0.00576283      -0.00095482
C        7.38755407      -0.06119417       3.73756982       0.00108001      -0.00474082       0.00062410
C        6.15682583       2.10189688       3.59476754      -0.00153854       0.00109318      -0.00029545
C        4.94027635       4.23114059       3.45331856      -0.00463654       0.00149630       0.00150950
N        3.75063913       6.36272998       3.66440480       0.01872982       0.00114844      -0.00813055
C        2.44367469       8.43687481       3.84079411      -0.00065780       0.00469439       0.00315795
C        9.84345835      -0.05871272       3.75204978      -0.00085718      -0.00735273      -0.00038568
C        8.61485219       2.09496145       3.66428829       0.00115533       0.00366772       0.00049374
C        7.38131595       4.24944857       3.53799363      -0.00148772       0.00059983       0.00005869
C        6.14729784       6.38329416       3.49950673      -0.00102900       0.00204231       0.00385111
C        4.91488147       8.50507647       3.67440893      -0.00314271      -0.00323992       0.00248625
C       -0.01129729       1.43438428       3.81772953       0.00106683       0.00521003       0.00170734
C       -1.26898953       3.53625155       3.77290667       0.00391455      -0.00145044      -0.00007303
C       -2.50838435       5.67608639       3.64815514       0.00012591      -0.00070198      -0.00187355
C       -3.73006944       7.82975346       3.62731523       0.00166270      -0.00449416      -0.00030485
C       -4.94798339       9.98827918       3.71342651       0.00146437       0.00477558      -0.00016121
C        2.46428904       1.50156949       3.77786349      -0.00024949      -0.00226017       0.00367400
N        1.10764504       3.56011883       4.19960645      -0.03825304       0.00097787      -0.00757178
C       -0.06509514       5.69748238       3.93430580       0.02109568       0.00398039       0.00073063
C       -1.27311237       7.82133685       3.73317776       0.00054203      -0.00042225      -0.00319057
C       -2.49979560       9.98572050       3.70224808      -0.00137700       0.00560087      -0.00066392
C        4.91673218       1.41347332       3.63866626      -0.00161586       0.00152688       0.00170257
O        3.76559260       3.50662256       3.42683373       0.00598208      -0.00957872       0.00604612
C        1.18298024       7.74222267       3.94276314       0.00432675      -0.00603164       0.00021494
C       -0.02055926       9.93078635       3.74148917      -0.00001023      -0.00444597      -0.00047792
C        7.38025689       1.37860345       3.66093724      -0.00379767       0.00304240       0.00042396
C        6.14370099       3.53240319       3.51644622       0.00193164      -0.00169523       0.00222439
C        4.90199575       5.66525190       3.48230622      -0.01279547       0.00563966       0.00748499
C        3.69581328       7.71621064       3.72133269      -0.00189349       0.00124119       0.00315987
C        2.44659444       9.87277080       3.77940726      -0.00058872       0.00041443       0.00083602
C        9.84507377       1.37735386       3.72904932       0.00379798      -0.00037371      -0.00087785
C        8.60845942       3.52794335       3.61250423       0.00214784       0.00473074      -0.00049880
C        7.37475549       5.67438458       3.52457774       0.00063618      -0.00089990       0.00076742
C        6.15133668       7.81534922       3.59416316      -0.00265615       0.00074150      -0.00054475
C        4.91468893       9.93435952       3.73261380       0.00202274      -0.00237319      -0.00065653
Au       2.45911988       4.97765695       5.25496681       0.00866475      -0.00000831       0.02942863
O        3.70166741       6.08301579       6.21263744      -0.02219203      -0.01318865      -0.03539461
