50
Lattice="12.336457 0.0 0.0 -6.168228499999997 10.683685154694365 0.0 0.0 0.0 15.0" Properties=species:S:1:pos:R:3:forces:R:3 energy=-433.1359442331737 free_energy=-433.1359442331737 stress="0.0063754288378724735 0.00287894159214429 2.0627188662742764e-05 0.00287894159214429 0.0036368814999320417 2.1164019735418004e-05 2.0627188662742764e-05 2.1164019735418004e-05 2.1580402623088447e-05" pbc="T T T"
C        0.00716625      -0.01015901       3.70986109      -0.00739115       0.00087890       0.00378395
C       -1.20700230       2.14549288       3.67013344       0.00596972       0.00389832       0.00574670
C       -2.43347916       4.27570993       3.65914802      -0.00751816       0.00200112      -0.00336812
C       -3.69924016       6.39279273       3.67770914       0.00863819       0.00245216      -0.00477361
C       -4.95399309       8.52041310       3.71911444      -0.00246158       0.00109332       0.00643073
C        2.46347009       0.02364494       3.67278710      -0.00827831       0.01075665       0.00188796
C        1.22186223       2.14779551       3.69684108      -0.00402601      -0.00409980      -0.00185821
C        0.03523594       4.26040796       3.73734722       0.00773842      -0.00192497      -0.01199597
C       -1.18135095       6.38628106       3.70468977       0.00880272       0.00423977      -0.01161741
C       -2.47434424       8.52909004       3.66749804      -0.00294568      -0.00725305       0.00333766
C        4.92552726      -0.01391527       3.60867566       0.00622929      -0.01084670      -0.00685427
C        3.73580200       2.12543780       3.63327467       0.00331325       0.01511053       0.00087840
N        1.29187255       6.43316097       3.80791437      -0.01886027       0.00375257      -0.00134900
C       -0.00896029       8.52609752       3.65879799       0.00345270      -0.00217884       0.00159203
C        7.39923579      -0.00524087       3.59906501       0.00338846       0.00288142       0.00770263
C        6.18054776       2.11578495       3.55214206       0.00215900       0.00228100       0.00307153
C        4.96187052       4.18866480       3.64003387       0.00728504      -0.00918647      -0.00021974
P        3.26318107       6.18018548       4.24425482      -0.01693017      -0.00501623       0.00450924
C        2.44254546       8.56699412       3.76623373      -0.00393363       0.00097354      -0.01092465
C        9.87918114       0.00213464       3.67249862       0.00223805      -0.00398174       0.00821317
C        8.65420780       2.13554334       3.59347191       0.00235201      -0.01229850       0.00295883
C        7.41849664       4.26053188       3.59768726      -0.00109068       0.00851576       0.00535263
C        6.11819648       6.35732582       3.72371983      -0.00085201      -0.00469876       0.00617358
C        4.90952126       8.51953371       3.81304317       0.00423501       0.00414170      -0.00468667
C        0.02573109       1.43395971       3.69204041      -0.00349445      -0.00358130       0.00063779
C       -1.18600628       3.57163093       3.68604456       0.00202829       0.00760650       0.00458400
C       -2.43357121       5.69101861       3.68118170       0.00960647       0.00459828      -0.01253511
C       -3.71143970       7.81619302       3.68988000      -0.00246190      -0.00304490       0.00258022
C       -4.93365218       9.96359668       3.70560142      -0.00830197       0.00466545       0.01005168
C        2.47158321       1.47436159       3.66802246       0.00188128       0.01665327       0.00028734
O        1.19793752       3.53157489       3.73458186       0.00310083      -0.00754563      -0.01126141
C        0.09739679       5.69212691       3.75664057      -0.00197690      -0.00083465      -0.00991273
C       -1.23235365       7.81197209       3.67244465       0.00403305       0.00111404       0.00470555
C       -2.47922531       9.96814824       3.65019725      -0.00654911      -0.00363696      -0.00380899
C        4.93140797       1.41596283       3.58427966      -0.00025801       0.00094818      -0.00098284
O        3.77126747       3.49797544       3.67781287      -0.00505600       0.01635024       0.00544256
C        1.21753380       7.80761592       3.73751773      -0.00554105      -0.00075669      -0.00997612
C       -0.00452176       9.95649114       3.61250080       0.01163498      -0.00666336       0.00228171
C        7.40901069       1.41785565       3.56677975      -0.00097135      -0.00111471       0.00620961
C        6.18691153       3.52603396       3.55925622       0.00730506       0.00035821      -0.00049407
C        4.89192905       5.58806223       3.74310349       0.00343209      -0.01444476       0.00007061
C        3.64043742       7.85420231       3.90356936      -0.00246298       0.00119373      -0.00247306
C        2.46387835       9.98291273       3.66070293      -0.00035064       0.00343582       0.00448491
C        9.89639251       1.43205644       3.63671565       0.00967779      -0.00654012       0.01127342
C        8.66260770       3.55922765       3.60739276      -0.00975683      -0.00719600       0.00177085
C        7.39143007       5.67703973       3.65928208       0.00438462       0.00974954       0.00558934
C        6.14031201       7.79713161       3.76728481       0.00078079      -0.00038991       0.00008980
C        4.93446829       9.95856105       3.73335248       0.00079526      -0.00083389       0.00005377
Au       2.93273051       5.89922003       6.54307528       0.00604267      -0.00806375      -0.01170494
O        2.67772502       5.65002617       8.45573884      -0.00903621      -0.00351835      -0.00095525
