52
Lattice="12.336457 0.0 0.0 -6.168228499999997 10.683685154694365 0.0 0.0 0.0 15.0" Properties=species:S:1:pos:R:3:forces:R:3 energy=-440.7493679461669 free_energy=-440.7493679461669 stress="-0.0012633411985949645 -0.0011793106178602168 -3.528295187480988e-05 -0.0011793106178602168 -0.0024972074049069725 4.66490918675906e-06 -3.528295187480988e-05 4.66490918675906e-06 6.482397464179756e-06" pbc="T T T"
C       -0.01237030      -0.01826261       3.86838953       0.00575124       0.00244231       0.00354118
C       -1.23962974       2.13761664       3.93368567      -0.00765974      -0.00462859      -0.00297095
C       -2.47177427       4.27345235       3.75287459      -0.00748382      -0.00015005      -0.00064379
C       -3.70059760       6.40671150       3.66040663      -0.00123577       0.00503139      -0.00438232
C       -4.94258057       8.53598553       3.72854167       0.00428627      -0.00667883       0.00222273
C        2.46558564      -0.04948931       3.76508691      -0.00187962       0.00318821      -0.00219984
C        1.25487020       2.05347161       4.08550843      -0.00017200       0.00275628       0.00540453
C       -0.03702538       4.34474196       4.03718547       0.00690862      -0.00199800      -0.00556001
C       -1.25540015       6.43028081       3.71025575      -0.00112360       0.00308675       0.00670965
C       -2.47059109       8.53764768       3.65033613       0.00265496       0.00175288      -0.00550205
C        4.93285005      -0.01057953       3.59908649      -0.00018873       0.00370358       0.00028280
C        3.65771364       2.07376161       3.55385265       0.00253662       0.00568360      -0.00165116
N        1.16766065       6.43552841       3.98260053       0.00864011      -0.00446127      -0.00888312
C        0.00339645       8.53246729       3.66404288       0.00204205       0.00109851       0.00069670
C        7.40242132      -0.01304599       3.64097957       0.00347327      -0.00010503       0.00537100
C        6.14723120       2.15158513       3.52490321       0.00487345      -0.00179829       0.00355689
C        4.95843778       4.37464657       3.42297153      -0.00653911      -0.00009358       0.00371214
O        3.77222633       6.45686356       3.48945683      -0.00147837      -0.01057557      -0.00593001
C        2.48281473       8.49088126       3.70879558      -0.00130900       0.00046571      -0.00249753
C        9.85584025      -0.01421136       3.77374939       0.00282743       0.00004609      -0.00595169
C        8.62702564       2.13486148       3.69625305      -0.00292225      -0.00567915       0.00205757
C        7.39452438       4.27828664       3.60352302      -0.00952038       0.00408173      -0.00124822
C        6.18554605       6.43217194       3.63410773      -0.00062134       0.00558170      -0.00761449
C        4.92653441       8.53685490       3.73145246      -0.00574478       0.00008829       0.00439063
C       -0.00827047       1.40937491       3.99572012      -0.00115701       0.00228141       0.00192175
C       -1.22651770       3.57606408       3.91063993      -0.00291342      -0.00132871       0.01081230
C       -2.46877590       5.69620627       3.69533784      -0.00411730       0.00426773      -0.00229146
C       -3.70304214       7.82700934       3.67510690       0.00609448      -0.00086688      -0.00160163
C       -4.94672043       9.95131640       3.79947347       0.00360525      -0.00688649       0.00197764
C        2.46578713       1.36112598       3.83132958       0.00018072       0.00551071       0.00188490
P        1.46416625       3.69064000       4.64821118       0.00616899      -0.00899913       0.00442626
C       -0.00357394       5.77229325       3.89771734       0.00357527       0.00077817      -0.00209881
C       -1.23921336       7.83566119       3.65217219       0.00180801       0.00314834       0.00310455
C       -2.46325877       9.95406059       3.65983820      -0.00216465       0.00238734      -0.01530548
C        4.91703165       1.42896888       3.53280684       0.00321157       0.00574140       0.00519408
S        3.38432573       3.73147393       3.10919079      -0.00207308      -0.00248377       0.00196212
C        1.22285856       7.77004141       3.77091713       0.00163232      -0.00152742       0.00001131
C        0.00409553       9.95773462       3.61808674       0.00102935       0.00224547       0.00206606
C        7.38513368       1.42740201       3.61220148       0.00372406      -0.00559772       0.00487051
C        6.14085933       3.58741115       3.51248917      -0.00632350      -0.00117417       0.00151765
C        4.97816370       5.77375037       3.51609638       0.00211206      -0.00247677       0.00124979
C        3.72700772       7.82761102       3.65971585      -0.00499449      -0.00829820      -0.00241187
C        2.46627941       9.92912695       3.70342859       0.00365638       0.00231559       0.00418338
C        9.86334650       1.42462205       3.80450467      -0.00528904      -0.00405322      -0.00280613
C        8.63354706       3.56035825       3.68044936      -0.00969012      -0.00273451       0.00778038
C        7.40801652       5.69339273       3.63365620      -0.00353436       0.00705104       0.00021469
C        6.16941374       7.84231839       3.70981594      -0.00243593       0.00281443      -0.00759433
C        4.91803053       9.96378827       3.80143776       0.00344491       0.00456908       0.00342089
Au       2.23030098       4.21980712       6.71450262      -0.00312953       0.00095659      -0.00419219
O        3.01008792       4.77872439       8.51173802       0.00444913      -0.00404301      -0.00248452
O        2.11593471       4.26983658       9.50345425      -0.00116608       0.01304843      -0.00267881
H        2.75200096       3.78769648      10.06593917       0.00818053      -0.00948442       0.00395636
