51
Lattice="12.336457 0.0 0.0 -6.168228499999997 10.683685154694365 0.0 0.0 0.0 15.0" Properties=species:S:1:pos:R:3:initial_magmoms:R:1:forces:R:3 energy=-438.0178337736853 free_energy=-438.0178337736853 stress="-0.006457819315327404 0.004902293949851266 -3.3590279474328874e-05 0.004902293949851266 -0.003751438785293028 -6.644931097325744e-06 -3.3590279474328874e-05 -6.644931097325744e-06 0.00024180777437889765" pbc="T T T"
C       -0.04026578       0.03482846       3.69078983       0.00000000       0.04328707       0.01677205      -0.05823022
C       -1.24560638       2.18829460       3.61819931       0.00000000      -0.00233579       0.03005655      -0.04030077
C       -2.50889777       4.32623520       3.73393231       0.00000000      -0.00810345      -0.00684492       0.04874932
C       -3.76598176       6.45370059       3.77630710       0.00000000      -0.00601999      -0.03415759       0.02761752
C       -5.00101374       8.57934339       3.75606456       0.00000000       0.02683374       0.00136051      -0.02445336
C        2.42741237       0.04827441       3.78376067       0.00000000      -0.00548904       0.01142108      -0.00855233
C        1.23002387       2.11893315       3.39889195       0.00000000      -0.02861055       0.03022566       0.01920530
C       -0.11208521       4.40026192       3.43369107       0.00000000       0.00452400       0.04039516       0.03190762
C       -1.31751106       6.48289584       3.78845939       0.00000000      -0.02611511       0.02986901      -0.01257547
C       -2.53433930       8.59769356       3.89545025       0.00000000      -0.00981277       0.01905428      -0.07355877
C        4.89573561       0.04014838       3.91913422       0.00000000      -0.02566241       0.02210563      -0.00866582
C        3.71508911       2.19519765       3.64276474       0.00000000      -0.02981940      -0.05307890       0.01411108
N        1.08160354       6.49709679       3.93354961       0.00000000      -0.00768023      -0.03276074      -0.04630850
C       -0.06418195       8.59677803       3.89649139       0.00000000      -0.01396330       0.00633134       0.03348465
C        7.37466035       0.03299125       3.92987628       0.00000000      -0.00319438      -0.00935886      -0.05182236
C        6.16567454       2.15212562       3.88158942       0.00000000       0.00276971       0.02947179      -0.04739026
C        4.94284490       4.22041205       3.54087336       0.00000000      -0.00001804      -0.02017199      -0.06653878
P        3.41320951       6.28503042       2.85865092       0.00000000       0.02400334      -0.05805217       0.07505655
C        2.40997672       8.58414289       3.74717906       0.00000000      -0.03498013      -0.01859250       0.01518335
C        9.83659222       0.04097348       3.74767047       0.00000000       0.04582719      -0.02417723       0.04149956
C        8.62474005       2.17504101       3.83727213       0.00000000       0.00298784      -0.01812760      -0.01490975
C        7.38157993       4.30161287       3.77652431       0.00000000       0.02176703       0.01492687      -0.01944350
C        6.11494798       6.42415110       3.59006895       0.00000000      -0.00501020      -0.00642073       0.06598395
C        4.87748794       8.57367614       3.61527724       0.00000000       0.00140868      -0.00447934      -0.02963929
C       -0.02111581       1.46853301       3.57292449       0.00000000      -0.00983728       0.03525964       0.01542500
C       -1.26666020       3.61992267       3.61072995       0.00000000       0.00104918       0.03598618      -0.04518845
C       -2.53139950       5.74713502       3.76173566       0.00000000      -0.01614945      -0.01903033       0.06619354
C       -3.76749592       7.87885115       3.81767646       0.00000000       0.01121087      -0.01504718       0.00149535
C       -4.98155457      10.01048859       3.74652285       0.00000000       0.01545243       0.00979153       0.05710405
C        2.45606379       1.46383615       3.62407422       0.00000000      -0.04706667      -0.01269300      -0.02579936
S        1.30962340       3.72090234       2.77093699       0.00000000      -0.02157289       0.01005525      -0.04515156
C       -0.08943576       5.79853054       3.70441757       0.00000000      -0.03118110       0.02663835      -0.02187314
C       -1.30503889       7.89798386       3.88403923       0.00000000      -0.02447030       0.01659397       0.02438087
C       -2.51533210      10.01847632       3.88838653       0.00000000      -0.01751417       0.01890574       0.02568899
C        4.92140989       1.45670463       3.84778312       0.00000000       0.00031308       0.01256652      -0.00391866
N        3.78525504       3.52635937       3.48045143       0.00000000       0.06590523      -0.03956478      -0.00917841
C        1.15371625       7.86926339       3.85148654       0.00000000      -0.02896393      -0.03400001      -0.02843504
C       -0.03770840      10.01492802       3.94026026       0.00000000      -0.01330711       0.02148108       0.00342712
C        7.39507084       1.45277649       3.92445314       0.00000000      -0.01787860       0.00057661      -0.05835356
C        6.17739218       3.55708918       3.75171580       0.00000000       0.01588380       0.02909717       0.06657316
C        4.94264841       5.65561876       3.41838765       0.00000000       0.01891935      -0.02902558      -0.03082848
C        3.62453722       7.89595811       3.50469474       0.00000000      -0.02025944      -0.00064687       0.05440202
C        2.42931964      10.00741779       3.82380944       0.00000000       0.02099060      -0.01164438       0.07051153
C        9.86020909       1.47226130       3.74166556       0.00000000       0.01803253      -0.01983100       0.05717090
C        8.61530547       3.59808138       3.80143650       0.00000000      -0.00608438      -0.01435908       0.01899689
C        7.35778133       5.72531841       3.71832667       0.00000000       0.00382019      -0.00503493       0.02628070
C        6.10620774       7.85910543       3.64568598       0.00000000       0.00938793      -0.00706965      -0.08488780
C        4.88902717      10.00680848       3.69463901       0.00000000       0.06185582      -0.00986257       0.00264402
Au       2.42354632       5.39752233       5.21487276       0.00000000       0.00970180       0.06310410       0.30898296
O        3.27158672       3.19054489       6.31000167       1.00000000       0.07563712       0.16377191      -0.02395049
O        3.62203210       4.41328572       6.57668788       1.00000000      -0.04046844      -0.19178604      -0.29212189
