51
Lattice="12.336457 0.0 0.0 -6.168228499999997 10.683685154694365 0.0 0.0 0.0 15.0" Properties=species:S:1:pos:R:3:initial_magmoms:R:1:forces:R:3 energy=-439.583316708431 free_energy=-439.583316708431 stress="-0.0023552973910549446 0.003913446526791884 1.623181900982417e-05 0.003913446526791884 0.001784810055467732 -5.764065776213524e-05 1.623181900982417e-05 -5.764065776213524e-05 -8.13651278565197e-05" pbc="T T T"
C        0.00330296       0.03354119       3.61392179       0.00000000       0.00179942       0.01021494       0.02323947
C       -1.21715837       2.17726207       3.68777730       0.00000000      -0.00074967       0.00148844       0.00709107
C       -2.49409246       4.31276582       3.68500335       0.00000000      -0.01321102       0.00632961       0.00958803
C       -3.74558697       6.44057939       3.61265884       0.00000000      -0.01713007      -0.00161597      -0.00777652
C       -4.96524860       8.56801165       3.56627523       0.00000000      -0.00182288       0.00835634       0.01742936
C        2.46890656       0.02870933       3.54999729       0.00000000      -0.00410879       0.00493748       0.01262247
C        1.28503109       2.14545274       3.63928775       0.00000000      -0.00324374      -0.03450725       0.00169759
C       -0.07525164       4.39660739       3.78215722       0.00000000       0.01591655      -0.00595114      -0.02964769
C       -1.30839436       6.48316255       3.70954360       0.00000000      -0.00245418       0.00741444       0.00471656
C       -2.49661218       8.58908517       3.58586835       0.00000000       0.00118805      -0.00590153      -0.00238011
C        4.94428654       0.01851442       3.55806802       0.00000000      -0.00847202      -0.01070962       0.02546109
C        3.74122913       2.18888501       3.56353761       0.00000000       0.00251677       0.01195187       0.00715337
N        1.13066438       6.45334801       3.87837892       0.00000000      -0.00641844       0.01973890      -0.01485845
C       -0.01188730       8.56217965       3.66131603       0.00000000       0.00460282       0.00370479       0.00903027
C        7.42203515      -0.00326608       3.63837608       0.00000000       0.00134980      -0.00831207      -0.00599404
C        6.18945565       2.15608972       3.57684177       0.00000000       0.00377949      -0.00232469       0.00873126
C        4.89063495       4.28236669       3.57368945       0.00000000       0.01515166       0.01034275      -0.00416727
O        3.74640669       6.43987608       3.58980725       0.00000000       0.01674673       0.00498735      -0.01278374
C        2.48148882       8.49753636       3.69206451       0.00000000      -0.00653822      -0.00253265       0.00798526
C        9.87259805       0.00643421       3.66934265       0.00000000       0.00016187      -0.00572544      -0.01838145
C        8.64790982       2.15683064       3.64877527       0.00000000       0.00838515      -0.01030301       0.01988739
C        7.38057321       4.29608211       3.60338589       0.00000000       0.00018830      -0.01052248      -0.00148517
C        6.12593955       6.42055370       3.57740556       0.00000000       0.00766662      -0.00544434       0.00284161
C        4.91750805       8.55330655       3.61947572       0.00000000      -0.00269428       0.00301513      -0.00558276
C        0.02542964       1.48056344       3.65172053       0.00000000      -0.00381098      -0.00728076      -0.01373669
C       -1.23359102       3.61418544       3.72121313       0.00000000      -0.00275187      -0.00278349      -0.01713484
C       -2.51258643       5.73519625       3.67126791       0.00000000      -0.01602150       0.01307344      -0.00648701
C       -3.73107573       7.86577501       3.58063704       0.00000000      -0.00371471      -0.00117242       0.00929831
C       -4.94366839      10.00224885       3.56934710       0.00000000       0.00073448       0.01247971       0.00490583
C        2.49270325       1.45175962       3.57321486       0.00000000       0.00378950      -0.00320601       0.00769985
S        1.54862862       3.87091593       3.68736233       0.00000000      -0.02191032      -0.00040841       0.01764680
C       -0.05970633       5.81824171       3.80090654       0.00000000       0.01060719      -0.00129280      -0.00148910
C       -1.27018138       7.88914331       3.65009367       0.00000000       0.00671512       0.00567752      -0.00166762
C       -2.46869210      10.00461785       3.55203981       0.00000000      -0.01307598      -0.00346601       0.00248937
C        4.96240660       1.44424362       3.55028378       0.00000000      -0.00047356      -0.00538164      -0.01097863
N        3.75812134       3.53611025       3.64715613       0.00000000       0.01479470       0.01436696       0.01929328
C        1.20614999       7.78646947       3.74858803       0.00000000      -0.00713552       0.01375552      -0.02502034
C        0.01133330       9.98027168       3.60788088       0.00000000      -0.00069055      -0.00897024       0.02816321
C        7.42199678       1.43250789       3.62043101       0.00000000       0.00927839      -0.00737943      -0.01525197
C        6.15788642       3.58298117       3.57424896       0.00000000       0.00430274       0.00029100      -0.00889968
C        4.91844414       5.72331946       3.58074924       0.00000000       0.01107490       0.00585201      -0.00094534
C        3.71721915       7.82487984       3.63845837       0.00000000      -0.00414862       0.00100803       0.01632753
C        2.48080098       9.93919283       3.67394089       0.00000000      -0.00203047      -0.01023203      -0.02428687
C        9.88878533       1.45099656       3.67372721       0.00000000       0.00600963      -0.00488668      -0.01132450
C        8.62730646       3.58477724       3.64591757       0.00000000      -0.00138585      -0.00744815      -0.01381432
C        7.36701107       5.71434061       3.59372400       0.00000000      -0.00633445      -0.01566641       0.00318468
C        6.14400642       7.85002737       3.58162742       0.00000000      -0.00103816      -0.00322603       0.00416334
C        4.93104171       9.99276213       3.63997149       0.00000000       0.00297503       0.00779758      -0.00902128
Au       2.18411132       4.20679315       5.97547505       0.00000000       0.02348747      -0.01017227      -0.10005597
O        1.91252722       4.05028405       8.57329346       1.00000000       0.00998906       0.00743673       0.02949223
O        2.89141829       4.50772794       7.86767028       1.00000000      -0.03184561       0.02260243       0.06303216
