52
Lattice="12.336457 0.0 0.0 -6.168228499999997 10.683685154694365 0.0 0.0 0.0 15.0" Properties=species:S:1:pos:R:3:forces:R:3 energy=-443.38624136573276 free_energy=-443.38624136573276 stress="0.006596487521615861 0.00272458739686028 6.169895918261782e-06 0.00272458739686028 0.003742731656256452 -9.718477047919871e-06 6.169895918261782e-06 -9.718477047919871e-06 1.954785745974222e-05" pbc="T T T"
C        0.00785227      -0.01806642       3.75401398       0.00894192       0.00213198       0.00922204
C       -1.20596120       2.13722129       3.71234608      -0.00139243      -0.00016809      -0.00008097
C       -2.43311426       4.26736564       3.67578231       0.00335023       0.00406367       0.00113905
C       -3.69762386       6.38539246       3.68672842      -0.00409304      -0.00335091       0.00090205
C       -4.95254565       8.51315045       3.74744708       0.00133378      -0.00562705       0.00458791
C        2.46480976       0.01651129       3.70276011       0.00097614       0.00059336       0.00602266
C        1.22311507       2.13956695       3.72786889      -0.00521367      -0.00393012       0.00200650
C        0.03615628       4.25153298       3.75270242      -0.00363712      -0.00601802      -0.00217960
C       -1.17956378       6.37802645       3.70956664      -0.00469502       0.00299071       0.00624172
C       -2.47301630       8.52101511       3.68685663       0.00666620       0.00426828       0.00237531
C        4.92793297      -0.02222805       3.63805463      -0.00718822      -0.00122792       0.00345986
C        3.73724557       2.11927221       3.65987268      -0.00367731      -0.00320385      -0.01039300
N        1.29249979       6.42234587       3.83308952       0.00459163       0.00388752      -0.00401691
C       -0.00667986       8.51695378       3.68447173       0.00709560       0.00070074       0.00181314
C        7.40139153      -0.01350201       3.64524801      -0.00311984      -0.00973363      -0.00251866
C        6.18166292       2.10844579       3.57913928       0.00600703      -0.00464263       0.00707274
C        4.96184930       4.18219410       3.64664778      -0.00227867       0.00637819      -0.00123816
P        3.27403017       6.16904836       4.31091914       0.01285808       0.01001650      -0.00364039
C        2.44486766       8.55740268       3.81548746      -0.00489663       0.00615807       0.00172148
C        9.88043723      -0.00670842       3.73061248      -0.00133992       0.00333251      -0.00360894
C        8.65501377       2.12621443       3.63437388       0.00681324       0.00913148      -0.00086510
C        7.41938571       4.25340104       3.61178065      -0.00072663      -0.00578140       0.00314865
C        6.11853661       6.34960203       3.74184886       0.00326415      -0.00256878       0.00167403
C        4.91237587       8.51163117       3.86534793      -0.01328930      -0.00022341      -0.00670701
C        0.02670917       1.42569796       3.73285916      -0.00336447       0.00002045       0.00169627
C       -1.18548724       3.56343203       3.71163920      -0.00298542      -0.00324988      -0.00411886
C       -2.43192476       5.68302307       3.68614118      -0.00529113       0.00222293       0.00023641
C       -3.71027146       7.80863947       3.70778918       0.00460073       0.00012335      -0.00319301
C       -4.93258616       9.95638922       3.74093903       0.00687666      -0.00224841       0.00250985
C        2.47338677       1.46750856       3.69866823      -0.00511865      -0.00250803      -0.00873918
O        1.19861575       3.52287340       3.75679707      -0.00561902      -0.00846540      -0.01189116
C        0.09857376       5.68340433       3.76702715      -0.00129196      -0.00084453      -0.00252738
C       -1.23038746       7.80374125       3.68809574       0.00674516       0.00296728      -0.00705874
C       -2.47765179       9.96029200       3.67612915      -0.00328879       0.00197746      -0.00499121
C        4.93290356       1.40837031       3.61420163      -0.00081069      -0.00276814      -0.00651215
O        3.77117004       3.49182431       3.68662992       0.00429457      -0.00158718       0.01906223
C        1.21959641       7.79608021       3.76842628       0.00710317       0.00444260       0.00096919
C       -0.00173595       9.94755372       3.64707517      -0.00676673      -0.00389765      -0.00025962
C        7.40979051       1.40954960       3.60754909       0.00983992      -0.00466279      -0.00051306
C        6.18825479       3.51875482       3.57140146      -0.00366761      -0.00139212       0.00083293
C        4.89151776       5.58009285       3.75775158       0.00247687       0.00779521       0.00668153
C        3.64297682       7.84701775       3.96730621      -0.00922239       0.00254745      -0.00987447
C        2.46556599       9.97424240       3.71374583      -0.00228039      -0.00181771       0.00356422
C        9.89750702       1.42310586       3.68822382       0.00103534       0.00339238      -0.00401145
C        8.66284759       3.55033249       3.63147216       0.00517333       0.00809338      -0.00045983
C        7.39259486       5.67022677       3.67032090       0.00213065      -0.00900018       0.00468342
C        6.14211295       7.78931706       3.79893326      -0.00692772      -0.00491593       0.01532600
C        4.93595668       9.95033895       3.78738802       0.00135958       0.00453563      -0.00413809
Au       2.97626713       5.80230519       6.56849175       0.00252361      -0.00175815       0.00427990
O        2.65839713       5.30360763       8.51512176      -0.00014433       0.00517283      -0.00007899
O        3.05334110       6.44147059       9.28725240      -0.00322608       0.00170732      -0.00288073
H        3.67813676       6.01551379       9.90581541      -0.00050440      -0.00305939      -0.00473237
