50
Lattice="12.336457 0.0 0.0 -6.168228499999997 10.683685154694365 0.0 0.0 0.0 15.0" Properties=species:S:1:pos:R:3:forces:R:3 energy=-432.06104798335383 free_energy=-432.06104798335383 stress="-0.009742640870694964 0.004689525302259836 -1.4524980455479935e-05 0.004689525302259836 -0.004013647303468904 3.045519511660996e-06 -1.4524980455479935e-05 3.045519511660996e-06 -2.95961774165745e-06" pbc="T T T"
C       -0.00847543      -0.01717926       3.75844743      -0.00260975       0.00301315       0.00280764
C       -1.22450932       2.12564464       3.62861631      -0.00356630       0.00032898      -0.00005939
C       -2.48288670       4.26644600       3.78595316       0.00549559      -0.00138600      -0.00159405
C       -3.73948293       6.39933867       3.91007914       0.00480746       0.00023091       0.00731984
C       -4.97244963       8.52851473       3.85890788       0.00424363      -0.00561924      -0.00827405
C        2.45055443       0.00422043       3.91577172       0.00359878      -0.00214503      -0.00716901
C        1.26138401       2.06811605       3.44900596      -0.00637827       0.00874770       0.00407585
C       -0.12783782       4.34334813       3.27208977      -0.00334722      -0.01097124       0.00245459
C       -1.32669547       6.44267938       3.69957460      -0.00094131       0.00220923       0.01124337
C       -2.51167420       8.55058582       3.94335358       0.00197852       0.01086440       0.00021542
C        4.92392563      -0.01894257       3.98449044       0.00948863      -0.00146302       0.01123649
C        3.74138818       2.13494587       3.92565266      -0.00962804       0.00113712       0.00917385
N        1.04052683       6.43359712       3.72003587      -0.00832335       0.00092449      -0.00080995
C       -0.04070895       8.53735056       3.84933792      -0.00563912      -0.00161300      -0.00592109
C        7.40812279      -0.04112115       3.94430196      -0.00159216      -0.00443676      -0.00707071
C        6.20114075       2.08528939       4.00401145      -0.00653834      -0.00391231       0.00341672
C        5.01351672       4.17602081       3.79887021       0.00048643       0.00525127      -0.00128894
P        3.61703536       6.25486054       2.70788774      -0.00081012      -0.00191331      -0.00224811
C        2.44047242       8.50467082       3.68965724       0.00503994       0.00306048      -0.00378517
C        9.86773625      -0.03016703       3.79693239       0.00139298       0.00554238       0.00247078
C        8.65816649       2.10461635       3.90737477      -0.00081637      -0.00162891      -0.00036034
C        7.42970802       4.23977198       3.94682873       0.00318055       0.00269223      -0.01491913
C        6.16448204       6.36426306       3.72907205      -0.00433085       0.00473298      -0.00175065
C        4.91151172       8.51717895       3.64260341       0.00321875      -0.00097911      -0.00484728
C        0.00716050       1.41387570       3.61518001      -0.00466168       0.00728218       0.00199072
C       -1.25268096       3.56318367       3.56605729      -0.00294344      -0.00622840      -0.00129941
C       -2.51781638       5.69085574       3.81607280       0.00443772      -0.00129068      -0.00154792
C       -3.74119843       7.82681056       3.91979559       0.00713803       0.00130521       0.00080590
C       -4.95212189       9.96236744       3.85245012      -0.00081003      -0.00378805       0.00462848
C        2.47350056       1.43253563       3.80052360      -0.00732930      -0.00026065       0.00240107
S        1.29505952       3.59138289       2.59397075       0.00552486      -0.00390737       0.00068379
C       -0.12612276       5.75619866       3.48731914      -0.00505820      -0.00665353      -0.00003443
C       -1.28762110       7.85075037       3.85215647      -0.00620089       0.00494954       0.00521546
C       -2.49226417       9.97198693       3.97776490       0.01093375       0.00705695      -0.00365369
C        4.95225616       1.39788439       3.98453570      -0.00712316      -0.00238069       0.01171947
N        3.85453384       3.48882579       4.02381984      -0.00224789       0.00436808       0.00171793
C        1.16769563       7.79733343       3.73933598      -0.00252801       0.00076748      -0.00686898
C       -0.00990399       9.95048812       3.94610220       0.00258542      -0.00666875       0.00024601
C        7.42908334       1.38032839       3.98143800      -0.00429727      -0.00492192       0.00024659
C        6.22654228       3.49417182       3.94157312      -0.00050866       0.00028139      -0.00364855
C        5.01574939       5.57985018       3.51828914      -0.00444252       0.00526908       0.00243007
C        3.66772422       7.84876860       3.45499266       0.00507237      -0.00329512       0.00130732
C        2.46071221       9.92574779       3.83762672       0.00299076       0.00467392      -0.00666507
C        9.89104859       1.40373919       3.79243367       0.00071185       0.00328570       0.00594330
C        8.65388755       3.53095662       3.91190449       0.00605663       0.00036300       0.00456566
C        7.39441556       5.66531728       3.89961431      -0.00135499       0.00614095      -0.00335914
C        6.14475970       7.80462377       3.72313737       0.00123722      -0.00056317      -0.00586585
C        4.92467472       9.94669227       3.74553647      -0.00174066      -0.00006401      -0.00009030
Au       2.33107136       4.90210598       4.42790313       0.00471150      -0.01441641      -0.01148350
O        3.11766158       6.02734761       5.78355390       0.01143655      -0.00397212       0.00629839
