50
Lattice="12.336457 0.0 0.0 -6.168228499999997 10.683685154694365 0.0 0.0 0.0 15.0" Properties=species:S:1:pos:R:3:forces:R:3 energy=-433.7960925873721 free_energy=-433.7960925873721 stress="-0.000883258205407245 0.0034234725021353566 1.0477527797707886e-05 0.0034234725021353566 0.0052291256746959 -1.1734034845161836e-05 1.0477527797707886e-05 -1.1734034845161836e-05 -1.3594304547555484e-05" pbc="T T T"
C       -0.03939650       0.00237703       3.79086419       0.00626497       0.00108764      -0.00192465
C       -1.26131564       2.13561798       3.88573478      -0.00144395      -0.00145838       0.01128238
C       -2.48870280       4.26682521       3.84906621      -0.00096053       0.00081009       0.01593155
C       -3.74247134       6.39987578       3.75945269       0.00323908       0.00221732      -0.00870417
C       -4.99609183       8.54021584       3.69745067      -0.00012126       0.00459355      -0.01400382
C        2.41859533       0.04826518       3.80957379       0.00012576      -0.00402297      -0.00321994
C        1.18643218       2.19720142       4.01843838       0.00031693      -0.00859159      -0.00200560
C       -0.02838158       4.27758049       4.09718921       0.00009271       0.00478455       0.00355588
C       -1.28017330       6.40510893       3.93224171       0.00305800      -0.00109158       0.01398243
C       -2.52163643       8.54966050       3.83101902       0.00068930      -0.00237326      -0.00880228
C        4.88896282      -0.00157765       3.80477568      -0.00703911       0.00079324      -0.01250176
C        3.68904080       2.18458629       3.64910223      -0.00492589       0.00124347      -0.00144517
O        1.08522388       6.44586427       4.03370126       0.00639031      -0.00601212      -0.00358679
C       -0.05482043       8.52532152       3.86347308      -0.00582764      -0.00632103       0.01260997
C        7.36661954      -0.03539188       3.83266747       0.00304589       0.00022608       0.00292217
C        6.15981973       2.09801475       3.70640632      -0.00662379       0.00497303       0.00238673
C        4.94980058       4.17725618       3.36369466       0.00357160      -0.00096265      -0.01323085
S        3.51264336       6.26313008       2.71122375       0.00622475       0.01089618       0.00781904
C        2.39154761       8.48874778       3.71716014      -0.00574492      -0.00620878       0.00333701
C        9.82828633      -0.03167626       3.79793095       0.01070675      -0.00128700       0.00527489
C        8.61509563       2.11311901       3.81328805      -0.00211161       0.00560674      -0.00170272
C        7.39490171       4.24840641       3.66505788      -0.00569579      -0.00025397      -0.00620264
C        6.13878043       6.37799012       3.46999761       0.00041587      -0.00138459       0.00380181
C        4.87396297       8.51786630       3.55740551       0.00064802       0.00157256      -0.01489409
C       -0.03065749       1.43560016       3.88739499      -0.00050972      -0.00201505       0.00020986
C       -1.25682078       3.56564008       3.92311390       0.00289975       0.00130511      -0.00609241
C       -2.50823636       5.68564065       3.85603486       0.00378014       0.00075767      -0.00436885
C       -3.75788731       7.83039237       3.76549790      -0.00047869       0.00386938      -0.00542306
C       -4.98072583       9.98238577       3.77167403       0.00293680       0.00135358      -0.00476294
C        2.43014548       1.48765647       3.83855284      -0.00323923      -0.00490178      -0.00098022
N        1.09886601       3.53172479       4.35935948      -0.00626884      -0.00915102      -0.00310503
C       -0.07820126       5.70867812       4.03006588       0.00414287       0.00196227       0.00999851
C       -1.29701263       7.83180552       3.88373973      -0.00278604      -0.00537730       0.00255719
C       -2.52248205       9.98804677       3.81282342      -0.00270995      -0.00429789      -0.01208245
C        4.90909291       1.41662727       3.71989912      -0.00662444       0.00204084      -0.00747277
N        3.75801395       3.52828987       3.43543939       0.01238659      -0.00252255       0.01021082
C        1.13518773       7.81457308       3.83392214      -0.00538996      -0.00656898       0.00433601
C       -0.04153312       9.95796530       3.83234810      -0.00350431      -0.00142608       0.01472565
C        7.38359598       1.39239450       3.79626894      -0.00362673       0.00630421       0.00222504
C        6.18252869       3.50846964       3.57646888      -0.00133114       0.00179616      -0.00275750
C        4.99000180       5.60061548       3.22718214       0.00370564       0.00075151      -0.00629798
C        3.62791104       7.84653721       3.40919598      -0.00382133      -0.00125491       0.00317958
C        2.42139043       9.92172453       3.80639136       0.00747559      -0.00437524       0.00950241
C        9.84371649       1.40473211       3.84131189      -0.00078612       0.00076639       0.00000686
C        8.61943185       3.53996747       3.78456169      -0.00230202       0.00339117      -0.01156612
C        7.37937491       5.67498922       3.63402165      -0.00074757      -0.00151524       0.00926812
C        6.11463056       7.81182060       3.54656906      -0.00330730       0.00038917       0.00645134
C        4.88992351       9.95185320       3.73055894       0.01059524       0.00070584      -0.00982355
Au       2.61956773       4.46541500       5.52780313      -0.00332923       0.00359538       0.00637085
O        4.24240318       5.23763882       6.16655748      -0.00145543       0.01558085       0.00501126
