49
Lattice="12.336457 0.0 0.0 -6.168228499999997 10.683685154694365 0.0 0.0 0.0 15.0" Properties=species:S:1:pos:R:3:forces:R:3 energy=-433.4804028682887 free_energy=-433.4804028682887 stress="-0.009194184305318752 0.00046859265651467535 -1.7661722007784899e-06 0.00046859265651467535 0.004556590174538154 -3.940207369100087e-07 -1.7661722007784899e-06 -3.940207369100087e-07 -1.017242893481478e-06" pbc="T T T"
C        0.00188424       0.01596581       3.72902755       0.00073528       0.00214437       0.00727568
C       -1.25159221       2.11739844       3.86495338      -0.00134785       0.00198664       0.00595024
C       -2.50162263       4.26877385       3.95901875      -0.00464085       0.00167138      -0.00952900
C       -3.70874631       6.42623066       3.85320427      -0.00400328       0.00086556      -0.00474297
C       -4.92795129       8.57816148       3.72242283       0.00555200       0.00002358       0.00694446
C        2.47170953       0.07377735       3.73866659      -0.00575054      -0.00141764      -0.00068409
C        1.20380716       2.20106260       3.76056403       0.00604296       0.00408484       0.00483091
C       -0.09577438       4.26536879       3.97831611      -0.00257984      -0.00199235       0.01350355
C       -1.29221701       6.42974899       4.00412877       0.00631959       0.00131941       0.00526950
C       -2.47927963       8.57774069       3.85365978      -0.00624701       0.00407434      -0.00217683
C        4.93327616       0.00953787       3.77413138       0.00254967      -0.00696713      -0.00544852
C        3.74581816       2.14319344       3.61042081      -0.00215570      -0.00447245       0.00864686
N        1.07081350       6.40265487       3.89455677       0.00306239       0.00007650      -0.00547748
C       -0.01281393       8.52959931       3.86099639      -0.00067569      -0.00546796       0.00569654
C        7.40955514      -0.04709313       3.77417948       0.00356826       0.00677138      -0.00000137
C        6.19290364       2.11244296       3.69453347       0.00075528      -0.00107510      -0.00097147
C        5.05978856       4.26542328       3.42679976       0.00523011       0.00166824      -0.01016994
N        3.85410575       6.39859793       3.49511093      -0.00614608       0.00315025       0.00424581
C        2.46683217       8.45760932       3.72460261      -0.00425931       0.00253225       0.01004276
C        9.86328636      -0.04465180       3.75490201       0.00203100       0.00314663       0.00216135
C        8.63495493       2.10775874       3.82270814      -0.00224785      -0.00139451      -0.00066165
C        7.42016557       4.27047745       3.75541052       0.00945576      -0.00214507      -0.00314665
C        6.21804294       6.42087832       3.58985662      -0.00455727      -0.00303170      -0.00354296
C        4.94490853       8.53025641       3.63569692       0.00773124      -0.00634319       0.00403648
C       -0.00331517       1.44594605       3.78666533       0.00503253       0.00409000       0.00615871
C       -1.28517111       3.53841639       3.96801207      -0.00486907       0.00274835      -0.00766512
C       -2.50581858       5.69737835       3.96599051      -0.00047849       0.00447989       0.00103970
C       -3.70549437       7.85963971       3.81417383      -0.00016075      -0.00131279       0.00193893
C       -4.92427091      10.01544291       3.72645420      -0.00033976      -0.00275286      -0.00427651
C        2.48569091       1.52318858       3.69414399      -0.00131079      -0.00393476      -0.00710560
N        1.08533610       3.58065973       3.82704833      -0.00633619      -0.00094564      -0.00089324
C       -0.10576466       5.70529199       4.00967460       0.00577038       0.00026048      -0.00900136
C       -1.25743959       7.85327051       3.92263360      -0.00493649       0.00304644       0.00039331
C       -2.47654519      10.01463126       3.78783740      -0.00527478       0.00273568      -0.00428644
C        4.94224145       1.43847444       3.69300311      -0.00049686      -0.00415825      -0.00173998
O        3.87054768       3.52739458       3.20833474      -0.00700206       0.00428881      -0.00289744
C        1.20102075       7.78181820       3.82519616       0.00038397      -0.00244103       0.01754931
C       -0.00141577       9.95545594       3.80181481       0.00703825      -0.00507148      -0.00005008
C        7.40539348       1.39096920       3.76531228      -0.00073968       0.00278295       0.00174308
C        6.20706933       3.54010605       3.63335347       0.00935075      -0.00044543      -0.00352249
C        5.03448496       5.68320269       3.44992624      -0.00770634       0.00187575      -0.00561444
C        3.73178775       7.77330227       3.61538572      -0.00147551       0.00054063       0.01324789
C        2.46853124       9.89648786       3.75253959       0.00163643       0.00584029      -0.00383160
C        9.86168098       1.38851527       3.82339319      -0.00256968       0.00537504      -0.00209644
C        8.62661432       3.54164241       3.86124287       0.00365388      -0.00590087      -0.00731793
C        7.42062529       5.69539446       3.73690368      -0.00407260      -0.00137079      -0.01440638
C        6.18679483       7.84745639       3.63919582       0.00928170      -0.00280087      -0.00389724
C        4.93640831       9.95697507       3.70721895       0.00064362      -0.00190790      -0.00286504
Au       2.45654629       5.01657521       3.66139721      -0.00344473      -0.00422991       0.00734518
