50
Lattice="12.336457 0.0 0.0 -6.168228499999997 10.683685154694365 0.0 0.0 0.0 15.0" Properties=species:S:1:pos:R:3:forces:R:3 energy=-430.4368916884759 free_energy=-430.4368916884759 stress="-0.0011724670093333416 -0.0011714866212412973 1.0851231019949224e-05 -0.0011714866212412973 -0.002461552087510154 -1.4353470999396924e-05 1.0851231019949224e-05 -1.4353470999396924e-05 1.914001351920461e-05" pbc="T T T"
C       -0.02184287      -0.01766113       3.83438511      -0.01135446       0.00687362       0.00928629
C       -1.25044763       2.13829791       3.92156861      -0.00337949      -0.00122401      -0.00424672
C       -2.48433891       4.27367648       3.73857225       0.00399045       0.00281706       0.00545659
C       -3.71224540       6.40654027       3.62035406      -0.00074988      -0.00476849       0.00267950
C       -4.95330078       8.53548419       3.67634955      -0.00291420       0.00953025       0.00920016
C        2.45426465      -0.04976841       3.72830985       0.00055055      -0.00148347      -0.00439761
C        1.24518872       2.05340668       4.06518832       0.00481896      -0.00790507      -0.01248303
C       -0.04988841       4.34723106       4.02897180      -0.00130913      -0.00750782      -0.01187380
C       -1.26740374       6.43077550       3.68286155       0.00473485       0.00130934       0.00177585
C       -2.48148667       8.53695085       3.60622691       0.00218896       0.01203310      -0.00498528
C        4.92132558      -0.01117440       3.56760962       0.01098154       0.01014547       0.00231752
C        3.64608769       2.07215709       3.52459884      -0.00229435       0.00361090       0.00213071
N        1.15760898       6.43502057       3.93950145      -0.00317653       0.00215154       0.01363861
C       -0.00679727       8.53323140       3.62816740      -0.00792269      -0.01045033       0.00933116
C        7.39095925      -0.01112361       3.62464588       0.00432588      -0.01754889      -0.00271785
C        6.13533420       2.15238386       3.51031533       0.00102725      -0.00311073      -0.00443017
C        4.94346358       4.37475591       3.40295722       0.00966901      -0.01234589      -0.00327425
O        3.75793825       6.45635372       3.46925086       0.01317203       0.00062900      -0.01248756
C        2.47202156       8.49272939       3.68001776      -0.00281023      -0.00649272      -0.00822084
C        9.84534816      -0.01323103       3.75250433       0.00381143       0.00036835      -0.00119304
C        8.61529673       2.13527161       3.68837531      -0.00408812       0.00584467      -0.00331589
C        7.38141458       4.27823332       3.58228544      -0.00384672       0.00483084       0.00468797
C        6.17355826       6.43226144       3.59062179      -0.01006437       0.00666848       0.00187036
C        4.91580096       8.53803599       3.68627792      -0.00611493       0.00196754       0.00882490
C       -0.01762000       1.40984854       3.97494972      -0.00333542       0.00238799      -0.00114608
C       -1.23857434       3.57748338       3.90356056      -0.00380114      -0.00499735      -0.00145730
C       -2.48103994       5.69621840       3.66799189       0.00804961       0.00043070       0.00461888
C       -3.71392217       7.82648213       3.62737275       0.00188006       0.00251329      -0.00401415
C       -4.95728916       9.95047413       3.75673264      -0.00947506       0.01109224       0.00316218
C        2.45402074       1.36068084       3.80450509       0.00389861      -0.00810431      -0.00073780
P        1.46769960       3.69782192       4.59977098       0.00544740      -0.00676169      -0.00938429
C       -0.01614278       5.77367325       3.87348468       0.00187809      -0.00351731       0.00108177
C       -1.24966336       7.83596133       3.61477553      -0.00640296      -0.00005971       0.00213313
C       -2.47507024       9.95318986       3.61858341       0.01013839       0.01403203      -0.00320091
C        4.90576740       1.42850600       3.50897499      -0.00058941       0.01002011       0.00021749
S        3.37212416       3.72850255       3.07299228       0.01037282       0.00255254       0.00465789
C        1.21252207       7.77066329       3.73465015      -0.00683283      -0.00118746       0.00879263
C       -0.00678649       9.95885282       3.58959759       0.00145547      -0.01335965       0.00538551
C        7.37337429       1.42883533       3.60236588      -0.00100806      -0.00981005      -0.00735202
C        6.12685489       3.58817437       3.49553587       0.00556249      -0.00628420       0.00028981
C        4.96427177       5.77386153       3.49034504       0.00202805      -0.00849012      -0.00178159
C        3.71544550       7.82876059       3.62688992      -0.00122310      -0.00189779      -0.00586928
C        2.45512573       9.93106602       3.68372595       0.00919169      -0.00885339      -0.00722828
C        9.85242481       1.42524151       3.79256619      -0.00196436       0.00309717      -0.00364777
C        8.62063461       3.56033143       3.66785320      -0.00044847       0.01078506       0.00444658
C        7.39615901       5.69343755       3.59739713      -0.01246436       0.00407769      -0.00043684
C        6.15835185       7.84278597       3.65629890      -0.00591252       0.00853744       0.00837808
C        4.90816728       9.96491115       3.76600575      -0.00404702      -0.00094207       0.00855099
Au       2.34988963       4.20278670       6.67539423       0.00142889       0.00218455       0.00625833
O        3.09318303       4.61012624       8.43799282      -0.00307270       0.00661158      -0.00929054
