51
Lattice="12.336457 0.0 0.0 -6.168228499999997 10.683685154694365 0.0 0.0 0.0 15.0" Properties=species:S:1:pos:R:3:forces:R:3 energy=-441.7382380030365 free_energy=-441.7382380030365 stress="6.475502897534258e-05 -2.1083440665666383e-05 -3.9693642592234975e-07 -2.1083440665666383e-05 -0.001015054802936806 -4.103803745110604e-06 -3.9693642592234975e-07 -4.103803745110604e-06 -1.3015468697169627e-05" pbc="T T T"
C       -0.00255520      -0.05298151       3.84396185       0.00167392       0.00415539       0.00407317
C       -1.23157143       2.08246492       4.00256166      -0.00352456      -0.00363621      -0.00185628
C       -2.46511729       4.22092326       4.02089935      -0.00107859       0.00474079       0.00078151
C       -3.70243452       6.35726931       3.92026142      -0.00015252      -0.00848395      -0.00015417
C       -4.94826965       8.48398016       3.77373283       0.00572218      -0.00082396       0.00385809
C        2.46597743      -0.06073946       3.87014583      -0.00008178      -0.00501798       0.01246929
C        1.23972475       2.08004312       3.96254388       0.00724781       0.00377381       0.00319867
C        0.01418348       4.21986416       3.88656757      -0.00599791      -0.00332502      -0.00303513
C       -1.24460145       6.35046567       3.71277553      -0.00432120       0.00991626      -0.01272993
C       -2.45609477       8.48385657       3.77484145      -0.00583364      -0.00040942       0.00436641
C        4.93435053      -0.05283220       3.84126281      -0.00217972       0.00332367       0.00392806
C        3.69197997       2.08033465       3.95738757      -0.00789939       0.00441278       0.00375727
N        2.46658354       4.10969234       4.31669216      -0.00018428      -0.00840724      -0.00792653
S        1.10149461       6.30355646       2.44545028      -0.00553905       0.00535959      -0.01400358
C       -0.00435453       8.51123417       3.50121039       0.00754033      -0.00103487       0.00271709
C        7.40066167      -0.03926501       3.77380576       0.00243322      -0.00439544      -0.00985214
C        6.16288476       2.08302536       3.99586958       0.00358910      -0.00401495      -0.00095836
C        4.91716422       4.22078227       3.87394348       0.00580935      -0.00195725      -0.00144194
S        3.83789201       6.30991770       2.42573478       0.00579732       0.00485487      -0.00957474
C        2.46636080       8.56072793       3.24605447       0.00029227      -0.00306855       0.00011978
C        9.86754185      -0.03933659       3.77527121      -0.00190293      -0.00378308      -0.00949145
C        8.63386064       2.08482067       4.00887823       0.00054646       0.00272393      -0.00611969
C        7.39627356       4.22103342       4.01563190       0.00184382       0.00546742       0.00127708
C        6.17671323       6.35062613       3.70489216       0.00375311       0.00987892      -0.01242941
C        4.93665123       8.51182986       3.49824453      -0.00766884      -0.00169413       0.00300148
C       -0.00072546       1.37203281       3.93997400       0.00550292       0.00789507      -0.00272306
C       -1.22283084       3.51012632       4.01279824      -0.00772510      -0.00405707      -0.00005741
C       -2.46985427       5.64172852       3.93416382       0.00204650       0.00285088      -0.00354173
C       -3.70221590       7.77561011       3.82625386       0.00005355      -0.00947898       0.01629554
C       -4.93992310       9.91351752       3.82425825       0.00128189      -0.00108351      -0.00058220
C        2.46594358       1.36335851       3.93490519      -0.00015964      -0.00494510       0.01174663
C        1.26976660       3.50053978       4.03221021      -0.00132053      -0.00141607       0.00214366
C       -0.07428838       5.58388603       3.49122004      -0.00510276       0.00126239       0.00190908
C       -1.22653686       7.77627550       3.63574276      -0.00058432       0.01138245      -0.00144147
C       -2.46457247       9.91348169       3.82341009      -0.00168911      -0.00128505      -0.00062724
C        4.93229545       1.37241023       3.93426255      -0.00632337       0.00727813      -0.00308616
C        3.66193021       3.50117696       4.02521738       0.00154101      -0.00007782       0.00297574
C        1.21262407       7.89258059       3.13166597       0.00919884      -0.01162992       0.00860192
C       -0.00174045       9.93247113       3.71823907       0.00172012      -0.00294800       0.00244361
C        7.39896101       1.37437890       3.95228333       0.00462173      -0.00424293      -0.00615372
C        6.15392795       3.51066980       4.00356368       0.00803550      -0.00327331       0.00080931
C        5.00693529       5.58463439       3.47707991       0.00432872       0.00192196       0.00332509
C        3.72034996       7.89342306       3.12602423      -0.00887685      -0.01208657       0.00877765
C        2.46600418       9.94784402       3.60991597       0.00043534      -0.00286827       0.00392246
C        9.86884706       1.37408966       3.95534282      -0.00374217      -0.00371953      -0.00603455
C        8.63375097       3.50824963       4.05071616       0.00050659       0.00605096       0.00484093
C        7.40131171       5.64178761       3.92958152      -0.00253989       0.00364257      -0.00291923
C        6.15890776       7.77670947       3.63145754       0.00013405       0.01054091      -0.00060928
C        4.93360756       9.93246252       3.71940652      -0.00178297      -0.00289926       0.00215664
Au       2.46962077       5.92375766       5.47739224       0.00005084      -0.00153359      -0.00090406
O        2.47191861       7.72643932       6.11111828       0.00050464       0.00616423       0.00475730
