52
Lattice="12.336457 0.0 0.0 -6.168228499999997 10.683685154694365 0.0 0.0 0.0 15.0" Properties=species:S:1:pos:R:3:forces:R:3 energy=-442.706023617339 free_energy=-442.706023617339 stress="-0.0002740460505154905 0.002325284750370864 1.0907293490954742e-05 0.002325284750370864 0.004403341092635188 3.089833956142537e-05 1.0907293490954742e-05 3.089833956142537e-05 -3.8931482117344023e-05" pbc="T T T"
C        0.00852667       0.00902441       3.75992023      -0.00294628       0.00114234       0.00209408
C       -1.21448666       2.16114293       3.87692695      -0.00076508      -0.00113427       0.00840138
C       -2.46271121       4.29249781       3.71848067       0.00145033       0.00465460      -0.00216290
C       -3.70359455       6.42704735       3.58844725      -0.00095434       0.00315716       0.00118583
C       -4.93002836       8.56732397       3.60934165       0.00447155      -0.01194611       0.00320864
C        2.48989287       0.03821248       3.65213146      -0.01092960      -0.00230134       0.01004213
C        1.27249895       2.12064957       4.03033515       0.00416521       0.00405514       0.00365153
C       -0.03099112       4.38993458       4.01510642       0.00601262      -0.00327077      -0.00558875
C       -1.25212194       6.45317373       3.66469886      -0.00414787       0.00481771       0.00164950
C       -2.46393455       8.57020690       3.57382048      -0.00299611       0.00453159       0.01035467
C        4.94640612       0.01728096       3.59956381       0.00349978      -0.00132836       0.01278948
C        3.75762947       2.16481364       3.67990320       0.00169259      -0.00182472      -0.00722899
O        1.14941406       6.46809160       3.92561565       0.00850603      -0.00923602       0.00180127
C        0.00586913       8.55274797       3.63173333       0.00210750       0.00211007      -0.00192726
C        7.42325610      -0.01429029       3.65518940       0.01120978      -0.00029430      -0.00126419
C        6.19328610       2.14367382       3.60303513       0.00409533       0.00226701       0.00264369
C        4.96530858       4.26705357       3.56338644      -0.00875194      -0.00283207       0.00553069
N        3.75712044       6.40599297       3.56221759      -0.00439595      -0.00198132       0.00518203
C        2.45628503       8.48102909       3.68781128      -0.00520995       0.00278862       0.00107254
C        9.87460000      -0.01229077       3.73385018       0.00013516      -0.00627331       0.00061539
C        8.65588627       2.14065175       3.69418729       0.00059606       0.00001798       0.00662208
C        7.41001165       4.28580474       3.59675920      -0.00143456       0.00843121       0.00834831
C        6.16910638       6.41067856       3.57350182       0.00078089      -0.00082629      -0.00174586
C        4.93703553       8.53421840       3.65371227      -0.00012538      -0.00290053       0.00677922
C        0.01753917       1.43899690       3.90520490       0.00311322       0.00884862      -0.01149400
C       -1.22367137       3.59762642       3.87351928       0.00288206       0.00019892      -0.00544628
C       -2.47792209       5.71467327       3.64790752      -0.00470778       0.00567390      -0.00780395
C       -3.70104362       7.85421411       3.58067141       0.00454681      -0.00298741      -0.01561403
C       -4.92192699       9.99686526       3.67197378      -0.01087008      -0.00840067      -0.01160559
C        2.51828166       1.46665919       3.77347082      -0.00022709       0.00450799      -0.01820518
P        1.37248220       3.70113638       4.72638051       0.00423292      -0.00306609       0.00734396
C       -0.04718792       5.79688266       3.86717929      -0.00238177      -0.00217613      -0.00049212
C       -1.24163294       7.86474540       3.60303064      -0.00322941       0.00572290       0.00561309
C       -2.45784972      10.00175922       3.59069007      -0.00648494       0.00393994      -0.00318731
C        4.95416159       1.45123126       3.61207665       0.00517458       0.00085004       0.00403141
O        3.78726824       3.55192513       3.58125534      -0.00904265      -0.00018993       0.00372362
C        1.20378279       7.83345799       3.72573809       0.00017392      -0.00584030      -0.01091056
C        0.01665739       9.97991947       3.61625744       0.01092970       0.00451688      -0.00711773
C        7.41924953       1.42763098       3.64494472       0.00373219      -0.00089994      -0.00642333
C        6.17214125       3.57359433       3.58063734      -0.00239841       0.00271869      -0.00398483
C        4.91021867       5.70751412       3.55978743      -0.00289103      -0.00236746       0.00047825
C        3.71725354       7.74776773       3.63691698      -0.00633795       0.00143880       0.00935493
C        2.47613044       9.92288963       3.69061114       0.00337277       0.00036582       0.00052058
C        9.88830136       1.42804402       3.77075681      -0.00001066      -0.00936379      -0.01565024
C        8.64553994       3.57066967       3.66491536      -0.00005077       0.00578040      -0.00258749
C        7.39613502       5.70486917       3.57731163       0.00325978       0.00789162       0.01444742
C        6.17199436       7.83808190       3.60906937       0.00310056      -0.00487295      -0.00323879
C        4.93904327       9.96373214       3.72095105       0.00105881      -0.00226125      -0.00620439
Au       1.94072647       4.06599088       6.92243628       0.00410812       0.00849713      -0.00024281
O        2.58471404       4.55534709       8.80531148       0.00341868       0.00599140      -0.00127057
O        1.78851590       3.79081075       9.70809896      -0.00919467       0.00169729       0.01036333
H        2.32073660       3.88347783      10.52194501      -0.00134269      -0.01803844       0.00354812
