53
Lattice="12.336457 0.0 0.0 -6.168228499999997 10.683685154694365 0.0 0.0 0.0 15.0" Properties=species:S:1:pos:R:3:forces:R:3 energy=-454.48298017708606 free_energy=-454.48298017708606 stress="0.005454283151429661 3.934626829721934e-06 -6.571588518217341e-06 3.934626829721934e-06 0.005442479366067551 6.339706656963407e-07 -6.571588518217341e-06 6.339706656963407e-07 -4.721800041769769e-05" pbc="T T T"
C       -0.01192785      -0.00007508       3.63142849      -0.00806816       0.00163871       0.00357915
C       -1.23340014       2.14822187       3.62612126      -0.00470553      -0.00209961      -0.00081112
C       -2.45900558       4.27078944       3.62779002       0.00210338       0.00537333      -0.00118168
C       -3.70820438       6.40288958       3.63305553       0.00058755      -0.01067180       0.00485705
C       -4.94990937       8.53971216       3.63676342       0.00268617       0.00228892       0.00442224
C        2.45979784       0.00617200       3.63611209      -0.00224955       0.00403184      -0.00103719
C        1.23394933       2.15376940       3.62665399       0.00494764      -0.00068499       0.00559068
C        0.05536828       4.30771390       3.62692604       0.00931035      -0.00256468      -0.00074160
C       -1.21977045       6.40499000       3.63681205      -0.00046929       0.00418177      -0.01020074
C       -2.46668988       8.54015655       3.63860195      -0.00434223      -0.00260338       0.00102472
C        4.93152436       0.00020368       3.63407010       0.00549315       0.00296408       0.00236014
C        3.68550338       2.15345941       3.63159727      -0.00477250       0.00639315       0.00453434
O        2.45978684       4.21811729       3.63308009      -0.00117720       0.00726850      -0.00307163
O        1.18141951       6.43409834       3.62028339      -0.00649479      -0.00257925       0.00684866
C        0.00565099       8.52839637       3.63250305       0.00179482      -0.00794397       0.00595757
C        7.40255673      -0.01515690       3.63009043       0.00256683      -0.00816600      -0.00247829
C        6.15294763       2.14838001       3.62872990       0.00338323      -0.00045601      -0.00110729
C        4.86385608       4.30775829       3.63044402       0.00079036      -0.01027789      -0.00219423
O        3.73848791       6.43344438       3.63150355       0.00247902       0.00373687       0.00142293
C        2.45997556       8.47115588       3.63184615      -0.00084979       0.01758916      -0.00220500
C        9.85324843      -0.01534820       3.62991884       0.00578151      -0.01111961      -0.00026636
C        8.62805271       2.13485976       3.62472370       0.00126441      -0.00750973       0.00430650
C        7.37896226       4.27043493       3.62467877      -0.00477452       0.00799127       0.01021587
C        6.13992040       6.40425185       3.63145246      -0.00148136       0.00911892       0.00294488
C        4.91412841       8.52743744       3.63716434      -0.00108489       0.00267828      -0.00848725
C       -0.00748505       1.43162680       3.62676857      -0.00217733       0.00326625       0.00525645
C       -1.20172212       3.58166203       3.62649534       0.00426359       0.00361838       0.00046043
C       -2.46616950       5.69077353       3.63418848       0.00573014       0.00108487      -0.00849731
C       -3.70824796       7.82895767       3.63673848       0.00029351      -0.01288702       0.00052364
C       -4.94521052       9.97044510       3.63687163      -0.00540958       0.00419648      -0.01134718
C        2.45965224       1.42878292       3.63132375       0.00134244       0.00015206       0.00071119
C        1.26027605       3.55117212       3.62723112       0.00778216      -0.00361340       0.00262397
C        0.00361799       5.72947107       3.62837689      -0.00404486      -0.00247784       0.00433242
C       -1.23466845       7.82895693       3.63792422      -0.00304413       0.00095063      -0.00711008
C       -2.47151706       9.97073134       3.63815268       0.00027176       0.00321766      -0.00846180
C        4.92711214       1.43159193       3.63200638      -0.00104283       0.01004957      -0.00229521
C        3.65919038       3.55080133       3.63259158      -0.00732316       0.00160434      -0.00484956
C        1.20238062       7.80644658       3.62836620       0.00404131      -0.00164867       0.00384348
C        0.00104172       9.96482108       3.63199876       0.00402877      -0.00982439       0.00302847
C        7.39457984       1.42302114       3.62741276       0.00337561      -0.01085683       0.00056950
C        6.12116523       3.58183160       3.62741498       0.00216660      -0.00276340      -0.00151385
C        4.91634181       5.72917495       3.63009346       0.00341597      -0.00738695       0.00897599
C        3.71741629       7.80567598       3.63534091      -0.00487654       0.00708224      -0.00586238
C        2.45964758       9.92338222       3.63100718       0.00426087       0.00833744      -0.00313254
C        9.86136783       1.42293673       3.62700273      -0.00025717      -0.01565125      -0.00330774
C        8.62833551       3.55855925       3.62388148      -0.00584721       0.00434859       0.00726855
C        7.38638062       5.69024396       3.62920517      -0.00655479       0.00695799      -0.00073314
C        6.15472229       7.82809013       3.63633332      -0.00078311       0.01019893      -0.00427449
C        4.91842957       9.96423046       3.63233765      -0.00109766      -0.00686879       0.00568299
Au       2.41972605       5.59511467      10.00527943      -0.00381245       0.00013024      -0.01276044
O        3.47125580       5.58483620      11.69595515       0.00032799      -0.00023562      -0.01127699
O        2.64633617       5.59234977      12.89886285       0.00909860      -0.00030035       0.00599943
H        3.35194248       5.59314680      13.57711751      -0.00684708       0.00074096       0.01186386
