51
Lattice="12.336457 0.0 0.0 -6.168228499999997 10.683685154694365 0.0 0.0 0.0 15.0" Properties=species:S:1:pos:R:3:forces:R:3 energy=-444.45514795351505 free_energy=-444.45514795351505 stress="0.0054893940091274174 3.2720862499612473e-06 -7.298798522605401e-08 3.2720862499612473e-06 0.005477596158278234 -1.020698159151254e-07 -7.298798522605401e-08 -1.020698159151254e-07 -9.356273310923994e-06" pbc="T T T"
C       -0.01177501       0.00243165       3.64595488      -0.00113137       0.00164882      -0.00068809
C       -1.23294676       2.15022883       3.62356446      -0.00146641       0.00287490       0.00505124
C       -2.45825554       4.27295040       3.62243292      -0.00067192       0.00075381       0.00139851
C       -3.70770705       6.40468573       3.64063424      -0.00043892       0.00113194       0.00386967
C       -4.94961673       8.54218699       3.65741222       0.00222482       0.00230359      -0.00561769
C        2.46000431       0.00908188       3.66076448       0.00100390      -0.00164658      -0.00871721
C        1.23467517       2.15656063       3.64701626      -0.00025646      -0.00225717      -0.00917065
C        0.05634377       4.30981587       3.62841465       0.00083059       0.00159469       0.00729527
C       -1.21909700       6.40715232       3.64285980      -0.00421882       0.00203976      -0.00529260
C       -2.46668187       8.54240108       3.65869248       0.00020215       0.00069095      -0.01130432
C        4.93166434       0.00302175       3.63959088       0.00291071      -0.00225814       0.00189137
C        3.68574880       2.15690589       3.64039152       0.00040946      -0.00377352      -0.00419888
O        2.46036773       4.22174584       3.62420727      -0.00123195      -0.00215894       0.00291334
O        1.18206030       6.43631423       3.62647589      -0.00682527       0.00272511       0.00468431
C        0.00581201       8.53027601       3.63747166      -0.00079585       0.00135495      -0.00150237
C        7.40236306      -0.01303072       3.61368788       0.00406415      -0.00227377       0.00918982
C        6.15345662       2.15087288       3.61467956       0.00041388      -0.00102962       0.00654502
C        4.86461019       4.31024511       3.62060198      -0.00309584      -0.00061747       0.00607628
O        3.73879128       6.43647282       3.62320307       0.00200955      -0.00013597       0.00072194
C        2.45982382       8.47453243       3.62096757       0.00211453      -0.00374534       0.00643488
C        9.85371333      -0.01338126       3.61770733       0.00019221      -0.00012361       0.00859379
C        8.62852694       2.13676335       3.61086923      -0.00080491       0.00032743      -0.00794966
C        7.37943505       4.27316874       3.61560194      -0.00184354       0.00066731       0.00864188
C        6.14009748       6.40726554       3.63631267       0.00144707       0.00163641      -0.00273411
C        4.91408853       8.53012070       3.63923681       0.00325689       0.00087235      -0.00498967
C       -0.00694759       1.43415289       3.64032069      -0.00199462       0.00139181      -0.00493324
C       -1.20092018       3.58374231       3.62316853       0.00056322       0.00282922       0.00205303
C       -2.46534578       5.69283554       3.63558608      -0.00202315       0.00053902      -0.00008502
C       -3.70804019       7.83072506       3.65644046       0.00100254       0.00105616      -0.00826853
C       -4.94503880       9.97309982       3.65811601      -0.00028256       0.00169260       0.00062043
C        2.46019567       1.43177724       3.65438246       0.00034363      -0.00295417      -0.01223417
C        1.26133418       3.55384388       3.63322639      -0.00043790      -0.00189387       0.00439522
C        0.00432660       5.73154092       3.63372778      -0.00515848       0.00188634      -0.00533447
C       -1.23458387       7.83112121       3.64978596      -0.00114759       0.00157683      -0.00606631
C       -2.47139339       9.97342160       3.65706491       0.00191370      -0.00079030      -0.00722686
C        4.92729648       1.43480795       3.63091189       0.00167017      -0.00291494       0.00191982
C        3.65949918       3.55417430       3.62812893      -0.00177679      -0.00321492       0.00135230
C        1.20275830       7.80873887       3.62855912      -0.00196092       0.00132970      -0.00505493
C        0.00094597       9.96680405       3.62901841       0.00341159      -0.00055686       0.00394644
C        7.39488190       1.42500522       3.61003824       0.00097170      -0.00166634       0.00545105
C        6.12187691       3.58431094       3.61391215      -0.00234925      -0.00004411       0.00659090
C        4.91666745       5.73184825       3.62698767       0.00136837      -0.00002762      -0.00442300
C        3.71718322       7.80879373       3.62707163       0.00359587      -0.00079026       0.00274540
C        2.45970547       9.92629747       3.61413543       0.00284013      -0.00372648       0.00724249
C        9.86185548       1.42459228       3.61444665      -0.00087564       0.00108284       0.00960487
C        8.62877440       3.56084057       3.61473410      -0.00134126       0.00074677      -0.00033154
C        7.38649564       5.69297106       3.62935475       0.00000442       0.00107611       0.00869523
C        6.15478240       7.83104325       3.64814180       0.00314045       0.00196280      -0.00900851
C        4.91869269       9.96646633       3.63497272       0.00022370       0.00080778      -0.00279265
Au       2.76777426       5.58296254       9.60127638       0.00000000       0.00000000      -0.01127368
O        2.76777426       5.58296254      11.51807336       0.00000000       0.00000000       0.01127368
