49
Lattice="12.336457 0.0 0.0 -6.168228499999997 10.683685154694365 0.0 0.0 0.0 15.0" Properties=species:S:1:pos:R:3:forces:R:3 energy=-424.78132910722275 free_energy=-424.78132910722275 stress="-0.0009393319835971426 0.004018046119749426 -5.507061549450281e-06 0.004018046119749426 0.00030402328042284033 6.977427654334212e-06 -5.507061549450281e-06 6.977427654334212e-06 3.6642987681427166e-06" pbc="T T T"
C        0.00082040      -0.00162473       3.76435549       0.00902267       0.00333355       0.00657435
C       -1.21002196       2.15722562       3.76901276       0.00260271       0.00467285       0.00088221
C       -2.45745100       4.28162867       3.54434267       0.00365267      -0.00350341       0.00168288
C       -3.71675446       6.40925659       3.50415813      -0.00201859       0.00462470       0.00952720
C       -4.95552284       8.53958017       3.65358741      -0.01077643       0.00341023       0.00847242
C        2.47465602       0.01860755       3.65826366       0.00108328       0.00134662       0.00388493
C        1.26771478       2.11604439       4.05343750       0.00136926      -0.00081208       0.00201723
C       -0.02144099       4.38049208       3.85226716       0.00523350      -0.00410650       0.00369477
C       -1.25578317       6.43854032       3.47190010       0.00636458      -0.00316425       0.00117799
C       -2.48575172       8.55350123       3.49363909      -0.00465913       0.00063510      -0.00074848
C        4.93299690      -0.00350984       3.52831546      -0.00603304      -0.00211670      -0.00145438
C        3.75586921       2.12335043       3.68645918       0.00240415      -0.00457219      -0.00667092
O        1.14800063       6.46406153       3.63268038      -0.00910436       0.00117665       0.00211207
C       -0.01498499       8.54444301       3.52377711       0.00357745       0.00649747       0.00050583
C        7.41115330      -0.01790744       3.55357310      -0.00546624       0.00398499      -0.01409128
C        6.19492730       2.11329155       3.50148998       0.00229829      -0.00968423       0.00468244
C        4.98572061       4.18881171       3.68446213      -0.00229966       0.00068448       0.00274228
P        3.73745016       6.32375876       4.84475159       0.00452971       0.00246865       0.00349564
C        2.42480198       8.51911982       3.78221747      -0.00319483      -0.00375066       0.00025100
C        9.87034856      -0.00817523       3.69449569       0.00020713       0.00168121       0.01173017
C        8.65854728       2.12925522       3.55390505       0.00233950      -0.00063338       0.00200781
C        7.41691127       4.26338685       3.51575056      -0.00043587      -0.00445478      -0.01218294
C        6.15593788       6.37432234       3.72941839       0.00244311      -0.00093773      -0.00000892
C        4.91832038       8.53188147       3.86623919       0.00555569       0.00492754      -0.00172049
C        0.01543299       1.43198212       3.86740644       0.00421937       0.00411558      -0.01005380
C       -1.22001785       3.59089600       3.70811136       0.00575525       0.00251735      -0.00179609
C       -2.48141763       5.70237896       3.48523539       0.00189102      -0.00229958       0.00092756
C       -3.72361900       7.83616606       3.53586467      -0.01184290       0.00645804       0.01216073
C       -4.93547048       9.97253993       3.69619024       0.00176804       0.00281369      -0.00161827
C        2.50976195       1.44529269       3.79936915       0.00256121       0.00030581       0.00702892
P        1.18852710       3.65248396       4.82863179      -0.00458756       0.00451904      -0.00478843
C       -0.04830867       5.77652561       3.63245776       0.00113256      -0.00497598       0.00689394
C       -1.26011461       7.85279700       3.46483499       0.00401900       0.00179922       0.00015158
C       -2.47609968       9.98362010       3.54662432      -0.00431128      -0.00085805       0.00494191
C        4.94994715       1.42124574       3.55392063       0.00342567      -0.00886763      -0.00125090
O        3.78908666       3.50165401       3.68447014      -0.00751270      -0.00260915      -0.00814552
C        1.17965495       7.84161684       3.65121905      -0.00452106      -0.00538506       0.00164151
C        0.00237307       9.96917343       3.52190307      -0.00619593       0.00809170       0.00954964
C        7.42046798       1.41245301       3.51674898       0.00303918      -0.00084085       0.00040526
C        6.19164235       3.52709482       3.51935146      -0.00076489      -0.00807219      -0.00093954
C        4.95916292       5.58590062       3.89100022      -0.00789567       0.00453981      -0.00277535
C        3.66460857       7.84860801       4.04698217       0.00379009       0.00519743      -0.00008045
C        2.46050575       9.94640558       3.65382316      -0.00729410       0.00033567      -0.00121663
C        9.89071443       1.42494207       3.65745440       0.00450029       0.00398451      -0.00292042
C        8.65175031       3.55627075       3.52068642       0.00255087      -0.00450603      -0.01709792
C        7.39298944       5.68413080       3.55939037      -0.00035087      -0.00038729      -0.00965974
C        6.14528957       7.80776596       3.77612271      -0.00075800      -0.00087591      -0.01185717
C        4.93318628       9.96516391       3.76233681       0.00685662       0.00476977       0.00400319
Au       2.44087424       5.00209909       6.21208462       0.00183022      -0.01147799      -0.00206786
