50
Lattice="12.336457 0.0 0.0 -6.168228499999997 10.683685154694365 0.0 0.0 0.0 15.0" Properties=species:S:1:pos:R:3:forces:R:3 energy=-428.7965087147965 free_energy=-428.7965087147965 stress="0.00013840049560082492 -0.00035448624926593937 -8.095692075902037e-06 -0.00035448624926593937 0.003895891180905048 1.6484496002672122e-07 -8.095692075902037e-06 1.6484496002672122e-07 2.3895006302364474e-05" pbc="T T T"
C       -0.05881393       0.08334259       3.49921801      -0.00013453       0.00404709       0.00779952
C       -1.29492842       2.21885363       3.42850597      -0.00662402       0.00687262       0.00363933
C       -2.51715246       4.35355131       3.44545170       0.00056336       0.00565577      -0.00151731
C       -3.74859568       6.48869315       3.51874274      -0.01047501      -0.01172131       0.00701306
C       -4.99141246       8.63144244       3.56638370       0.01071826      -0.00776274      -0.00372753
C        2.39716353       0.10153472       3.50367288      -0.00053286      -0.00113890      -0.00285098
C        1.13857474       2.24851889       3.51429552       0.00661456       0.00255091      -0.00245243
C       -0.07602112       4.35528698       3.39712372      -0.00163618      -0.00982843      -0.00126056
C       -1.27504962       6.46804904       3.40884443      -0.00293143      -0.00113224       0.00030829
C       -2.51745584       8.62112015       3.45977284      -0.00109581      -0.00238481      -0.00556078
C        4.87710736       0.06925146       3.57684641      -0.00470688       0.00652790      -0.00333726
C        3.62096259       2.16365643       3.94397403      -0.00173727      -0.00353678       0.01017086
O        1.11754433       6.48597334       3.46686266       0.00375459      -0.00606221      -0.00741524
C       -0.05098992       8.59377046       3.49321526       0.00001892       0.00195088      -0.01018757
C        7.34251161       0.05644820       3.54631645       0.00107783      -0.00714242       0.00626471
C        6.11771451       2.20155046       3.76262074       0.00269601       0.00955594       0.00382060
C        4.99580997       4.36677798       4.22965680      -0.00982891       0.00791307      -0.00155203
P        3.62799872       6.53790575       5.03917711       0.00852088      -0.00352304      -0.00474019
C        2.38616230       8.57669129       3.67828669      -0.00244808       0.00975773      -0.00268405
C        9.80189386       0.05977859       3.52495890       0.00315691       0.00593661       0.00048409
C        8.57525708       2.20576456       3.52805438      -0.00170938      -0.00462974      -0.00548228
C        7.36729780       4.34893202       3.67968712       0.01261088      -0.00114688      -0.00461462
C        6.15922894       6.50957432       3.88049523      -0.00353352       0.00118848       0.00812048
C        4.87477071       8.62522332       3.77424559      -0.00218146      -0.00533996      -0.00176644
C       -0.05781871       1.52143437       3.45193392      -0.00002039       0.01078288       0.00548129
C       -1.28071076       3.65022417       3.40477426      -0.00767858       0.00135358      -0.00207991
C       -2.51399964       5.76640958       3.44006091      -0.00709413       0.00263620       0.00598598
C       -3.75697947       7.91640957       3.50157592       0.00495043      -0.01465638       0.00378182
C       -4.99448704      10.06207053       3.50046798       0.00178281      -0.00257930       0.00685960
C        2.38087016       1.53476483       3.62221312       0.00128612      -0.00447129       0.00795649
O        1.10736597       3.63053378       3.41340305       0.00920674       0.00353960       0.00744617
C       -0.06978847       5.76536820       3.40780775      -0.00229834      -0.01088859       0.00130665
C       -1.28786674       7.89824259       3.44143796      -0.00088640       0.00214375      -0.00532725
C       -2.53104226      10.05677473       3.50439628      -0.00276810       0.00056063       0.00012993
C        4.86893899       1.49422071       3.76540460      -0.00022109       0.00838059       0.00277640
P        3.54461489       3.65403539       4.88358722       0.00454275      -0.00275226       0.00590024
C        1.14662514       7.86796715       3.56531808       0.00067144      -0.00016326      -0.00206926
C       -0.05524745      10.03274542       3.53671228      -0.00404823       0.00217722      -0.00548059
C        7.34101401       1.49109583       3.59853652      -0.00210952      -0.00681366      -0.00405487
C        6.14815657       3.62524771       3.87806225       0.00264172       0.01420091      -0.00208525
C        4.99389646       5.78930638       4.26188847      -0.00171432       0.00723355       0.00829258
C        3.63420788       7.94134841       3.98577540      -0.00789794      -0.00078756      -0.01313669
C        2.39653973      10.01071591       3.55228651       0.00575778       0.00519591      -0.00939821
C        9.81304275       1.49671034       3.47309441      -0.00306532       0.00305631      -0.00534290
C        8.58292414       3.63412847       3.53386574       0.01239298      -0.00378693      -0.00273111
C        7.36926572       5.77911472       3.67432826      -0.00762147      -0.00626677       0.00470598
C        6.12414966       7.92438536       3.75444203       0.00602096      -0.00211347       0.00616204
C        4.87532177      10.04594729       3.57092659      -0.00099650      -0.00062735       0.00198775
Au       3.75400656       3.25711647       7.22059347      -0.00583360      -0.00153743       0.01251294
O        3.86537698       2.94140170       9.14369126       0.00484333      -0.00042441      -0.01805151
