52
Lattice="12.336457 0.0 0.0 -6.168228499999997 10.683685154694365 0.0 0.0 0.0 15.0" Properties=species:S:1:pos:R:3:initial_magmoms:R:1:forces:R:3 energy=-450.30687869561785 free_energy=-450.30687869561785 stress="0.005433234382167872 -3.6522947119344037e-06 1.8731784494794078e-07 -3.6522947119344037e-06 0.005438657595871366 1.1656972853674692e-07 1.8731784494794078e-07 1.1656972853674692e-07 -1.3244443049167317e-05" pbc="T T T"
C       -0.01208929       0.00046300       3.62855245       0.00000000       0.00234249      -0.00608025      -0.00352211
C       -1.23359037       2.14757905       3.63661081       0.00000000       0.00145108       0.00571955       0.00171200
C       -2.45842201       4.27035222       3.63551903       0.00000000      -0.01060652      -0.00010227      -0.00377432
C       -3.70837329       6.40184741       3.62757560       0.00000000       0.00124098       0.00980720      -0.00679319
C       -4.94976524       8.53993508       3.62011402       0.00000000       0.00020920       0.00072157       0.01246705
C        2.45968288       0.00638523       3.61933455       0.00000000       0.00174195       0.00365616       0.00506314
C        1.23455730       2.15404668       3.63015448       0.00000000      -0.00501647      -0.00007438      -0.00686519
C        0.05569225       4.30721499       3.63484313       0.00000000       0.00285029       0.00243014       0.00307797
C       -1.22028325       6.40489906       3.62876266       0.00000000       0.00216933      -0.00386298       0.00356714
C       -2.46719031       8.53998609       3.62276195       0.00000000      -0.00068252       0.00037229       0.00014716
C        4.93143771       0.00076789       3.62725681       0.00000000       0.00031527      -0.00991865      -0.00385556
C        3.68534396       2.15432379       3.62727771       0.00000000       0.00230995      -0.00197152       0.00102054
O        2.45998081       4.21922451       3.64602249       0.00000000      -0.00040148       0.00112362      -0.00893628
O        1.18069158       6.43376472       3.62649968       0.00000000       0.00321063       0.00099716       0.00376106
C        0.00521043       8.52756476       3.62974859       0.00000000      -0.00051261       0.00533723      -0.00167048
C        7.40204428      -0.01601179       3.63429977       0.00000000       0.00530517       0.00620516      -0.00191460
C        6.15333095       2.14818849       3.63202268       0.00000000      -0.00288838       0.00149169       0.00235853
C        4.86428763       4.30762460       3.63202221       0.00000000      -0.00339958       0.00331833       0.00309444
O        3.73911990       6.43464981       3.63430426       0.00000000      -0.00969827      -0.00919428      -0.00326634
C        2.45935839       8.47208730       3.63258222       0.00000000       0.00409365      -0.00833745       0.00573349
C        9.85346108      -0.01599217       3.63718569       0.00000000      -0.00484844       0.00382508      -0.00590675
C        8.62789064       2.13442732       3.63825814       0.00000000       0.00305614      -0.00501261      -0.00706793
C        7.37879924       4.27075645       3.63110876       0.00000000       0.00258708      -0.00286330       0.00379519
C        6.13981932       6.40518239       3.62751663       0.00000000       0.00078857      -0.00350715      -0.00290382
C        4.91412140       8.52798164       3.62985095       0.00000000       0.00065456       0.00316476      -0.00012419
C       -0.00725935       1.43205256       3.63157667       0.00000000      -0.00251954      -0.00535834       0.00167247
C       -1.20129979       3.58092594       3.63667799       0.00000000      -0.00340601       0.00836061      -0.00273165
C       -2.46598648       5.69018681       3.63089151       0.00000000      -0.00504919       0.00170380      -0.00095290
C       -3.70841868       7.82802202       3.62167715       0.00000000      -0.00039577       0.00774382       0.00484267
C       -4.94549096       9.97087628       3.62151672       0.00000000       0.00563727      -0.00213126      -0.00080480
C        2.45994535       1.42898191       3.62180383       0.00000000      -0.00176958       0.00409961       0.01929210
C        1.26094544       3.55135993       3.63745299       0.00000000      -0.00018669      -0.00017804      -0.00629232
C        0.00292242       5.72902603       3.62985347       0.00000000       0.00542532      -0.00017211       0.00484722
C       -1.23532718       7.82874421       3.62729965       0.00000000       0.00008647      -0.00087609      -0.00430440
C       -2.47161724       9.97101296       3.62146384       0.00000000      -0.00234242      -0.00275377       0.00389342
C        4.92703162       1.43253045       3.62960795       0.00000000       0.00108961      -0.00988448      -0.00870642
C        3.65907077       3.55162227       3.63500183       0.00000000       0.00000478      -0.00102016      -0.00522800
C        1.20211419       7.80608822       3.63077863       0.00000000      -0.00109352       0.00182877      -0.00409020
C        0.00051706       9.96402082       3.63005634       0.00000000       0.00521710       0.00479080       0.00353225
C        7.39455109       1.42210059       3.63494468       0.00000000       0.00159507       0.00485429       0.00265946
C        6.12150666       3.58160515       3.63101429       0.00000000      -0.00202196       0.00345377       0.00536640
C        4.91662671       5.72950475       3.63047185       0.00000000      -0.00368916      -0.00036661       0.00457530
C        3.71704261       7.80687661       3.63287209       0.00000000       0.00455293      -0.00701187      -0.00413406
C        2.45948155       9.92363427       3.63543138       0.00000000      -0.00016627      -0.00324150      -0.00021439
C        9.86113516       1.42199980       3.63875716       0.00000000       0.00345731       0.00272913      -0.00360575
C        8.62836106       3.55866220       3.63544107       0.00000000      -0.00420517      -0.00914819      -0.00017454
C        7.38571211       5.69051489       3.62812276       0.00000000       0.00719994       0.00014737       0.00283619
C        6.15471407       7.82894491       3.62533837       0.00000000       0.00012383      -0.00053787      -0.00158140
C        4.91863407       9.96413945       3.63218618       0.00000000      -0.00386311       0.00577720      -0.00043051
Au       1.54950133       5.79373008       9.31647311       0.00000000      -0.00183479       0.00026404       0.00012318
O        3.33587010       5.49505624      11.90243274       1.00000000      -0.00237555       0.00041846       0.01856486
O        3.40163714       5.48275954      10.64749520       1.00000000       0.00425700      -0.00073649      -0.01815114
