50
Lattice="12.336457 0.0 0.0 -6.168228499999997 10.683685154694365 0.0 0.0 0.0 15.0" Properties=species:S:1:pos:R:3:forces:R:3 energy=-428.7784499447009 free_energy=-428.7784499447009 stress="-0.0015365393899957791 0.004234929074035108 4.7852328535936834e-05 0.004234929074035108 0.00013220204128774847 -4.0559293133140695e-05 4.7852328535936834e-05 -4.0559293133140695e-05 -4.5157488999980877e-05" pbc="T T T"
C        0.05143878       0.06159070       3.69967915      -0.00028030       0.00061729      -0.00249705
C       -1.16036841       2.22352675       3.73692920       0.00728216      -0.00300447       0.00234192
C       -2.40793110       4.35028136       3.54661636      -0.00128618      -0.00961497       0.01149519
C       -3.67284327       6.47474145       3.48645540       0.00765387       0.00334808      -0.00854190
C       -4.90701820       8.60350832       3.60130699      -0.00412589      -0.00060763       0.00088015
C        2.52410493       0.07867803       3.58618145      -0.00158555      -0.00053493      -0.01097404
C        1.32063949       2.17812589       3.93499975      -0.00051707      -0.00828805       0.00906914
C        0.01609982       4.44581443       3.88416605       0.00249068      -0.00422867      -0.00090747
C       -1.21539118       6.50723552       3.51500952       0.00403322      -0.00567972      -0.00903393
C       -2.43584357       8.61774096       3.47644384       0.00395394       0.00317534       0.00737514
C        4.98523405       0.06102425       3.48635753       0.00327621       0.00476575      -0.00422589
C        3.81020544       2.19087331       3.61468858       0.00034774      -0.00267856       0.00222847
O        1.19157521       6.52835118       3.69268535      -0.00432391       0.00347286      -0.00992859
C        0.03651516       8.60980321       3.52414595      -0.00175233       0.00385785      -0.00141589
C        7.46490325       0.04704570       3.51716507       0.00013946      -0.00011968       0.00426629
C        6.24933418       2.17958166       3.45459152      -0.00000942       0.00224811      -0.00791109
C        5.04515118       4.26606651       3.62704358      -0.00448990      -0.00304595       0.01071268
P        3.72495685       6.35820605       4.77764342       0.00357087      -0.00307613       0.00788630
C        2.48494545       8.58008858       3.73332562       0.00306404      -0.00356041       0.00053725
C        9.92371459       0.05694779       3.64834858      -0.00116812       0.00234599       0.00352117
C        8.71156067       2.19611108       3.52349267      -0.00005816      -0.00327786      -0.00483451
C        7.47033901       4.33045584       3.46877261      -0.00628266       0.00373748       0.00206647
C        6.19522158       6.43965316       3.66365955      -0.00181288       0.00005083       0.00358893
C        4.96549265       8.58890580       3.78725101       0.00281795       0.00656873       0.00288989
C        0.07227687       1.50147726       3.79463499       0.00240741      -0.00450699       0.00093996
C       -1.16546481       3.66109086       3.71680406       0.00616309      -0.00636912      -0.00255935
C       -2.43768184       5.76901221       3.49563494       0.00519873      -0.00728975       0.00404956
C       -3.67471447       7.90098194       3.51115266       0.00085184       0.00518142      -0.01319911
C       -4.88658502      10.03629927       3.63010890      -0.00303409      -0.00113622      -0.00456783
C        2.55718211       1.50822147       3.70027339      -0.00156797      -0.00116115      -0.00910299
P        1.40186079       3.75818474       4.69303733      -0.00000874      -0.00271582       0.00040527
C       -0.01333668       5.84436775       3.70101973       0.00236468      -0.00278633      -0.00176960
C       -1.21107744       7.91922250       3.48017066       0.00213165      -0.00217429      -0.00831156
C       -2.42436229      10.04712975       3.50231030       0.00333739       0.00409201       0.00137442
C        5.00361654       1.48685628       3.49714438       0.00191805       0.00236297      -0.00739542
O        3.84998798       3.57545154       3.61320340       0.00015501      -0.00732516       0.00352634
C        1.23087903       7.91019225       3.65788561      -0.00111668       0.00223745      -0.00347169
C        0.05523528      10.03433024       3.49623810       0.00049141       0.00294713      -0.00487691
C        7.47392281       1.47843570       3.47813356      -0.00093022      -0.00065166       0.00451510
C        6.24743200       3.59512072       3.46557660      -0.00599777       0.00235115      -0.00648910
C        4.99657397       5.66803270       3.81298411      -0.00416087      -0.00066979       0.00012844
C        3.72424679       7.89308977       3.94433173       0.00692873       0.00427573       0.01178732
C        2.51496042      10.01039600       3.61165317      -0.00000608      -0.00265588      -0.00390040
C        9.94397266       1.49214069       3.62450286       0.00382366       0.00115493       0.00536674
C        8.70574822       3.62300872       3.49366182      -0.00723950      -0.00339627      -0.00475525
C        7.43761816       5.74944504       3.51200651       0.00388346       0.00533914       0.01442905
C        6.19525618       7.87251496       3.70600114      -0.00260660      -0.00084449       0.00199531
C        4.98393799      10.02823523       3.70322843       0.00025096       0.00557482       0.00080125
Au       1.22561780       3.51751370       7.04912825      -0.01464450       0.01277443      -0.00088086
O        1.13912797       3.32553943       8.98901884      -0.00953084       0.00892046       0.01337266
