52
Lattice="12.336457 0.0 0.0 -6.168228499999997 10.683685154694365 0.0 0.0 0.0 15.0" Properties=species:S:1:pos:R:3:forces:R:3 energy=-439.05806740646153 free_energy=-439.05806740646153 stress="-0.0009952839585980328 0.00409640506379815 -1.0252223739925822e-05 0.00409640506379815 0.0002347545725400169 1.4060982727535967e-05 -1.0252223739925822e-05 1.4060982727535967e-05 1.678888827292447e-05" pbc="T T T"
C        0.06723639       0.09793054       3.72426910      -0.00114502       0.00639719       0.00534671
C       -1.14342809       2.26130542       3.71266876       0.01088289       0.00057331       0.00952697
C       -2.39198783       4.38747164       3.50521663       0.00641307       0.00366983      -0.00042259
C       -3.65612397       6.51343507       3.48348876      -0.00601167      -0.00824566       0.00659493
C       -4.89010593       8.64033548       3.63552075       0.00176657       0.00171026      -0.00603716
C        2.54227736       0.11461359       3.62829372      -0.00052569       0.00004304      -0.00562868
C        1.33323641       2.21201691       3.96792727       0.00501780       0.00046474       0.00438689
C        0.04037487       4.48564408       3.77691147      -0.00543279      -0.00377575       0.00774826
C       -1.19698902       6.54517397       3.41993111      -0.00326657       0.00386841      -0.00003829
C       -2.41967162       8.65657559       3.45535662       0.00089712      -0.00108614       0.00657396
C        5.00114295       0.10091759       3.49723742      -0.00255286       0.00554110       0.00174258
C        3.82802764       2.22584513       3.70699928      -0.00915917      -0.00143324      -0.00322389
O        1.21225094       6.56774026       3.60189536       0.00459002      -0.00349310       0.00007161
C        0.05330649       8.64916992       3.46397594       0.00576989       0.00000300       0.00791057
C        7.48076905       0.08651689       3.50761330       0.00003929      -0.01262437       0.00573630
C        6.26414133       2.22007715       3.50721765      -0.00537575      -0.00564079       0.00945209
C        5.06513670       4.30335319       3.75799529       0.00064319      -0.00213076      -0.01806797
P        3.71982514       6.41981267       4.83628132       0.00100632       0.00644925      -0.01154259
C        2.50101000       8.61774979       3.71148941       0.00487312       0.00797305      -0.00192516
C        9.93962761       0.09455917       3.64800944       0.00085748       0.00374291      -0.00783135
C        8.72704934       2.23424823       3.52199438      -0.00073363       0.00501798       0.00690019
C        7.48519905       4.36990042       3.51639679      -0.00521485       0.00018737       0.00091972
C        6.21401168       6.47715697       3.74139743      -0.00191517       0.00372852      -0.00883018
C        4.98138174       8.62788514       3.82421028      -0.00957613      -0.00050628      -0.00539154
C        0.08539208       1.53718919       3.80524487       0.00831804       0.00752701       0.00516622
C       -1.14825087       3.69728660       3.65295164       0.00320271      -0.00403929       0.00166455
C       -2.42072195       5.80691635       3.44555567      -0.00197856       0.00237953       0.00357956
C       -3.65839312       7.93966796       3.51251609      -0.00044438      -0.00627983       0.00345219
C       -4.86954753      10.07269479       3.66502221      -0.00366736       0.00574388       0.00138107
C        2.57735336       1.54130568       3.76788406      -0.00356531      -0.00211482      -0.00573321
P        1.37925389       3.81590099       4.65569474      -0.00180072      -0.01092641      -0.00984357
C        0.00944871       5.88429810       3.58373483      -0.00482169      -0.00085118       0.00839640
C       -1.19466565       7.95819583       3.41351456       0.00209097       0.00186267       0.00084767
C       -2.40760822      10.08541928       3.51396536       0.00149798       0.00086908       0.00610775
C        5.01952177       1.52636149       3.55069952      -0.00941919       0.00330661       0.00505120
O        3.86820799       3.61118637       3.77142189       0.01065097      -0.00665132      -0.01096793
C        1.24847494       7.94861425       3.59617333       0.00887290       0.00250613       0.00996370
C        0.07109904      10.07418492       3.47512531      -0.00179125       0.00004412      -0.00269308
C        7.48864786       1.51821515       3.49319250      -0.00358851      -0.00883286      -0.00768362
C        6.26230094       3.63478303       3.55471572      -0.00037895      -0.00602137      -0.01098766
C        5.01786969       5.70679792       3.92219560       0.00696226      -0.00257725       0.00117097
C        3.73632875       7.93479865       3.96682833      -0.00934070       0.00138269      -0.00077264
C        2.53116511      10.04836853       3.59763883       0.00481246       0.00048845      -0.00463404
C        9.95979727       1.52944028       3.61324509       0.00607565       0.00203328      -0.00238200
C        8.71997321       3.66107874       3.49377054       0.00141459       0.01038381       0.00461538
C        7.45473183       5.78857233       3.56065952      -0.00341049      -0.00236411       0.00136207
C        6.21244746       7.91020591       3.76005357      -0.00234987       0.00519596      -0.00256347
C        4.99972313      10.06573650       3.72160391      -0.00241514       0.00054514       0.00145128
Au       1.39044119       3.97296953       6.96542786       0.00131309       0.00209410       0.00092857
O        1.36163550       4.29900842       8.98667166       0.00034923      -0.00175904       0.00362727
O        1.88179197       3.11433932       9.58709035      -0.00423132      -0.00756802      -0.01457873
H        2.62910856       3.49347182      10.08885015       0.00579511       0.00318918       0.01010272
