52
Lattice="12.336457 0.0 0.0 -6.168228499999997 10.683685154694365 0.0 0.0 0.0 15.0" Properties=species:S:1:pos:R:3:forces:R:3 energy=-439.9722555463458 free_energy=-439.9722555463458 stress="-0.00027253959785291754 -2.674946023584356e-05 1.3157297864265464e-05 -2.674946023584356e-05 -0.00202907386259483 -2.058425410222529e-05 1.3157297864265464e-05 -2.058425410222529e-05 -1.0360375715495939e-05" pbc="T T T"
C        0.01374175      -0.01302050       3.60078767      -0.00803007       0.00726815       0.00856391
C       -1.22992025       2.11478346       3.44622518       0.00626457       0.00124062      -0.00629286
C       -2.46777015       4.25934048       3.48838428       0.01292644       0.00468370       0.00510447
C       -3.70032964       6.38828807       3.63371623       0.00148532      -0.00049896      -0.00030811
C       -4.93773422       8.52054012       3.71450830      -0.00336203       0.00076893       0.00173144
C        2.46733328       0.01507713       3.62657337       0.00409418      -0.00062722      -0.00168976
C        1.20923278       2.12075316       3.57057644       0.00709294      -0.00441326       0.00192957
C       -0.02493937       4.17389517       3.66133252       0.00365938      -0.00382771       0.00459208
C       -1.21991570       6.36447994       3.77881881      -0.00356163      -0.00274096       0.00174243
C       -2.46278808       8.52128612       3.71411188       0.00057892      -0.01007548      -0.00052777
C        4.92176777      -0.01280907       3.60162652       0.00388273       0.00734289       0.01405585
C        3.72499078       2.12036604       3.57519319      -0.00059057       0.00252792      -0.00749738
P        1.38915377       6.27683678       4.61718899      -0.01423400      -0.00624878      -0.00444554
C       -0.01246280       8.55685693       3.89245351      -0.00457067       0.00469583       0.00456766
C        7.39221268       0.00714629       3.60432370      -0.00253347      -0.00906358       0.00037869
C        6.16391312       2.11554447       3.44659516      -0.00023648      -0.00806929       0.00599562
C        4.95936036       4.17415391       3.66741467      -0.00165255      -0.00987282       0.00208728
P        3.55065257       6.27941244       4.62619858      -0.00594415      -0.00683528       0.00433831
C        2.46777110       8.64537943       4.04009726       0.00395402       0.00612310      -0.00458385
C        9.87974949       0.00590731       3.60223068      -0.00137631       0.00083054       0.01049145
C        8.63561648       2.12711276       3.42303269      -0.00234077      -0.00482549      -0.00481528
C        7.40181260       4.25893290       3.49081970       0.00322655       0.01086122      -0.00116344
C        6.15639662       6.36389681       3.78217261      -0.00088033       0.00640367       0.00006095
C        4.94898142       8.55686823       3.89532157       0.00209488       0.00589783      -0.00924533
C        0.01461813       1.41614108       3.51036360       0.00471129       0.00209875       0.01493568
C       -1.23612689       3.52510484       3.47181994       0.00969134       0.00094031      -0.00444884
C       -2.46090582       5.67451419       3.61262852       0.00342469       0.00357519      -0.00583487
C       -3.70013683       7.81210062       3.69027013      -0.00239126      -0.00796583      -0.00736689
C       -4.92603976       9.96068325       3.65669984      -0.00615780       0.00282405      -0.00603956
C        2.46691050       1.46172736       3.58971358       0.00774287       0.00030963      -0.01789247
O        1.16977350       3.49039575       3.67318722      -0.00624641      -0.01017032       0.00132906
C       -0.01769677       5.56681885       3.89712786      -0.00747757      -0.00143615      -0.00000320
C       -1.22679314       7.80302457       3.81504303      -0.00025529      -0.00564877      -0.00597991
C       -2.47513411       9.96122971       3.65645062       0.00775177      -0.00268660      -0.00184942
C        4.91987629       1.41624440       3.51337160      -0.00141227       0.00492172       0.00824830
O        3.76548251       3.48990345       3.67957011      -0.01293018      -0.00231785       0.00461154
C        1.23844370       7.94665379       4.16966206      -0.00121257       0.00675135       0.00061292
C       -0.00997403       9.97302302       3.68878070      -0.00220612       0.00132341      -0.00529662
C        7.39309842       1.41895489       3.45765051      -0.00475000      -0.01481378       0.00076894
C        6.16990230       3.52554836       3.47531792       0.00315130      -0.00563461      -0.00921917
C        4.95416082       5.56715589       3.90294528       0.00320893      -0.00634211      -0.00215875
C        3.69772289       7.94793491       4.17231832       0.00591023       0.00444485       0.00168062
C        2.46766447      10.01723093       3.71982557       0.00064295       0.00362292       0.00243039
C        9.87790499       1.41783733       3.45777888       0.00376726      -0.00070859      -0.00646798
C        8.63521248       3.54994976       3.43330781       0.00816963       0.00638585       0.00179095
C        7.39666570       5.67392236       3.61416695      -0.00285548       0.01325688      -0.00202510
C        6.16306560       7.80225187       3.81690006      -0.00095906       0.00661711       0.00051856
C        4.94598170       9.97232662       3.68729128      -0.00562657       0.00594048       0.00343334
Au       2.46723848       5.84429508       6.73109596      -0.00315502      -0.00562786       0.01132504
O        2.39498940       5.11979202       8.75935490      -0.00890822      -0.00107197      -0.00219107
O        2.54487025       6.28967893       9.51842251      -0.00168905      -0.00292585       0.00140681
H        3.14032392       5.97380109      10.22649891       0.01011369       0.01279221      -0.00138865
