52
Lattice="12.336457 0.0 0.0 -6.168228499999997 10.683685154694365 0.0 0.0 0.0 15.0" Properties=species:S:1:pos:R:3:forces:R:3 energy=-439.06960547377105 free_energy=-439.06960547377105 stress="0.00011239717012224756 -0.00037939723007374647 -7.599858168871668e-05 -0.00037939723007374647 0.0042021341073470875 -3.781863370170338e-05 -7.599858168871668e-05 -3.781863370170338e-05 -1.874645501616346e-05" pbc="T T T"
C       -0.01187083       0.09966913       3.50228957       0.00028421       0.00147521      -0.00467794
C       -1.24706584       2.23750472       3.43765905       0.00130665       0.00385324      -0.00905609
C       -2.46564470       4.37349772       3.48380967      -0.00898745      -0.00141151      -0.00470752
C       -3.69892752       6.50716837       3.57215742       0.00144315       0.00399585      -0.00064434
C       -4.94301164       8.64839103       3.59574623      -0.00099908      -0.00017163      -0.00040291
C        2.44340119       0.11779050       3.48715272       0.00404426       0.00450167       0.00331552
C        1.18612287       2.26470771       3.49569901      -0.00325416       0.00308392       0.00597519
C       -0.02576016       4.37413105       3.40906487       0.00345642      -0.00180070      -0.00005874
C       -1.22692201       6.48804458       3.42418527      -0.00125137       0.00022517       0.00139136
C       -2.46914479       8.64084149       3.46481422      -0.00382093      -0.00114874      -0.00245583
C        4.92561340       0.09335725       3.55731124       0.00168103      -0.00466436       0.00277637
C        3.66577045       2.18997516       3.89333569      -0.00239523      -0.00074781      -0.00008019
O        1.16429192       6.50849417       3.44726364       0.00504086      -0.00455743       0.00089116
C       -0.00330612       8.61665390       3.47297207       0.00133422       0.00020874       0.00617337
C        7.39097818       0.07896299       3.53720289      -0.00356759      -0.00813742       0.00099407
C        6.16628482       2.22501020       3.77980946       0.00529985      -0.00289542      -0.00091564
C        5.05343440       4.38588957       4.30948294      -0.00041536      -0.00337982      -0.00825561
P        3.64340802       6.55560839       5.04355499      -0.00294589       0.00096107      -0.00632244
C        2.43395058       8.59724152       3.66586044      -0.00271968       0.00507271      -0.00086177
C        9.85098234       0.07841210       3.52315943      -0.00928697       0.00337754       0.00460347
C        8.62481876       2.22583745       3.54670141      -0.00252824      -0.00191062       0.00274253
C        7.42128115       4.36752983       3.74415571      -0.00304995       0.00447347      -0.00659260
C        6.21094441       6.53114237       3.95296959       0.00576744      -0.01254154       0.00258054
C        4.92134749       8.64223648       3.79172370       0.00146009      -0.00082823       0.00573152
C       -0.01131819       1.53827678       3.44504883      -0.00218859       0.00148065       0.00942912
C       -1.23069996       3.66953507       3.42524315      -0.00199789       0.00275085      -0.00692459
C       -2.46413561       5.78603705       3.48172244      -0.00513635       0.00150750      -0.00974474
C       -3.70773016       7.93450003       3.53426415      -0.00414703       0.00207485      -0.00147812
C       -4.94790495      10.07749471       3.50627904       0.00369921       0.00473960      -0.00089339
C        2.42477120       1.55028857       3.58473769      -0.00501374       0.00468701       0.00590347
O        1.15880157       3.64960839       3.42130219       0.00724537       0.00196387       0.00107361
C       -0.02161394       5.78509546       3.41254233      -0.00005887      -0.00278043       0.00028749
C       -1.23962448       7.91894498       3.43830705      -0.00078307       0.00108842       0.00855468
C       -2.48240144      10.07710883       3.49168364       0.00103183      -0.00189301      -0.00102798
C        4.91999594       1.51765643       3.74751852       0.00204492      -0.00472914       0.00664658
P        3.57496275       3.66064755       4.82689929       0.00347807       0.00484814       0.00416965
C        1.19405356       7.89006045       3.54865416       0.00303895      -0.00121671      -0.01310811
C       -0.00736518      10.05586667       3.51892638      -0.00044854      -0.00222357      -0.00518460
C        7.38973478       1.51295787       3.60724364       0.00160940      -0.00924087       0.00259711
C        6.20448787       3.64298420       3.93622394       0.00225451       0.00029315      -0.00261692
C        5.04739906       5.81298192       4.33899012      -0.00523405      -0.00555292      -0.01275434
C        3.67800678       7.95957863       3.98966692      -0.00250264       0.00548389      -0.00500995
C        2.44512870      10.03144636       3.54182044      -0.00762106      -0.00080390       0.00367577
C        9.86163198       1.51581097       3.47990211      -0.00018418       0.00207351       0.00264275
C        8.63543299       3.65400048       3.57556520      -0.00901163      -0.00046940       0.00509922
C        7.42115367       5.79863169       3.74602320       0.00885466       0.00019135       0.00000504
C        6.17286314       7.94350057       3.79727920       0.00423954      -0.01129052       0.00237433
C        4.92300181      10.06239370       3.57753842      -0.00474645       0.00296611       0.00104235
Au       2.98034806       3.47593377       7.04778516      -0.00085856       0.00699948       0.00856925
O        2.25954803       3.19691689       8.94700214       0.01516956       0.00383180       0.00333104
O        3.13131663       3.92410408       9.80371310       0.01127006       0.01281600      -0.00413978
H        2.49146786       4.53227037      10.22234835       0.00010026      -0.00662907       0.00533758
