50
Lattice="12.336457 0.0 0.0 -6.168228499999997 10.683685154694365 0.0 0.0 0.0 15.0" Properties=species:S:1:pos:R:3:forces:R:3 energy=-434.9352928076643 free_energy=-434.9352928076643 stress="-0.0004947891153230461 0.0007188092093240282 1.6310195574654356e-05 0.0007188092093240282 -0.0029082120307332175 -5.035142223422938e-06 1.6310195574654356e-05 -5.035142223422938e-06 2.16840460769575e-05" pbc="T T T"
C        0.00279048      -0.01091454       3.73193910       0.00606100       0.00928726       0.01463862
C       -1.22384688       2.13665835       3.73040578      -0.00326340      -0.00990019      -0.00261735
C       -2.48193572       4.27382468       3.59788549       0.00344651      -0.00246068       0.00311872
C       -3.71455903       6.40672912       3.56789997       0.01064189      -0.00426320       0.01042470
C       -4.93415500       8.54048992       3.64428390       0.00638595       0.00778076      -0.00368314
C        2.48127563      -0.00546728       3.72459954       0.00390386      -0.00196421      -0.00140518
C        1.25966551       2.09932306       3.94441739       0.00444202       0.00426882      -0.01029997
C       -0.04323906       4.28932528       3.85449325      -0.00750839       0.00125427      -0.00353071
C       -1.23054345       6.41295011       3.65044031      -0.00792422       0.01203424       0.00031701
C       -2.46361446       8.54315074       3.61886617      -0.01057899      -0.00318146      -0.00336390
C        4.93978226       0.00296099       3.63587820      -0.00376162      -0.00741952       0.01489020
C        3.72821207       2.15944902       3.79877671      -0.01074128      -0.00087973      -0.00092921
B        1.33404713       6.40121599       3.94301007      -0.00126671       0.00163211       0.00044157
C        0.00464820       8.55284045       3.69085457       0.00154160      -0.01007264      -0.00927562
C        7.40855610       0.00722778       3.63261460       0.00326787      -0.00676381      -0.00106104
C        6.17203719       2.13506592       3.58570077       0.01026881      -0.00463106      -0.00007664
C        4.90386430       4.22594300       3.72059192      -0.00591949       0.00065005       0.00884400
C        3.67131603       6.39891887       3.93784844      -0.01204552      -0.00381604       0.00796478
C        2.47586034       8.57222659       3.79167102      -0.00233944      -0.00287577      -0.00698876
C        9.87977756       0.00545451       3.68638721      -0.00686340       0.00654663      -0.01133846
C        8.64273448       2.13871348       3.58561978       0.00473818       0.01066587       0.00938854
C        7.38504615       4.27264143       3.55317870       0.00516554      -0.00078787      -0.00076442
C        6.13656803       6.39954139       3.63959908       0.01298970      -0.00211127      -0.00511030
C        4.93557377       8.53296431       3.72957752      -0.00240301       0.00226848       0.00433405
C        0.00573333       1.41560967       3.80836471       0.00353490       0.00593095      -0.00089939
C       -1.24663872       3.55823108       3.71420163      -0.00525037      -0.01173474       0.00408632
C       -2.47943926       5.69922551       3.58513014       0.00567547      -0.00154240       0.00755621
C       -3.70267531       7.83129048       3.60153470      -0.00233705      -0.00400898      -0.00065959
C       -4.92938117       9.96278383       3.70352459       0.00731389       0.00817878      -0.00229003
C        2.49208267       1.41355161       3.84337063      -0.00363052      -0.00446179      -0.00681829
B        1.20475767       3.54508716       4.16375376       0.00454225       0.00385566      -0.00971634
C       -0.00809430       5.69652633       3.78512516      -0.00830852       0.00505368       0.00094584
C       -1.22867517       7.83538038       3.64408319      -0.00792455       0.00865157      -0.00400064
C       -2.45994174       9.96618263       3.65454000      -0.00499932      -0.00853522      -0.00497751
C        4.94758156       1.42546760       3.65059904       0.00008936      -0.00091878       0.00620622
N        3.76218648       3.51267734       3.89699638      -0.01661893       0.00260976      -0.00154011
C        1.25228315       7.87768140       3.80011162       0.00298219      -0.00837348      -0.00625856
C        0.00601833       9.97718962       3.63812851       0.00079468      -0.01138007       0.00506220
C        7.40925483       1.42786709       3.58148321       0.01560847      -0.00316555      -0.00224517
C        6.15815770       3.55273017       3.58784840       0.00120286      -0.00052807       0.00250484
C        4.86671510       5.69304288       3.74450632       0.00039360       0.00512968       0.00104050
C        3.68990523       7.80417559       3.82707121      -0.00729076      -0.00107489      -0.00604944
C        2.47812424       9.98736262       3.69340952      -0.00104397      -0.00435896       0.00076366
C        9.87930463       1.42702544       3.65356513      -0.00567931       0.00406103      -0.00515947
C        8.62688472       3.56286023       3.55898095       0.00365484       0.00707459       0.00437266
C        7.37540830       5.69710563       3.57190736       0.01615418      -0.00512179      -0.00170334
C        6.15992524       7.82348723       3.66467730       0.00686724       0.00330983       0.00171877
C        4.93794433       9.95860979       3.71073758      -0.00221854       0.01003950       0.01387256
Cd       2.46023457       5.05205701       5.39474789       0.00521920       0.00820151      -0.00231790
O        2.41911822       4.99673582       7.35958802      -0.00696875      -0.00215290      -0.00741151
