50
Lattice="12.336457 0.0 0.0 -6.168228499999997 10.683685154694365 0.0 0.0 0.0 15.0" Properties=species:S:1:pos:R:3:forces:R:3 energy=-426.3224259594561 free_energy=-426.3224259594561 stress="-0.0006087248333044457 0.0014907292486462057 4.131603124049393e-05 0.0014907292486462057 -0.006077290054209861 4.182741349038642e-06 4.131603124049393e-05 4.182741349038642e-06 2.7790171229925705e-05" pbc="T T T"
C        0.00647119      -0.02984907       3.70395013       0.00029311      -0.00655342      -0.00252490
C       -1.20825838       2.13330185       3.52488882      -0.00060802       0.00150817      -0.00275895
C       -2.44229690       4.26643045       3.71781636      -0.00357847       0.00437461       0.00658308
C       -3.68742739       6.38420522       3.89748586      -0.00254818       0.00239974      -0.00941180
C       -4.93916392       8.50928121       3.91481040      -0.00390366      -0.00716848      -0.00189228
C        2.47495474      -0.07449392       3.60066938      -0.00171613       0.00317985       0.00088883
C        1.24214405       2.00389985       3.12246342      -0.00485880       0.00008564       0.00470411
C        0.00149816       4.31259842       3.46866619      -0.00250375       0.00562654      -0.00129973
C       -1.19496292       6.39004124       3.95285269       0.00358336      -0.00059560      -0.00058418
C       -2.45595675       8.51573096       3.90809632       0.00461105      -0.00220015      -0.00055785
C        4.94448321      -0.02513719       3.65342999       0.00349256      -0.00358238      -0.00873901
C        3.71514624       1.98952182       3.04702790       0.00666796       0.00101723       0.00267919
B        1.38205470       6.40420775       4.23148859      -0.01193470       0.01457851      -0.00418157
C        0.00293446       8.56559696       4.00822646       0.00703261      -0.00276421      -0.00005856
C        7.40201768       0.03127085       3.79083595      -0.00155698       0.00073988       0.00191652
C        6.18417080       2.12061681       3.41808285       0.00045878       0.00589986      -0.00031034
C        5.00002541       4.28506597       3.27831604       0.00310713       0.00190759       0.01009018
P        3.34937780       6.19654810       4.29627594       0.00052953       0.01047676      -0.00636454
C        2.45863278       8.64483717       4.11379320       0.00134994      -0.00065558      -0.00374716
C        9.88952146       0.02803077       3.82761654       0.00381628      -0.00948098      -0.00219228
C        8.65384447       2.14222105       3.64353317       0.00337007      -0.00774278      -0.01507027
C        7.42102165       4.26256993       3.64359504       0.00139408       0.00189388       0.00623753
C        6.15794442       6.37667860       3.89255160      -0.00271971       0.00304011      -0.00144260
C        4.93411995       8.54645278       4.04055780      -0.00389358      -0.00224780       0.00216072
C        0.00948018       1.38286912       3.45045289      -0.00341203      -0.00288397       0.00129605
C       -1.21032963       3.55885517       3.55320513      -0.00220502       0.00620311       0.00720858
C       -2.44066135       5.68286684       3.86404308      -0.00119511       0.00526234       0.00058701
C       -3.69555701       7.80458682       3.92657975       0.00090472      -0.00121207       0.00708320
C       -4.93316625       9.92517847       3.76105143      -0.00055132      -0.00713788      -0.00551775
C        2.47876543       1.30124197       3.24196615       0.00017180       0.00543534      -0.00205888
P        1.29416143       3.63012058       2.47973785      -0.00453139      -0.00512842       0.00428081
C        0.05264988       5.67368548       3.88616779       0.00564478       0.00121852       0.01093499
C       -1.22108045       7.81793034       3.98805761       0.00797571      -0.00256606      -0.00511116
C       -2.45446259       9.92884646       3.73796605      -0.00001342       0.00079913       0.00422923
C        4.95283748       1.37818546       3.36363755       0.00566814      -0.00001458      -0.00014830
P        3.66760404       3.59458397       2.33187975       0.01042356       0.00146754       0.01152654
C        1.24546509       7.91711169       4.13854945       0.00438908      -0.00026061       0.00198538
C        0.00335109       9.98623610       3.83411881       0.00240495      -0.00298265       0.00446542
C        7.41023060       1.43584154       3.61505193      -0.00240998       0.00114785       0.00042999
C        6.20203329       3.54510231       3.41072696       0.00231319       0.00508688       0.00474295
C        4.94524746       5.61936419       3.75587761       0.00163111       0.00345824       0.00160443
C        3.67575119       7.92004819       4.19569396      -0.00286918      -0.00109930      -0.00702907
C        2.47401882      10.04224279       3.93051333      -0.00023337      -0.00286720      -0.00348536
C        9.89461261       1.43872635       3.66946891       0.00451027      -0.00932669      -0.00482101
C        8.65728823       3.56001450       3.66500418       0.00051528      -0.00440642      -0.00382910
C        7.40776583       5.67746688       3.81386094      -0.00241546       0.00313821       0.00068503
C        6.15976226       7.80284219       3.98515364      -0.00803810       0.00000633      -0.00402681
C        4.94470084       9.97284939       3.87853942       0.00214239      -0.00681209       0.00411870
Cd       2.10035948       5.75433315       6.52379055      -0.01637399       0.00538372      -0.00033988
O        2.01826832       5.29267831       8.40479549      -0.00433111      -0.00564623      -0.00293512
