49
Lattice="12.336457 0.0 0.0 -6.168228499999997 10.683685154694365 0.0 0.0 0.0 15.0" Properties=species:S:1:pos:R:3:forces:R:3 energy=-429.3575844279044 free_energy=-429.3575844279044 stress="-0.006234080673121149 -0.003470587587172841 5.584557976747941e-06 -0.003470587587172841 -0.004152334339420435 6.342635538421975e-06 5.584557976747941e-06 6.342635538421975e-06 2.2277946771493964e-06" pbc="T T T"
C       -0.00424129      -0.01064747       3.81749676       0.00429506       0.00797985      -0.00477019
C       -1.25884287       2.11154769       3.81198654       0.00057534       0.00483418      -0.00780248
C       -2.47530407       4.26244452       3.74624854      -0.00365502      -0.00572403       0.00478153
C       -3.67835335       6.41190156       3.70899503      -0.00782959       0.00019642       0.00229807
C       -4.91066523       8.55635807       3.77209723      -0.00198222      -0.00061693       0.00249881
C        2.46614905       0.01055317       3.80388800      -0.00088831      -0.00328665      -0.00136666
C        1.18763692       2.13470414       3.91641300      -0.00462693       0.00432045       0.00405005
C       -0.03822728       4.19588448       4.03924287      -0.00421843      -0.00352487       0.00108607
C       -1.22057182       6.39077532       3.90976541      -0.00179235      -0.00376131      -0.01121255
C       -2.45200197       8.54811229       3.81653235       0.00234783       0.00453868      -0.00225191
C        4.92946178       0.01127817       3.69480376       0.00184070      -0.00793143       0.00117774
C        3.66073557       2.10749570       3.41558198      -0.00295194      -0.00899408       0.00915438
B        1.23583641       6.41847126       4.15104421       0.01246542       0.00162260       0.00367162
C       -0.00260474       8.55952750       3.89238438       0.00228307       0.01033503      -0.00663330
C        7.39605160       0.00427573       3.71560359      -0.00542470      -0.00036524      -0.00235511
C        6.16066509       2.13852343       3.45319046       0.00640203      -0.00436069      -0.00819270
C        5.00000282       4.32270269       3.23001185       0.00902537       0.00673980      -0.00331563
C        3.77530072       6.41379135       3.83078489       0.00544640      -0.00585360      -0.00267298
C        2.47707436       8.55640012       3.89953909      -0.00127349      -0.00427274       0.00122530
C        9.86355574      -0.00978153       3.76501570      -0.00554533      -0.00405422      -0.00340996
C        8.62347290       2.13046261       3.63174537       0.00513165       0.00339436       0.01188690
C        7.41929268       4.28099369       3.51805504       0.00288375       0.00551796      -0.01100353
C        6.21298596       6.44098036       3.58171808       0.00072252      -0.00001394       0.00101668
C        4.95390638       8.54433515       3.78696547       0.00224086      -0.00485786      -0.00497173
C       -0.02723348       1.40615591       3.84848813      -0.00145395       0.00960807       0.00145015
C       -1.26623535       3.52270076       3.85175647      -0.00207330      -0.00090563      -0.00448016
C       -2.46018350       5.68917543       3.78350835      -0.00958388      -0.00645817      -0.00403958
C       -3.68081549       7.83800407       3.76743149      -0.00193844       0.00335060       0.01450437
C       -4.92730847       9.97411762       3.82181339      -0.00056287       0.00145705       0.00611536
C        2.44625332       1.43203787       3.73517153      -0.00565854      -0.00246602       0.00868665
N        1.10834358       3.46415300       4.21113878      -0.00107459       0.00319232       0.00279100
C       -0.01716761       5.63978672       4.04865040       0.00172140      -0.00229487       0.00235303
C       -1.21969776       7.82732300       3.88009746       0.00324717       0.00439331      -0.00258488
C       -2.46325398       9.97730096       3.77884743       0.00046025      -0.00045189      -0.00276475
C        4.92112493       1.43212296       3.50802813       0.00221014      -0.01344497      -0.00189075
P        3.51570760       3.65648547       2.59939052      -0.00513434       0.01503625      -0.00086132
C        1.24410893       7.87595097       3.98633665      -0.00297187       0.00524689      -0.00859498
C       -0.00788001       9.98381052       3.76704823      -0.00040867       0.00281254      -0.00007083
C        7.38850842       1.42486973       3.58961446       0.00592420      -0.00044999      -0.00096581
C        6.18745058       3.56832805       3.36793571       0.00553075       0.00229200      -0.00879016
C        4.96735935       5.75031197       3.49417216       0.00843549       0.00171369       0.00056786
C        3.71131101       7.80656885       3.85192985       0.00091223      -0.00824883       0.00633694
C        2.46557396       9.97204878       3.78940822      -0.01002344      -0.00430693       0.00194617
C        9.85037507       1.40969953       3.72677556       0.00171257      -0.00029987       0.01244768
C        8.63113849       3.55766171       3.61844381      -0.00128298       0.00251825       0.01099772
C        7.42994342       5.70893001       3.58501775      -0.00269271       0.00145235       0.00243574
C        6.19501222       7.84962501       3.72039339       0.00145512      -0.00482062      -0.00249361
C        4.93291427       9.95779593       3.79594273       0.00446193      -0.00109662       0.00089202
Cd       2.63072848       4.92249430       4.91826935      -0.00668335       0.00030937      -0.00687630
