52
Lattice="12.336457 0.0 0.0 -6.168228499999997 10.683685154694365 0.0 0.0 0.0 15.0" Properties=species:S:1:pos:R:3:forces:R:3 energy=-445.6805438465072 free_energy=-445.6805438465072 stress="0.0033589618144077927 -0.0008155114662813883 7.698889666766335e-05 -0.0008155114662813883 -0.0026680115309439183 7.349111091922371e-07 7.698889666766335e-05 7.349111091922371e-07 -2.1757934127236248e-05" pbc="T T T"
C        0.00448763      -0.01006823       3.65110773       0.00363205      -0.00355687       0.00265089
C       -1.22459684       2.13721029       3.70945183       0.00607993      -0.00127020       0.00086673
C       -2.45885430       4.26101657       3.66186739       0.00467147       0.00538846      -0.00185580
C       -3.70581555       6.39088807       3.56172537       0.00016934      -0.01047103      -0.00030231
C       -4.93623294       8.52491433       3.55622124      -0.00426729       0.00082835       0.00373831
C        2.46608185      -0.05827204       3.62803226       0.00100038       0.00967531      -0.00103619
C        1.26187968       2.08840343       3.73990664      -0.00327005      -0.00239618      -0.00182685
C        0.06647758       4.27552545       3.78926544      -0.00649478      -0.00210655       0.00005924
C       -1.24821455       6.40514077       3.68787217       0.00025626       0.00175623       0.00122296
C       -2.46829868       8.52260907       3.60177294       0.00062145       0.00379701       0.00327851
C        4.92827151      -0.01787950       3.69235453      -0.00370766       0.00444057       0.00456956
C        3.66662142       2.08843775       3.74274490      -0.00489061      -0.00885274       0.00038040
C        1.12679786       6.44568972       4.19903508      -0.00112876       0.01143930       0.00228925
C       -0.00825537       8.53710763       3.80294542       0.00948534       0.00111625      -0.00581742
C        7.39566616      -0.00260599       3.77766747      -0.00242401      -0.00915942       0.00156309
C        6.14143549       2.14332458       3.71489007       0.00136940      -0.00438999      -0.00251745
C        4.83587876       4.29941001       3.72824149       0.01122171      -0.00074426      -0.00237671
N        3.81118378       6.48029712       4.01381843      -0.00269724      -0.00070515       0.00597677
C        2.47981930       8.53752880       3.93255624       0.00681063      -0.00018217      -0.00972527
C        9.86896298      -0.00095426       3.74809634      -0.00616166       0.00010848      -0.00246565
C        8.62658114       2.13528392       3.70980606       0.00204081       0.01556483      -0.00301660
C        7.36950523       4.26546938       3.64056159       0.00624335      -0.00165895      -0.00534567
C        6.16766236       6.41215037       3.59079359       0.00647333      -0.00005972      -0.00140254
C        4.94758362       8.55066923       3.69338374      -0.01207868      -0.00310460       0.00270326
C        0.01237251       1.42043934       3.70033164       0.00360892      -0.00208654      -0.00099230
C       -1.18935178       3.56445130       3.71394537      -0.00234812      -0.00109086      -0.00944967
C       -2.46966411       5.68328208       3.61851145       0.00263373      -0.00129084      -0.00323136
C       -3.70115741       7.81149104       3.55176735      -0.00319384      -0.00398692       0.00135859
C       -4.94076795       9.94262589       3.60061771       0.00374499       0.00523655       0.00366830
C        2.46488157       1.35306315       3.70237671      -0.00576612       0.00158521       0.00001037
B        1.49063400       3.59436065       3.82531523       0.00356314      -0.00863092       0.00270158
C        0.00337935       5.71105848       3.86395528       0.00161357       0.00177343      -0.00183061
C       -1.23459062       7.82125926       3.68524034       0.00436236       0.00094809       0.01099891
C       -2.46327345       9.93819234       3.63154612      -0.00150081       0.00787803       0.00094464
C        4.91462194       1.41746789       3.71672692      -0.00333687      -0.00068924       0.00032928
B        3.43005391       3.59637331       3.80388477       0.00435705      -0.01574714       0.00204899
C        1.23029160       7.80091723       3.99016664       0.01107144       0.00866031      -0.00107616
C       -0.00509595       9.95893745       3.75348509      -0.00416358      -0.00079526       0.00335532
C        7.38505591       1.42671990       3.73016137       0.00303136      -0.00124933       0.00084834
C        6.09551887       3.57701556       3.68972430       0.00809515      -0.00231519      -0.00247799
C        4.91447319       5.74050196       3.74234223       0.00475603       0.00570640       0.00607384
C        3.73286312       7.82179267       3.88206196      -0.00628345      -0.00042279       0.00166253
C        2.46851686       9.95444513       3.81895313      -0.00221411      -0.00524675       0.00025500
C        9.86985839       1.42639179       3.71935478       0.00057294       0.00396995      -0.00656374
C        8.62421555       3.55912846       3.66532866       0.00575878       0.01458371      -0.00675164
C        7.38876661       5.68436808       3.57780187       0.00595651      -0.00850542      -0.00434754
C        6.16624546       7.82668027       3.59136091      -0.00726955      -0.00060939      -0.00551797
C        4.93665413       9.97057122       3.69176593      -0.00257721      -0.00301535      -0.00287720
Cd       2.44342191       5.13313763       5.40619178      -0.00610665       0.00347547       0.01271690
O        3.30069789       4.96644454       7.34216842      -0.01274599      -0.00595711       0.01045471
O        2.23582155       5.18994999       8.33942882      -0.00467433       0.00370212      -0.00452544
H        2.78443513       5.10776772       9.14182460      -0.01390004      -0.00133716       0.00060386
