50
Lattice="12.336457 0.0 0.0 -6.168228499999997 10.683685154694365 0.0 0.0 0.0 15.0" Properties=species:S:1:pos:R:3:forces:R:3 energy=-430.4992136326823 free_energy=-430.4992136326823 stress="0.0012407515622771528 -0.00024034777987692218 8.314200448889824e-06 -0.00024034777987692218 -0.005850752161908067 4.778183008003586e-06 8.314200448889824e-06 4.778183008003586e-06 -2.3210052546043654e-05" pbc="T T T"
C        0.00364474      -0.01667694       3.56776443       0.00489235       0.00719584      -0.00576197
C       -1.21786094       2.14152545       3.48551451      -0.00066738       0.00609588      -0.00714562
C       -2.47102143       4.26915217       3.62074475      -0.01143130      -0.00854305      -0.00079316
C       -3.71654749       6.39429395       3.71191379       0.00475364       0.00062191       0.00262645
C       -4.93870578       8.51861810       3.69191277      -0.00422225       0.00255141      -0.00320113
C        2.46945111      -0.07793465       3.62994802      -0.00390407       0.00091521      -0.00221383
C        1.27713228       2.03970933       3.34321725       0.01010760      -0.00411185       0.01201073
C       -0.00557561       4.31205878       3.59196190      -0.00408270       0.00693479       0.00179988
C       -1.25461690       6.40177004       3.88402898      -0.00054289      -0.00467976      -0.00014133
C       -2.46170341       8.51568812       3.80584675      -0.00301267       0.00135175      -0.00556855
C        4.93678432      -0.02463353       3.74388838      -0.00761483       0.00084594       0.00132062
C        3.67562944       2.05190846       3.54277419       0.00924443       0.00646373      -0.00013793
B        1.15926914       6.45256324       4.31717607      -0.00996639       0.00386886       0.00394712
C        0.00144949       8.55455892       3.96906029       0.00048016      -0.00150750      -0.00091764
C        7.40376069       0.01541592       3.77606290      -0.00024590       0.00019748      -0.00320562
C        6.14447858       2.15034571       3.63706720       0.00274756      -0.00091300      -0.00044381
C        4.85372020       4.31245499       3.61191752       0.00689351       0.00268650       0.00006053
N        3.76145425       6.46295662       4.09296375       0.00004953       0.00054184       0.00478875
C        2.49357715       8.57342648       3.99277307      -0.00163013      -0.00775292       0.00092431
C        9.87610357       0.01312924       3.67574776       0.00249466      -0.00058710       0.00559757
C        8.63120862       2.14518757       3.60299833      -0.00515703      -0.00105723       0.00559767
C        7.36967324       4.27495477       3.61966465      -0.00012328      -0.00243776       0.00294816
C        6.14959773       6.41592660       3.69192707       0.00897307      -0.00287097      -0.00415036
C        4.93883221       8.54645133       3.76284158       0.00085315      -0.00170682      -0.00870128
C        0.01731670       1.41808992       3.44611384       0.00428835       0.00649293      -0.00270697
C       -1.20867519       3.56210246       3.53559790      -0.00539270       0.00524910       0.00263376
C       -2.48319277       5.68681250       3.73444147      -0.00084196      -0.00980249       0.00226868
C       -3.70320072       7.81053509       3.74116262      -0.00277900       0.00398377       0.00440901
C       -4.94281294       9.93402417       3.63072553      -0.00238376       0.00256987      -0.00845521
C        2.47594431       1.32790014       3.50313938       0.01171659       0.00015369       0.00869318
S        1.62224857       3.73811368       3.06754424      -0.00603198      -0.00638740      -0.00073844
C       -0.02960597       5.67389347       3.92632410       0.00421078       0.00537640      -0.00209053
C       -1.22627091       7.82077857       3.91540226      -0.00116733      -0.00184047       0.00071894
C       -2.45582566       9.92801008       3.73925047      -0.00905031       0.00100289       0.00059896
C        4.92465567       1.40707437       3.64877881       0.00452991       0.00132651      -0.00405891
B        3.54985594       3.52385469       3.49504707       0.00162533       0.00291972       0.00372877
C        1.25779202       7.89079989       4.11130924      -0.00105376      -0.00867436      -0.00178846
C        0.00222195       9.97514113       3.83702354      -0.00388028       0.00170617      -0.00107380
C        7.39051085       1.43935826       3.66644887      -0.00070089       0.00044361       0.00409727
C        6.10373219       3.58389512       3.60998256       0.00340036      -0.00181020      -0.00423142
C        4.89124758       5.74210432       3.76886204       0.00610159       0.00592582      -0.00600991
C        3.72557234       7.82579240       3.95726799      -0.00211074      -0.00060408      -0.00549429
C        2.48099238       9.99020213       3.81505386      -0.00018413      -0.00635599       0.00432850
C        9.88021905       1.43840567       3.57612356      -0.00251496       0.00298605      -0.00296348
C        8.61823338       3.56613364       3.59830527      -0.01026867      -0.00613175       0.00853795
C        7.37614308       5.69217993       3.65726223       0.00934083      -0.00315325      -0.00218066
C        6.16019393       7.82555719       3.71022543       0.00021921      -0.00258931      -0.00794881
C        4.93451108       9.96880455       3.66630218       0.00703493       0.00211698       0.00109564
Cd       2.55637245       5.39815902       5.70668755      -0.00333798       0.00491197      -0.00818233
O        2.27107039       4.52969352       7.43016565       0.00034175      -0.00391936       0.01757298
