51
Lattice="12.336457 0.0 0.0 -6.168228499999997 10.683685154694365 0.0 0.0 0.0 15.0" Properties=species:S:1:pos:R:3:forces:R:3 energy=-439.5121613979471 free_energy=-439.5121613979471 stress="-0.003336468048294443 -0.0023806486113625114 -3.4001081904915245e-05 -0.0023806486113625114 -0.0033683062788763384 4.4168432854695664e-05 -3.4001081904915245e-05 4.4168432854695664e-05 2.7752098784700226e-05" pbc="T T T"
C       -0.00048362       0.01330995       3.58873726      -0.00158202      -0.00112499      -0.00481522
C       -1.26008574       2.12847691       3.67052749       0.00053286       0.00029768       0.01050959
C       -2.50039099       4.27799448       3.73297858      -0.00258741       0.00588387       0.00633420
C       -3.70100456       6.42264942       3.67459998      -0.00358002      -0.00022018       0.00135905
C       -4.93176655       8.55898788       3.54709087      -0.00345510      -0.00322025      -0.00134609
C        2.46956523       0.01624864       3.75181632      -0.00194179       0.00506771       0.00514550
C        1.21369569       2.13515879       3.82812576      -0.00298071       0.00082490       0.00820903
C       -0.07517989       4.22628898       3.93710188      -0.00005318      -0.00160297      -0.00726413
C       -1.24548930       6.40773494       3.93929551       0.00227346      -0.00386052       0.00488019
C       -2.45567150       8.55410417       3.79347439       0.00447196       0.00173833       0.00108900
C        4.93340724       0.01649609       3.82038297       0.00139541       0.00109740      -0.01006686
C        3.68910109       2.18234695       3.86817069      -0.00195692       0.00198417       0.00264672
B        2.39379267       4.39170398       4.20732982       0.00496197      -0.01317371       0.00140120
P        1.54675374       6.20956184       4.45849653      -0.00024976       0.00591339      -0.01084379
C        0.02791197       8.54600305       3.87953144       0.00197103      -0.00369616      -0.00324729
C        7.39201157       0.02001817       3.70176138      -0.00291686       0.00003032       0.00043722
C        6.15671961       2.15279513       3.75730325      -0.00365063       0.00028398       0.00794920
C        4.93101127       4.29454463       3.62941389       0.00574061      -0.00030943      -0.00411467
S        3.62321609       6.35369264       2.44291688       0.00803835       0.00790405       0.01146748
C        2.47950346       8.59134788       3.51803362       0.00115673       0.00214030       0.00021367
C        9.86525788       0.02018835       3.53219112      -0.00232911      -0.00152998      -0.00005354
C        8.61640944       2.14765799       3.65854268       0.00071194       0.00441830      -0.00998490
C        7.38900707       4.28903167       3.64147104      -0.00223506       0.00146469       0.00198349
C        6.17697108       6.42689678       3.38094578      -0.00280364      -0.00098953       0.00029342
C        4.94481848       8.57154315       3.31314488      -0.00340764      -0.00041773      -0.00453274
C       -0.01827329       1.42469793       3.69077319       0.00044649       0.00000390      -0.00372159
C       -1.29200252       3.54004973       3.76331512      -0.00304528       0.00228342      -0.00141744
C       -2.48282929       5.70262086       3.78772973      -0.00111473       0.00331843       0.00016446
C       -3.69360139       7.84788108       3.67212166       0.00049954       0.00004350       0.00657914
C       -4.93023880       9.98680730       3.62468151      -0.00118390      -0.00084795      -0.00014320
C        2.46382668       1.43966741       3.83158585      -0.00359067       0.00547272       0.00055465
C        1.15936533       3.53647538       3.97440711      -0.00011119       0.00001993       0.00635334
C       -0.07472381       5.63165263       4.09654677       0.00401447      -0.00382565      -0.00156013
C       -1.22114425       7.83960753       3.90011794       0.00382955      -0.00460305       0.00374846
C       -2.46417152       9.98277242       3.79518563       0.00108694       0.00494610      -0.00060849
C        4.92397626       1.44741386       3.81867943      -0.00426768       0.00075080      -0.00667197
C        3.69581517       3.62623279       3.88807596       0.00635909       0.00061406      -0.00239563
C        1.29961717       7.87519327       3.85925611       0.00227901       0.00176846      -0.00757150
C        0.00185540       9.98166686       3.80023674      -0.00027050      -0.00321297      -0.00241777
C        7.38650071       1.44020883       3.70424900      -0.00144953       0.00281820       0.00371532
C        6.16283052       3.57637164       3.68595051       0.00080861      -0.00079227       0.00153937
C        4.99200333       5.66934579       3.24888667       0.00263017      -0.00163340       0.00092565
C        3.69885302       7.93004080       3.16984446      -0.00202626       0.00275624      -0.00036490
C        2.46286917      10.00890303       3.57002552      -0.00233241      -0.00031304       0.00404021
C        9.84946655       1.43328680       3.61113534       0.00133995       0.00000995      -0.00056933
C        8.61241563       3.56976823       3.67468325      -0.00115103       0.00581479       0.00232867
C        7.40328280       5.71255193       3.57380235      -0.00430364      -0.00052609      -0.00057190
C        6.17757836       7.85199356       3.36516599      -0.00627958      -0.00271509      -0.00235050
C        4.93626891       9.99514035       3.47510897      -0.00299404      -0.00184606      -0.00113314
Cd       2.46770781       5.18337875       6.61409607       0.00432213      -0.00919242       0.00293419
O        2.78312287       5.22328040       8.52744631       0.01098003      -0.01001616      -0.00903569
