51
Lattice="12.336457 0.0 0.0 -6.168228499999997 10.683685154694365 0.0 0.0 0.0 15.0" Properties=species:S:1:pos:R:3:initial_magmoms:R:1:forces:R:3 energy=-432.0189697752437 free_energy=-432.0189697752437 stress="-0.001163067596620771 0.001338196152710775 -3.6226375163884295e-05 0.001338196152710775 -0.005985110430834629 -1.4595250067489627e-05 -3.6226375163884295e-05 -1.4595250067489627e-05 9.53745754144281e-08" pbc="T T T"
C       -0.00160274      -0.01187347       3.65994785       0.00000000       0.00617624       0.00468771       0.00604436
C       -1.21706169       2.15251887       3.47530153       0.00000000      -0.00418614       0.00304976      -0.00620602
C       -2.45126535       4.28821889       3.66820774       0.00000000      -0.00350306      -0.01499579       0.00187435
C       -3.69440698       6.40683063       3.85719633       0.00000000       0.00286764      -0.00022622       0.00559887
C       -4.94533880       8.53037315       3.88182215       0.00000000       0.00034336       0.00942250       0.00698022
C        2.46813025      -0.05282914       3.57182289       0.00000000       0.00103537       0.00454386      -0.01067844
C        1.23508530       2.02593157       3.09857385       0.00000000      -0.00543966      -0.00556649      -0.01000437
C       -0.00987691       4.33489636       3.42666792       0.00000000       0.00177914       0.00392734       0.01155580
C       -1.20501896       6.41184320       3.90313182       0.00000000       0.00192363      -0.00393792      -0.00700639
C       -2.46166117       8.53729776       3.86272946       0.00000000      -0.00198702       0.00212105       0.00079969
C        4.93951885      -0.00455155       3.60807755       0.00000000      -0.01435713      -0.00193784       0.01196623
C        3.70579239       2.01907260       3.04361383       0.00000000       0.00277421      -0.00589732      -0.01604162
B        1.35920754       6.42623383       4.23320783       0.00000000       0.00404751       0.00053886       0.01673165
C       -0.00193188       8.58500570       3.95361378       0.00000000      -0.00478812       0.00334896      -0.00451793
C        7.39720263       0.04913916       3.73099782       0.00000000      -0.00128709      -0.00118918      -0.00783703
C        6.17636809       2.14447702       3.38785149       0.00000000       0.00170612      -0.00365592       0.00345579
C        4.98670111       4.31074751       3.30605752       0.00000000       0.00287118       0.00135843       0.00632284
P        3.36175780       6.22143480       4.37033485       0.00000000       0.00051820       0.00364365      -0.00966138
C        2.45332287       8.65971206       4.06828105       0.00000000       0.00117302      -0.00550708       0.00022393
C        9.88178394       0.04392093       3.76749592       0.00000000       0.00015049       0.01183988       0.00805698
C        8.64696507       2.16204983       3.58698234       0.00000000      -0.00326168      -0.00160169       0.00084795
C        7.41350919       4.28525541       3.61692420       0.00000000       0.00614048      -0.01036599       0.01352427
C        6.15388316       6.39930925       3.89661792       0.00000000      -0.00393912      -0.00412083      -0.00227948
C        4.92771493       8.56750586       4.01923202       0.00000000       0.00336259       0.00347799      -0.00908346
C        0.00087968       1.40171469       3.40940927       0.00000000      -0.00550766       0.00196716      -0.00026497
C       -1.21993416       3.57920034       3.50622102       0.00000000      -0.00172495      -0.00112004       0.00317930
C       -2.44927591       5.70533737       3.81385225       0.00000000       0.00052795      -0.01404984       0.01001191
C       -3.70142381       7.82656403       3.88778233       0.00000000      -0.00124707       0.00960694       0.00144283
C       -4.94036735       9.94497885       3.72251503       0.00000000       0.00617351       0.01109773       0.01277081
C        2.47106886       1.32572613       3.22633850       0.00000000       0.00022597       0.00108323      -0.01269654
P        1.28938602       3.65075698       2.44988824       0.00000000       0.00209439      -0.00240888      -0.00617640
C        0.04117226       5.69295522       3.84929314       0.00000000       0.00969488       0.00614852      -0.00017522
C       -1.22702898       7.83916034       3.93694846       0.00000000      -0.00320866      -0.00232445      -0.00104866
C       -2.45987219       9.95085430       3.70000033       0.00000000      -0.00975772      -0.00369930      -0.01156348
C        4.94624776       1.40212817       3.33614721       0.00000000      -0.00106213      -0.00638135       0.00708814
P        3.64994409       3.63650388       2.36244319       0.00000000       0.00264265       0.00103164       0.00152645
C        1.23993216       7.93501645       4.09381437       0.00000000      -0.00470264      -0.00152680      -0.00198000
C       -0.00105154      10.00449018       3.77744259       0.00000000      -0.00930016       0.00478000       0.00103073
C        7.40392364       1.45593169       3.56397864       0.00000000       0.00192135      -0.00076747      -0.00539328
C        6.19198447       3.56908309       3.40222662       0.00000000       0.00439957       0.00041019      -0.00278103
C        4.94063550       5.64120875       3.79364455       0.00000000      -0.00947204       0.00826531      -0.00862858
C        3.66998210       7.94193650       4.18412917       0.00000000       0.00724909       0.00086808       0.00492692
C        2.46780357      10.05749827       3.86760104       0.00000000       0.00165058      -0.00280682      -0.00349259
C        9.88662608       1.45610874       3.61029472       0.00000000      -0.00473173       0.00797852      -0.00201679
C        8.64953881       3.58121163       3.61706924       0.00000000      -0.00107852      -0.01287741       0.00911195
C        7.40126051       5.69974518       3.79340203       0.00000000       0.00495525      -0.00704278      -0.00562356
C        6.15419087       7.82558241       3.97059799       0.00000000       0.00169566      -0.00271312       0.00044850
C        4.93685330       9.99029798       3.83297634       0.00000000       0.00511365       0.00865985       0.00511984
Cd       2.01297613       5.63505668       6.43512557       0.00000000      -0.00924434       0.00331645      -0.00528694
O        2.16413226       5.30911360       9.15368898       1.00000000       0.01253234       0.00689757      -0.00588515
O        2.30559430       4.41337579       8.21070443       1.00000000       0.00604066      -0.00735065       0.00568903
