50
Lattice="12.336457 0.0 0.0 -6.168228499999997 10.683685154694365 0.0 0.0 0.0 15.0" Properties=species:S:1:pos:R:3:forces:R:3 energy=-430.3891402585297 free_energy=-430.3891402585297 stress="-0.0006230970924145518 -0.0033238003355627955 -4.5910066827991875e-06 -0.0033238003355627955 -0.007208668162028247 9.315356169022708e-06 -4.5910066827991875e-06 9.315356169022708e-06 9.350481360825777e-06" pbc="T T T"
C        0.00386439      -0.03676708       3.63494033       0.00195382       0.00563640       0.00846457
C       -1.22516439       2.12890529       3.57816982       0.00031999       0.00058932      -0.00049056
C       -2.45181933       4.26287980       3.62872321      -0.00107423      -0.00692321      -0.00735250
C       -3.67891513       6.39546446       3.70534667       0.00488928      -0.00561221       0.00235063
C       -4.91357473       8.52132024       3.71926089      -0.00248012      -0.00390123      -0.00424938
C        2.48153899      -0.08057058       3.59847190      -0.00828700       0.00675057      -0.00489634
C        1.25117818       2.03490653       3.49000991      -0.00686111      -0.00560567       0.00095656
C        0.04778538       4.26510818       3.61590328       0.00214475      -0.00347644      -0.00616569
C       -1.21338551       6.39313833       3.77329636       0.00285863      -0.00144471       0.00297183
C       -2.43689403       8.51442344       3.72023597      -0.00184161      -0.00013167       0.00124748
C        4.93991139      -0.00920122       3.63538455      -0.00550855      -0.00251481      -0.00531345
C        3.65683423       2.05051754       3.41342328       0.00290060       0.00424640      -0.00392904
B        1.18991167       6.44624382       4.23598691       0.00488195      -0.00517028       0.00589535
C        0.01555185       8.55463720       3.86755264       0.00228742       0.00735073      -0.00292746
C        7.40344535       0.01498525       3.72933779       0.00432738       0.00362620      -0.00176739
C        6.14177019       2.15942724       3.57349740      -0.00022178      -0.00356568       0.00490159
C        4.92910403       4.36630569       3.64489158       0.00519627       0.00402450      -0.00950474
N        3.78684508       6.46160290       4.14864404      -0.00308331      -0.00586831      -0.00179054
C        2.49995983       8.56838663       3.97872240       0.00288815      -0.00466138      -0.00467604
C        9.87568299       0.00574466       3.71501363       0.00253175       0.00486241       0.00518939
C        8.63216807       2.14195368       3.62538224       0.00036639       0.00383254      -0.00262292
C        7.39479802       4.27784188       3.65522474      -0.00730347       0.00148054       0.00621452
C        6.19731819       6.42886157       3.79415044      -0.00034829      -0.00057142       0.00523208
C        4.95493935       8.54218412       3.82282045       0.00178324       0.00609205       0.00309278
C        0.00243658       1.38957513       3.56177247      -0.00475695      -0.00067935       0.00991796
C       -1.19920919       3.55134081       3.58629872       0.00122049      -0.00305114       0.00062652
C       -2.44935624       5.68418237       3.68608144       0.00456902      -0.00818390       0.00269458
C       -3.67402915       7.81161926       3.71713737      -0.00019988      -0.00486557      -0.00172449
C       -4.93050355       9.92913544       3.65398560      -0.00344027       0.00018559      -0.00413588
C        2.46169078       1.32361058       3.49380493      -0.00234710       0.00653559      -0.00393200
B        1.36402651       3.50163006       3.48658878      -0.00380754      -0.00923528      -0.00606514
C        0.00519915       5.65777942       3.82523725       0.00093231      -0.00457734       0.00066519
C       -1.20078015       7.81344286       3.79980188       0.00235002       0.00287903      -0.00057619
C       -2.44132092       9.93134747       3.65242307      -0.00922125       0.00143069       0.00004490
C        4.91708530       1.43038252       3.52892929      -0.00007616      -0.00368584      -0.00123502
S        3.30578732       3.74843364       3.19160652       0.00748967       0.00620276       0.01557741
C        1.26434649       7.88435530       4.04155237      -0.00096439       0.00103091       0.00545083
C        0.00596619       9.97929748       3.74544495       0.00098759       0.00766314       0.00110013
C        7.38318680       1.44340354       3.63679840       0.00294084       0.00239694      -0.00340072
C        6.12157604       3.59294750       3.61223885      -0.00228792      -0.00327209       0.00444915
C        4.95025480       5.76424334       3.86681318       0.00079953       0.00109235      -0.00445008
C        3.73765162       7.82167389       3.99500989       0.00420763      -0.00273192      -0.00385831
C        2.48107508       9.98529714       3.80858661       0.00344784      -0.00123994       0.00265323
C        9.87194964       1.42828340       3.63057256       0.00117978       0.00441674       0.00102509
C        8.63824312       3.56284822       3.62501819      -0.00714656       0.00130613      -0.00440104
C        7.41518743       5.69418088       3.71169129       0.00018849       0.00071864       0.00044723
C        6.18836963       7.83739899       3.78502763      -0.00346194      -0.00065797       0.00419234
C        4.93786592       9.95798343       3.72230439       0.00314601       0.00895237       0.00626709
Cd       2.52516693       5.42089501       5.71503793       0.00189005       0.00284651      -0.01686764
O        2.25949172       4.60674407       7.46777566       0.00004053      -0.00452171       0.00470412
