49
Lattice="12.336457 0.0 0.0 -6.168228499999997 10.683685154694365 0.0 0.0 0.0 15.0" Properties=species:S:1:pos:R:3:forces:R:3 energy=-421.40063717045825 free_energy=-421.40063717045825 stress="-0.001327353223152369 -0.00010679320647730577 6.041451086818809e-07 -0.00010679320647730577 -0.0072998221277471844 -1.240878568118869e-06 6.041451086818809e-07 -1.240878568118869e-06 6.068345493310207e-06" pbc="T T T"
C        0.00172021      -0.01204062       3.66559350      -0.00165404       0.00423303       0.00919377
C       -1.22442316       2.14076503       3.52436031      -0.00011216       0.00869397       0.00324032
C       -2.46976343       4.27330922       3.63488330      -0.00518475      -0.01301517      -0.00413225
C       -3.70066319       6.40277806       3.72479782       0.00236031       0.00310522      -0.01135990
C       -4.94644842       8.52159630       3.69875621      -0.00033867      -0.00433324      -0.01065422
C        2.46000842      -0.04904226       3.86974803       0.00312101       0.00120489      -0.00123485
C        1.26299172       2.03899926       3.46468793       0.00151454       0.00232955       0.00646898
C       -0.04306093       4.31288150       3.34604084      -0.00744665      -0.00351453       0.00317003
C       -1.23037800       6.40407556       3.79775196      -0.00519933      -0.00026483       0.00839507
C       -2.46399675       8.52380775       3.90522960      -0.00374445       0.00847057       0.00252656
C        4.93331157      -0.01242830       4.01425333      -0.00026189      -0.00566125      -0.00512933
C        3.66893808       2.09961063       3.99057582       0.00275295      -0.00591240       0.00646048
B        1.27050605       6.38691636       4.11127724       0.00669001      -0.00342789       0.01287045
C        0.01061346       8.54467539       4.00518617      -0.00278609       0.00958950      -0.00196166
C        7.39992795       0.02507468       3.95998349      -0.00146202      -0.00394609       0.00370233
C        6.15819887       2.14670124       3.94869120       0.00594853      -0.00854779      -0.00748422
C        4.93197099       4.29410344       3.73576218       0.00484101       0.00896196       0.00424041
S        3.50868254       6.36283982       2.77119327      -0.00545482      -0.00212035       0.00594639
C        2.47168563       8.59247689       3.82228834      -0.00434311      -0.00097013       0.00520424
C        9.87590911       0.02257760       3.74862327      -0.00044773       0.00535857      -0.00497945
C        8.63677439       2.14720735       3.77943148      -0.00297914      -0.00202814      -0.00939647
C        7.40198167       4.27253937       3.73511206       0.00715556       0.01171157      -0.00864445
C        6.16930328       6.41007835       3.49199433       0.00147628      -0.00212327      -0.00307369
C        4.92928806       8.55338536       3.55531691       0.00611328      -0.01699971       0.00153261
C        0.00478110       1.41348605       3.54275734      -0.00172960       0.00980155       0.00603950
C       -1.23593831       3.55660283       3.46928501      -0.00359724      -0.00178955       0.00137448
C       -2.46741938       5.69407970       3.72116641      -0.00432480      -0.00932693      -0.00588381
C       -3.70229316       7.81963290       3.77951796       0.00095087       0.00150328      -0.00976306
C       -4.94180213       9.94460674       3.74828394       0.00286896      -0.00186662      -0.00559303
C        2.46224544       1.37470363       3.81899751       0.00095448       0.00105715       0.00544574
S        1.42701106       3.60025069       2.75366149       0.00679102       0.00177243       0.00432674
C        0.00254966       5.67258043       3.70876888      -0.00401988      -0.00626905       0.01010945
C       -1.22381141       7.81979551       3.93522588      -0.00421728       0.00989929      -0.00273749
C       -2.46561186       9.94187973       3.95709902       0.00053716       0.00409109       0.00514488
C        4.92329384       1.42204968       4.01324071       0.00227317      -0.00825292      -0.00210631
B        3.66237286       3.57879963       4.12664145      -0.00561961      -0.00075722       0.01147707
C        1.26443542       7.86727760       3.98432217      -0.00380492       0.00144829       0.00878070
C        0.00086304       9.97932690       4.01297907      -0.00181941       0.00494769      -0.00135229
C        7.39866307       1.44316852       3.91181022       0.00316912      -0.01013891       0.00049522
C        6.16512723       3.56279375       3.81898061       0.00975871       0.00150986       0.00235923
C        4.97641552       5.65363299       3.37355119       0.00229561       0.00621201      -0.00131609
C        3.67190035       7.92692389       3.47662279       0.00059216       0.00055198       0.00289853
C        2.47424917      10.01620554       3.87293425      -0.00141620       0.00263680      -0.00305222
C        9.88063118       1.44529774       3.69235379       0.00067304       0.01068770      -0.01005886
C        8.63530944       3.56396098       3.72411232      -0.00322458      -0.00348153      -0.01053793
C        7.40393387       5.69331273       3.64957825       0.00115671       0.01233435      -0.01031812
C        6.15808965       7.82591582       3.54015591       0.00260030      -0.01162666      -0.00462315
C        4.93253828       9.97957112       3.66863588      -0.00063058      -0.00752832       0.00983310
Cd       2.45678124       4.97980603       5.35249892      -0.00077585       0.00179024      -0.00584344
