50
Lattice="12.336457 0.0 0.0 -6.168228499999997 10.683685154694365 0.0 0.0 0.0 15.0" Properties=species:S:1:pos:R:3:forces:R:3 energy=-425.6309482265188 free_energy=-425.6309482265188 stress="0.003666114553080782 0.0018586331554320973 -4.696829404129664e-06 0.0018586331554320973 -0.011663498832819592 1.0621519377145367e-06 -4.696829404129664e-06 1.0621519377145367e-06 1.3213407475971976e-05" pbc="T T T"
C        0.00360413      -0.02095198       3.69648655      -0.00164547       0.00160696       0.00082512
C       -1.20064033       2.15611090       3.56118722       0.00350590       0.00749938      -0.00279099
C       -2.44860007       4.27846029       3.57749981      -0.00162184       0.00051579       0.00132451
C       -3.70461328       6.38930439       3.65026635      -0.00247031       0.01370533      -0.00469339
C       -4.96081070       8.49628431       3.69505654      -0.00803044       0.00199390       0.00463819
C        2.45820945      -0.09818571       3.90963051       0.00197436      -0.00904558       0.00500800
C        1.28754969       2.01074443       3.57008865       0.00242487      -0.00176970       0.00539528
C        0.01586339       4.32423852       3.40756764       0.00914267      -0.00624411      -0.01566263
C       -1.20518459       6.40598401       3.72313113       0.00303585      -0.00229042      -0.00112955
C       -2.46471466       8.50154957       3.87991068       0.00015609       0.00049835       0.00751832
C        4.93214310      -0.02623661       4.02162571       0.00137777      -0.00184056      -0.01412190
C        3.66950584       2.04249870       3.93629072      -0.00000524      -0.00099862       0.00146977
B        1.38533874       6.44020194       3.87010520       0.00434175      -0.00433626       0.00127107
C        0.00940347       8.56036398       3.98152889      -0.00220419       0.00088475       0.00889332
C        7.39698880       0.05324418       3.97155629      -0.00416067       0.00421023      -0.00633217
C        6.15530530       2.14984344       3.88477204      -0.00064165       0.00165799       0.01380350
C        4.88156067       4.26520025       3.62801701      -0.00280676       0.00454187      -0.01146653
S        3.31053063       6.34244051       3.03203994       0.00155455      -0.00926550       0.00204577
C        2.46251695       8.65289463       3.85670579      -0.00263656       0.00808976      -0.00047424
C        9.88554114       0.05110314       3.77218395       0.00316622       0.00278056       0.01160353
C        8.64340405       2.16734368       3.74210140       0.00390836      -0.01337757       0.00131688
C        7.38706431       4.27371442       3.64392171       0.00340069      -0.00532674       0.00127178
C        6.12461873       6.39430089       3.48471158      -0.00291018      -0.00336884      -0.00320343
C        4.91147756       8.55381863       3.59842468      -0.00066569      -0.00241303      -0.00360267
C        0.02282182       1.41252923       3.60032436       0.00027580       0.00295650      -0.00381674
C       -1.19068690       3.57204286       3.48680014       0.00352375       0.00431917      -0.00330289
C       -2.45301733       5.69289526       3.64402810      -0.00377516       0.00479302       0.00124095
C       -3.70912338       7.79915690       3.74150661      -0.00452188       0.01348140       0.00203033
C       -4.95120434       9.91511521       3.77288302      -0.00350850      -0.00111808       0.01010927
C        2.47189886       1.31350673       3.85851492       0.00292956      -0.00762355       0.00014233
S        1.62365892       3.62487549       3.03808500      -0.00230976       0.00607444      -0.00117515
C        0.05247095       5.70188272       3.62902155       0.00345601      -0.00556869      -0.01420800
C       -1.22098276       7.81698249       3.88385960      -0.00061585      -0.00219832       0.01380541
C       -2.46252432       9.91328771       3.97104085       0.00373207      -0.00370330      -0.00467944
C        4.92502988       1.40624830       3.98258392       0.00152265      -0.00121123       0.00793499
B        3.54954184       3.52638112       3.87153593      -0.00385679       0.00439752       0.00570868
C        1.26490467       7.92400103       3.93445077       0.00007617       0.00140306       0.00215556
C        0.00231531       9.99280357       4.02155334      -0.00156280       0.00175770      -0.01461265
C        7.39905974       1.46508352       3.88091699      -0.00129658      -0.00021849       0.00598963
C        6.13918135       3.56090246       3.72327568      -0.00309005       0.00115842      -0.00118778
C        4.91780620       5.64230500       3.40364861      -0.00802902       0.00590263      -0.00887489
C        3.64666936       7.95572861       3.56684506      -0.00242154       0.00106812       0.00500996
C        2.47617517      10.06452628       3.90909895      -0.00207330       0.01001874       0.00445453
C        9.89501901       1.46996680       3.69504724       0.00835880      -0.00027596       0.00716009
C        8.63869961       3.57721208       3.65066187       0.00221600      -0.01386277      -0.00408846
C        7.38258235       5.68805915       3.57678181       0.00164227      -0.00071765       0.00019939
C        6.13483128       7.81012637       3.55995404      -0.00302325      -0.00571520      -0.00441481
C        4.93076639       9.98720163       3.69575408       0.00042403      -0.00080035       0.00134644
Cd       2.46117426       4.97918735       5.42617053       0.00194203      -0.00151749       0.00296023
O        2.45104423       4.98207676       7.38806552       0.00179527      -0.00050757      -0.01279450
