52
Lattice="12.336457 0.0 0.0 -6.168228499999997 10.683685154694365 0.0 0.0 0.0 15.0" Properties=species:S:1:pos:R:3:forces:R:3 energy=-440.951391613245 free_energy=-440.951391613245 stress="0.00445585009931427 0.0019050483890701779 1.281244967574622e-05 0.0019050483890701779 -0.0034208801378394116 2.303356416685189e-05 1.281244967574622e-05 2.303356416685189e-05 1.1272397392690765e-05" pbc="T T T"
C       -0.00255289      -0.02474744       3.77229632      -0.00287770       0.00238487      -0.00355028
C       -1.20916628       2.14324981       3.85236522       0.00036903       0.00607353      -0.00541551
C       -2.43580027       4.26384304       3.79374487      -0.00216433       0.00255932       0.00585791
C       -3.70104028       6.38213667       3.67081068       0.00365622       0.00684459       0.00029027
C       -4.96075211       8.50268792       3.62910004      -0.00935873      -0.00409183      -0.00652592
C        2.45596364      -0.07414286       3.80167315      -0.00410662       0.00209930       0.00088164
C        1.26289792       2.07741548       3.88521260       0.00458189       0.00204150       0.01046143
C        0.09490214       4.29993953       3.89747451       0.00737981       0.00470940       0.00508504
C       -1.23057713       6.40817048       3.79579849      -0.00029289      -0.00494930      -0.00066505
C       -2.47794986       8.51267863       3.75170298      -0.00189177      -0.00289511      -0.00689167
C        4.92277893      -0.02172864       3.83958748      -0.00009004       0.00131914       0.00597113
C        3.66845129       2.07126388       3.87097944       0.00732285       0.00575000      -0.00285244
N        1.16213548       6.48273768       4.11392064      -0.01046678       0.00425801      -0.00062008
C       -0.01409712       8.54064464       3.83636779      -0.00199134      -0.00201474      -0.00051852
C        7.39379599       0.00501107       3.87102772       0.00009018       0.00571367       0.00252307
C        6.15411596       2.13382268       3.84011831       0.00138730      -0.00252791       0.00451261
C        4.86618554       4.26713449       3.62806076       0.00673805      -0.00457650      -0.00376398
S        3.60086848       6.38191885       2.53677277       0.00108543      -0.00435147      -0.00351089
C        2.44939272       8.54930408       3.72172600       0.00253444       0.00244638       0.00033304
C        9.87007930       0.00372964       3.80579478       0.00122114       0.00014594      -0.00061527
C        8.64106620       2.13862739       3.84428608      -0.00127634      -0.00514355      -0.00299191
C        7.39097593       4.25471237       3.71558302       0.00449450       0.00234069      -0.00148696
C        6.16654419       6.38490755       3.43281581      -0.00072522      -0.00250346       0.01178078
C        4.91485229       8.53781991       3.52537635       0.00018360       0.00184395      -0.00400011
C        0.01498233       1.41063540       3.84865378       0.00208686       0.00390489       0.00039992
C       -1.16447327       3.57640149       3.85015438       0.00387566       0.00912999       0.00823300
C       -2.45389020       5.68147676       3.74911300      -0.00001081       0.00093188       0.00057092
C       -3.71397097       7.79924218       3.67359651      -0.00420445       0.00261749      -0.00481208
C       -4.95277947       9.92326651       3.73395040      -0.00609703      -0.00425839      -0.00137643
C        2.46226362       1.33930715       3.86180597       0.00693963       0.00370723       0.00628516
B        1.48981578       3.58655646       3.94142122      -0.00435227      -0.00386193      -0.00397077
C        0.02984922       5.74029859       3.91856734      -0.00151988       0.00148132      -0.00399025
C       -1.24076611       7.81775838       3.79397993      -0.00067993      -0.00488550      -0.00481359
C       -2.47182735       9.92941058       3.79593272      -0.00278207      -0.00085028      -0.00024432
C        4.91881044       1.40812371       3.85720304       0.00273222       0.00191633       0.00215432
B        3.45943485       3.57937359       3.85502806      -0.00218427      -0.00363294       0.00253643
C        1.20480869       7.81737660       3.87859714      -0.00087528       0.00033682      -0.00709414
C       -0.00815500       9.96638046       3.84711648       0.00069243       0.00027091       0.00432509
C        7.39560444       1.43010799       3.86163017      -0.00104264       0.00029985       0.00135031
C        6.12971356       3.55503490       3.74415222       0.00712252      -0.00341513       0.00115589
C        4.97473308       5.63385490       3.27166524       0.00247102      -0.00589517      -0.00583888
C        3.65933863       7.90002660       3.37458407       0.00273065       0.00097967      -0.00243611
C        2.46019507       9.97392187       3.82590739       0.00005413       0.00429955      -0.00192743
C        9.88312894       1.43400962       3.84593578      -0.00043588       0.00053151      -0.00340968
C        8.64721946       3.55814809       3.79128983      -0.00059861      -0.00382578       0.00486807
C        7.40121231       5.67091762       3.60940151       0.00377431       0.00510373       0.00241527
C        6.14294570       7.80508610       3.48470383      -0.00649187      -0.00477340       0.00240429
C        4.92795809       9.96336552       3.71839440      -0.00150506       0.00132479       0.00361508
Cd       2.57708964       5.05091464       5.37812592      -0.00392464      -0.00536464       0.00201034
O        3.38142912       5.67348773       7.21307552       0.00452667      -0.00922090      -0.00280579
O        2.34419097       5.21996740       8.16534599       0.00107575      -0.00512229       0.00719333
H        2.90814456       4.65581411       8.72815671      -0.00717984       0.00079396      -0.01108628
