50
Lattice="12.336457 0.0 0.0 -6.168228499999997 10.683685154694365 0.0 0.0 0.0 15.0" Properties=species:S:1:pos:R:3:forces:R:3 energy=-425.7573223965659 free_energy=-425.7573223965659 stress="0.0024984593970797777 -2.9299555100201175e-07 1.4498458890783871e-05 -2.9299555100201175e-07 -0.012922457640815491 -8.027722578299931e-08 1.4498458890783871e-05 -8.027722578299931e-08 -2.691382503815476e-05" pbc="T T T"
C        0.01550654      -0.03079158       3.92995772      -0.00417600      -0.00860394       0.00621866
C       -1.19253442       2.15419159       3.80362826      -0.00647768      -0.00178310      -0.00256773
C       -2.41810528       4.27496584       3.63482813       0.00418698       0.00013678      -0.00556660
C       -3.66832083       6.38896974       3.66198269      -0.00025912       0.00309224       0.00968046
C       -4.93718357       8.49501394       3.80850158       0.00177042      -0.00615436       0.01268787
C        2.48376247      -0.10579573       3.96558876      -0.00594609      -0.00493516      -0.00478296
C        1.28193548       2.03000796       3.82641881       0.00070515       0.00386829       0.00327577
C        0.09485188       4.27185535       3.60945569       0.01524828       0.00102466      -0.00196078
C       -1.16575014       6.40110934       3.65658018       0.00793350      -0.00106813      -0.00259352
C       -2.43638875       8.49723681       3.85263671      -0.00474091       0.00567687       0.00255172
C        4.94533237      -0.01897398       3.88965265      -0.00277742       0.00244975       0.00075054
C        3.66910828       1.99476654       3.60981341       0.00944192      -0.00444388      -0.01164329
B        1.43177978       6.47117134       3.66108179      -0.00620565      -0.00405860      -0.00889761
C        0.02804071       8.56555364       3.88785944      -0.00340293       0.00113331       0.00209701
C        7.40218086       0.05990917       3.93216058      -0.00327240       0.01195192       0.00667631
C        6.15920312       2.14978221       3.67852404      -0.00157529      -0.00673592       0.01201416
C        4.95993256       4.29540758       3.36878696      -0.00265533      -0.00445386      -0.00868732
S        3.33865580       6.39657538       2.98778051       0.00751060       0.00616008      -0.00639475
C        2.47642830       8.66771841       3.85679803       0.00392534       0.00008981      -0.00153965
C        9.89749973       0.05408008       3.92855306      -0.00340553      -0.00479676      -0.01290879
C        8.65595251       2.16937122       3.77407808       0.00118540      -0.00294800       0.01203609
C        7.41594042       4.27638920       3.59489211      -0.00865447      -0.00479491      -0.00336330
C        6.15986578       6.40427745       3.54631524      -0.00892313       0.01254361       0.00312259
C        4.93322418       8.55809707       3.73175057       0.00602189       0.00926207      -0.00965530
C        0.02802339       1.40102224       3.88788434      -0.00298397      -0.00360924       0.00205100
C       -1.16574831       3.56538572       3.65658115       0.00772879       0.00127506      -0.00272680
C       -2.41810862       5.69144937       3.63484632       0.00437511       0.00263362      -0.00551589
C       -3.68050944       7.79716534       3.77415464       0.00144286       0.00169976       0.01191443
C       -4.93422586       9.90658812       3.93221146      -0.00504114      -0.01195055       0.00652252
C        2.47642900       1.29876406       3.85676141       0.00412543       0.00033258      -0.00134261
B        1.43173635       3.49532136       3.66112053      -0.00521617       0.00424256      -0.00926540
C        0.09486883       5.69462230       3.60943246       0.01488297      -0.00000163      -0.00179356
C       -1.19251705       7.81236129       3.80363091      -0.00678704       0.00004302      -0.00276618
C       -2.43891800       9.91243257       3.92855326      -0.00463811       0.00411488      -0.01280180
C        4.93322453       1.40829024       3.73169668       0.00619956      -0.00590727      -0.01009243
S        3.33854364       3.56995186       2.98779839       0.01030081      -0.00611674      -0.00549719
C        1.28193773       7.93649929       3.82642575       0.00060326      -0.00436080       0.00308878
C        0.01548355       9.99732871       3.92993002      -0.00326565       0.00733695       0.00614094
C        7.39931462       1.47145519       3.80841495       0.00051918       0.00692835       0.01262064
C        6.15991702       3.56221603       3.54626665      -0.01023962      -0.01214972       0.00317015
C        4.95980531       5.67124739       3.36876703       0.00106318       0.00002833      -0.00811106
C        3.66910377       7.97169687       3.60981884       0.00938375       0.00574189      -0.01103560
C        2.48369845      10.07229255       3.96558420      -0.00390853       0.00493043      -0.00480777
C        9.90005449       1.46931547       3.85259740      -0.00451962      -0.00761098       0.00271365
C        8.66812693       3.57754074       3.66192962      -0.00002734      -0.00335985       0.00966161
C        7.41591165       5.69014694       3.59493529      -0.00788644       0.00402644      -0.00353177
C        6.15917094       7.81660357       3.67860888      -0.00073053       0.01019309       0.01221805
C        4.94534598       9.98542400       3.88970631      -0.00328010      -0.00115480       0.00054936
Cd       1.54178936       4.98325268       5.57830542       0.00787548       0.00004779       0.01828584
O        2.31959527       4.98309624       7.35244315      -0.00543368       0.00003406      -0.00019851
