52
Lattice="12.336457 0.0 0.0 -6.168228499999997 10.683685154694365 0.0 0.0 0.0 15.0" Properties=species:S:1:pos:R:3:forces:R:3 energy=-443.48090266834356 free_energy=-443.48090266834356 stress="0.0019393563614725957 -0.0009145546486955414 3.6725458145831295e-05 -0.0009145546486955414 0.0016937012256534212 -9.200154145630754e-06 3.6725458145831295e-05 -9.200154145630754e-06 2.1659322256340357e-05" pbc="T T T"
C        0.01174557       0.00195933       3.70138435       0.00622289      -0.00601648       0.00392274
C       -1.23350118       2.13480788       3.66900559      -0.00169453      -0.01094524       0.00806563
C       -2.46516329       4.27974818       3.64806170       0.00869941       0.00039045       0.00849473
C       -3.69347989       6.41446286       3.65865992      -0.00320419       0.00539666       0.00529292
C       -4.92048397       8.55398780       3.68925922      -0.00379043       0.00179908       0.00507448
C        2.47561304       0.04497640       3.71880729       0.00761247      -0.00157759       0.00207096
C        1.20447414       2.14057943       3.76985875      -0.00277951       0.00336437      -0.00665927
C       -0.01800846       4.22618214       3.79337532      -0.00614936       0.00425020      -0.00043661
C       -1.20195524       6.38985275       3.75046419       0.00168029      -0.00205246      -0.00051854
C       -2.45441980       8.54935361       3.71330779       0.00800409       0.00078828       0.00304371
C        4.93393250       0.01083586       3.71907198      -0.00116252       0.00643789       0.00496943
C        3.73493593       2.15071421       3.74607511       0.00083716      -0.00205342       0.00616702
B        1.30687248       6.40616423       4.05584276       0.00070625       0.00416915      -0.00273139
C        0.00810695       8.55586676       3.81162642      -0.00094148      -0.00150273      -0.00292159
C        7.40638919       0.01216337       3.73375105      -0.00485500      -0.00644703      -0.00889892
C        6.17050216       2.14719316       3.66670908       0.00122277      -0.00597550      -0.00070869
C        4.94991735       4.25330105       3.74131718      -0.00435490       0.00563336       0.01084225
C        3.69791793       6.40707164       4.02850581      -0.00385649       0.00728669      -0.00271117
C        2.48011789       8.56902637       3.88386276       0.00405352       0.00241637      -0.00449093
C        9.87786709       0.00436446       3.71853372       0.00607402      -0.00043734       0.00943775
C        8.63856997       2.14552187       3.64742790      -0.00129560       0.00141418       0.00867611
C        7.40001589       4.28671852       3.63490439      -0.00253428      -0.00428337      -0.00557804
C        6.15517561       6.40560410       3.69210336      -0.00336189       0.00168140       0.00310074
C        4.94652465       8.54213099       3.76699012       0.00089915      -0.00333123       0.00336893
C        0.01002577       1.43345310       3.70072783       0.00268341      -0.00506373      -0.00419834
C       -1.23504359       3.54884481       3.67624850       0.00326364      -0.00850568      -0.00224714
C       -2.45522054       5.69881552       3.67503284       0.00157517       0.00195190      -0.01297599
C       -3.68953442       7.83999859       3.68129585       0.00088769       0.00797309       0.00243287
C       -4.91835747       9.98920328       3.70585824       0.00729216      -0.00180420      -0.01196765
C        2.47236575       1.49500117       3.74756132      -0.00048463      -0.00130037       0.00430250
O        1.15156979       3.50871876       3.91715558      -0.00459583       0.00860809      -0.01732288
C        0.02636430       5.63871539       3.84217344       0.00198353       0.00341775      -0.00279874
C       -1.21619557       7.82592627       3.75992231       0.00468745      -0.00415223       0.00268797
C       -2.46611221       9.98922332       3.71878836       0.00752596       0.00099451      -0.00090090
C        4.93009232       1.44461261       3.70136531       0.00150254       0.00013851      -0.00682005
O        3.78724707       3.52490294       3.82256316      -0.00182995      -0.00191212       0.01278519
C        1.25410389       7.87700733       3.92141899       0.00253805       0.00354334      -0.00487606
C        0.00274683       9.98448197       3.75184507      -0.00918713      -0.00186746       0.00076217
C        7.39851126       1.43813964       3.67236248       0.00091414      -0.00680461      -0.00256299
C        6.16253030       3.56796557       3.65645220      -0.00768563      -0.00208877       0.00195558
C        4.88799765       5.68642424       3.79037720      -0.00341562       0.00915086       0.01547258
C        3.70310998       7.80437717       3.89538567       0.00182006       0.00180097      -0.00284330
C        2.47727449       9.98737505       3.77361293       0.00316157       0.00029391      -0.00120125
C        9.87771988       1.42938398       3.66676641      -0.00443100      -0.00090732      -0.00653472
C        8.63455507       3.57136545       3.62849214       0.00612567       0.00245032       0.00294809
C        7.39450072       5.70641327       3.64777809      -0.00631171      -0.00279207      -0.00200811
C        6.17585820       7.83343989       3.70936155      -0.00316526      -0.00134759      -0.00062902
C        4.94306189       9.96592642       3.72554619       0.00507324      -0.00505342      -0.00353790
Cd       2.52152241       5.28747596       5.53260979       0.00058414      -0.00067492       0.00200907
O        2.84283721       4.42972112       7.40675092      -0.00672473       0.00137913      -0.00281579
O        2.12255147       5.35641075       8.30683986      -0.00495698       0.01005728      -0.00135677
H        2.87418059       5.61984373       8.87021473      -0.00486180      -0.00789091      -0.00463066
