49
Lattice="12.336457 0.0 0.0 -6.168228499999997 10.683685154694365 0.0 0.0 0.0 15.0" Properties=species:S:1:pos:R:3:forces:R:3 energy=-431.54018011015376 free_energy=-431.54018011015376 stress="0.001264058295507258 -0.00082226723137008 -2.31806625185497e-06 -0.00082226723137008 -0.003720177829687984 -8.030269099670541e-07 -2.31806625185497e-06 -8.030269099670541e-07 1.8481039617756522e-06" pbc="T T T"
C        0.00574720      -0.01039161       3.64870424       0.00271470       0.00312453      -0.01247775
C       -1.22493564       2.13437598       3.68909394      -0.00679634       0.00049999       0.00140531
C       -2.46017966       4.26328613       3.61182673      -0.00166427      -0.00971732       0.00053815
C       -3.70261664       6.39480070       3.51751757      -0.00187259       0.00561576       0.00246606
C       -4.93298748       8.52920903       3.54134688       0.00039884      -0.00550190      -0.00600251
C        2.46896954      -0.05291352       3.62195278      -0.00470657      -0.00003884       0.00619384
C        1.25974452       2.08633635       3.75605668      -0.00237163       0.00452887      -0.00237412
C        0.05218908       4.27494770       3.77080678       0.01105009       0.00297529       0.00574116
C       -1.24993545       6.41097448       3.63643944      -0.00280825      -0.00411438      -0.00149942
C       -2.46644669       8.52851048       3.57146304      -0.00056659      -0.00624370       0.00224488
C        4.93218183      -0.01523635       3.69268476      -0.00268834      -0.00888617      -0.00030187
C        3.67236902       2.08758787       3.77692880       0.00722157       0.00694490      -0.00737659
C        1.11530660       6.44910387       4.17504452      -0.00281195      -0.00763447      -0.00582919
C       -0.00764291       8.53970220       3.78148147       0.00106068       0.00373229       0.00525112
C        7.40014879      -0.00491011       3.77507910       0.00584866       0.01475455      -0.00740767
C        6.14826262       2.14215451       3.72132725       0.00103323       0.00161857       0.00014526
C        4.85581098       4.30336004       3.77314944      -0.00245263      -0.00119114      -0.00227356
N        3.85206984       6.49246043       4.13140179       0.00614367      -0.00420937       0.00669697
C        2.48656949       8.53440569       3.94521722      -0.00170908      -0.00319062       0.01197554
C        9.87069659      -0.00262245       3.74323998      -0.00010609       0.00390864      -0.00531310
C        8.62993106       2.13504790       3.68333896      -0.00184259      -0.00697123       0.00234276
C        7.37736578       4.26709106       3.61504998      -0.00068672      -0.00080449       0.00992972
C        6.17684040       6.41654532       3.59587712      -0.00579534      -0.00382254      -0.00841381
C        4.95260814       8.55184426       3.70841817       0.00454583       0.00687274      -0.00208775
C        0.01087736       1.41782792       3.69886447      -0.00471331       0.00135893      -0.00875978
C       -1.19539439       3.56246100       3.67775297       0.00715543      -0.00009333       0.01032203
C       -2.46892441       5.68654977       3.56277087      -0.00604225      -0.00458445       0.01014278
C       -3.69834955       7.81619674       3.51938051       0.00100497       0.00023203      -0.00073205
C       -4.93757232       9.94611501       3.59177636       0.00011447      -0.00694123       0.00550942
C        2.46748231       1.35552026       3.71783571       0.00168477       0.00738340       0.00144615
B        1.45855878       3.58183097       3.87065863      -0.00111439       0.00666074       0.00271217
C       -0.00595609       5.71279547       3.82514254       0.00023587       0.00071335      -0.01093890
C       -1.23300116       7.82674206       3.64879138       0.00190669      -0.00186559      -0.00126551
C       -2.46037059       9.94315026       3.61972977      -0.00769484      -0.00771520      -0.00130087
C        4.92113587       1.41712924       3.73457841       0.00381725      -0.00481105      -0.00593742
B        3.46669688       3.58621324       3.87743985       0.00667041       0.01616078       0.00047116
C        1.23062649       7.80349613       3.97842878      -0.00380435      -0.00610645       0.00458041
C       -0.00233413       9.95993818       3.74800430       0.00744764       0.00718802      -0.01243552
C        7.39044261       1.42465093       3.72210873       0.00039308       0.00821648      -0.00147503
C        6.10841252       3.57675583       3.69638314      -0.00140160      -0.00103171       0.00510740
C        4.93719739       5.74396101       3.79343011      -0.00005702      -0.00664173       0.00483043
C        3.74423486       7.82802460       3.93063396       0.00496212      -0.00463734      -0.00143339
C        2.47244522       9.95189236       3.82002660       0.00100450       0.00421529       0.00213796
C        9.87086747       1.42447635       3.69665719      -0.00508380       0.00034693       0.01192464
C        8.62785139       3.55984164       3.62508573      -0.00264883      -0.01159961       0.01013089
C        7.39598427       5.68662931       3.55177877      -0.00328212       0.00324716      -0.00637044
C        6.17124020       7.83031063       3.59369296      -0.00155858      -0.00147751      -0.00213472
C        4.93887402       9.97037512       3.69266582       0.00190801       0.01032621      -0.00706501
Cd       2.45430130       5.10999512       5.27765535      -0.00204238      -0.00079406      -0.00304024
