51
Lattice="12.336457 0.0 0.0 -6.168228499999997 10.683685154694365 0.0 0.0 0.0 15.0" Properties=species:S:1:pos:R:3:initial_magmoms:R:1:forces:R:3 energy=-441.1191140538594 free_energy=-441.1191140538594 stress="-0.004375359365262843 0.0006428920530534163 2.9638616556430175e-06 0.0006428920530534163 -0.003985630104371606 -4.075663405273982e-06 2.9638616556430175e-06 -4.075663405273982e-06 -1.0969550236319225e-05" pbc="T T T"
C       -0.06973575       0.00953325       3.69817090       0.00000000      -0.00023300       0.00021233      -0.00134710
C       -1.30354266       2.14840760       3.71654219       0.00000000       0.00066371       0.00046535      -0.00041282
C       -2.56117828       4.29035565       3.57864659       0.00000000       0.00023407       0.00085496       0.00039634
C       -3.78616675       6.42988524       3.51884626       0.00000000       0.00015794      -0.00092654      -0.00199464
C       -5.00250999       8.56811154       3.58879952       0.00000000       0.00020026       0.00116380       0.00136291
C        2.40917854       0.02440887       3.68047294       0.00000000       0.00117295       0.00236129       0.00045927
C        1.17948210       2.11554230       3.94403266       0.00000000       0.00056913      -0.00096807      -0.00070812
C       -0.14559028       4.30308506       3.92201045       0.00000000      -0.00065786      -0.00099938      -0.00131103
C       -1.32455432       6.43849901       3.66762516       0.00000000      -0.00061176      -0.00110000       0.00082797
C       -2.54051152       8.57001028       3.57554620       0.00000000       0.00026198       0.00006683       0.00134367
C        4.86704680       0.02343748       3.59264049       0.00000000      -0.00075179       0.00041933       0.00116033
C        3.66401655       2.17835978       3.77172314       0.00000000      -0.00017933      -0.00206697      -0.00094047
B        1.17838730       6.44780440       4.03921611       0.00000000       0.00268949       0.00045938       0.00042011
C       -0.07697577       8.57628398       3.68418000       0.00000000      -0.00029610       0.00039841       0.00062083
C        7.33847653       0.01706382       3.59218782       0.00000000      -0.00038146      -0.00057342       0.00030611
C        6.10573595       2.14758986       3.52663094       0.00000000      -0.00179084       0.00039578       0.00231533
C        4.85838117       4.24428903       3.68083711       0.00000000      -0.00034874      -0.00091446      -0.00162122
C        3.66197844       6.42428264       3.96705226       0.00000000      -0.00053012      -0.00013018       0.00010775
C        2.40460070       8.57849566       3.79573305       0.00000000      -0.00002525       0.00014236       0.00040743
C        9.80585195       0.01607645       3.65002428       0.00000000       0.00011791      -0.00073904       0.00162320
C        8.57095410       2.15096558       3.53717358       0.00000000       0.00035316       0.00082630      -0.00122384
C        7.32124638       4.28959042       3.48840080       0.00000000       0.00104331       0.00003809       0.00021967
C        6.08429366       6.42483201       3.58574671       0.00000000       0.00084695      -0.00027517       0.00045702
C        4.87022192       8.55402934       3.70165823       0.00000000      -0.00134398      -0.00097993      -0.00057444
C       -0.07171885       1.43172456       3.79191043       0.00000000       0.00057915       0.00018241      -0.00058385
C       -1.33400569       3.57081544       3.72608714       0.00000000      -0.00093570       0.00014631      -0.00090988
C       -2.56095409       5.71870795       3.56633690       0.00000000      -0.00035189      -0.00053940      -0.00125658
C       -3.77519007       7.85616514       3.54838707       0.00000000       0.00003397      -0.00037607       0.00021541
C       -4.99979654       9.98975142       3.65728087       0.00000000       0.00094815       0.00225120      -0.00029596
C        2.42031233       1.44195518       3.81795845       0.00000000       0.00078806       0.00048937       0.00035535
B        1.08702296       3.54267701       4.21177627       0.00000000      -0.00022845      -0.00140159      -0.00089922
C       -0.12335230       5.71864401       3.86429823       0.00000000       0.00007598      -0.00101750       0.00013823
C       -1.30958352       7.86094946       3.63311892       0.00000000      -0.00007010      -0.00062963       0.00154217
C       -2.53443708       9.99290070       3.60734688       0.00000000       0.00009198       0.00077509       0.00053779
C        4.87952519       1.44339962       3.60402478       0.00000000      -0.00159149      -0.00055658      -0.00089867
N        3.72972783       3.52684470       3.89196239       0.00000000       0.00076881      -0.00231193       0.00062300
C        1.16801802       7.89969166       3.83255289       0.00000000      -0.00016206       0.00129273      -0.00057824
C       -0.06833234       9.99483445       3.60346659       0.00000000      -0.00087488       0.00027788       0.00103399
C        7.34047164       1.43795956       3.52682264       0.00000000      -0.00095893       0.00036328       0.00076235
C        6.09921741       3.56606267       3.52143706       0.00000000       0.00023949       0.00053851       0.00043473
C        4.82826895       5.71265328       3.72543377       0.00000000       0.00000036       0.00010427      -0.00048647
C        3.62801186       7.81758749       3.83046479       0.00000000      -0.00089998       0.00086792       0.00012720
C        2.40675747       9.99279814       3.66489782       0.00000000      -0.00005090      -0.00092424       0.00184330
C        9.80366352       1.43785250       3.61607312       0.00000000       0.00086016      -0.00002404      -0.00161607
C        8.55572454       3.57660626       3.50964826       0.00000000       0.00107231       0.00118108      -0.00003039
C        7.31355350       5.71609112       3.50940086       0.00000000       0.00091182      -0.00077437       0.00072341
C        6.09577606       7.84886519       3.61724124       0.00000000      -0.00029166      -0.00008404       0.00017660
C        4.86674046       9.97677362       3.67866932       0.00000000      -0.00039674      -0.00125121       0.00039063
Cd       2.40929929       5.02968614       5.16897619       0.00000000       0.00069383       0.00126842      -0.01972660
O        4.07600876       4.72910893       7.94040036       1.00000000      -0.00277919       0.00148836       0.00110312
O        4.33462716       4.29749499       6.79556547       1.00000000       0.00136728       0.00053270       0.01538037
