49
Lattice="12.336457 0.0 0.0 -6.168228499999997 10.683685154694365 0.0 0.0 0.0 15.0" Properties=species:S:1:pos:R:3:forces:R:3 energy=-421.9526859707145 free_energy=-421.9526859707145 stress="-0.0010965861705661997 0.001455300950708221 -1.0819941144602437e-05 0.001455300950708221 -0.005639202608077148 3.3160031976440764e-06 -1.0819941144602437e-05 3.3160031976440764e-06 -3.4153462304051947e-06" pbc="T T T"
C        0.00595807      -0.02704601       3.69534819      -0.01089155      -0.00062959       0.00526358
C       -1.20886173       2.13668494       3.52715230       0.00553819       0.00968221      -0.00571141
C       -2.44444526       4.26925509       3.71218356      -0.00344362       0.00151965      -0.00036228
C       -3.68883607       6.38879515       3.87727650       0.00200165      -0.00638487       0.00282670
C       -4.93919461       8.51285215       3.89861563      -0.00128619       0.00120426       0.00361892
C        2.47444150      -0.07045547       3.59781305       0.01084360       0.00145334      -0.00552445
C        1.24313908       2.01194880       3.13915687       0.00533619      -0.00589933      -0.00346963
C        0.00085689       4.32317427       3.49925337      -0.00549399      -0.01082610       0.00698937
C       -1.20223738       6.39691381       3.95993044      -0.00720237      -0.00513607       0.00455114
C       -2.45700449       8.52056817       3.89965823       0.00336883      -0.00806421       0.00249368
C        4.94596845      -0.02410043       3.64846763       0.00545229       0.00035733       0.00079372
C        3.71547327       1.99396340       3.05819039       0.00049625       0.00251833      -0.01043937
B        1.35431805       6.40683642       4.38097581       0.00129504       0.00022722       0.00264228
C        0.00235570       8.56827031       4.02825991      -0.00006090       0.00479408      -0.01099553
C        7.40418030       0.02904684       3.78140635       0.00427493      -0.00618859       0.00613992
C        6.18558676       2.12192410       3.40991919      -0.01019021       0.00265048       0.00312330
C        4.99848428       4.28950263       3.29165375       0.00524887      -0.00199867       0.00734466
P        3.38946027       6.20225481       4.38739778      -0.00968856       0.01217709      -0.00301978
C        2.45942502       8.63818174       4.13164238      -0.00332297      -0.00057750      -0.00824197
C        9.88812020       0.02600442       3.81779522      -0.00188500      -0.01056824      -0.01097095
C        8.65414515       2.14212141       3.62927838       0.00040995      -0.00185350      -0.00132963
C        7.42080150       4.26426705       3.63040626       0.00613435       0.01564211       0.00599019
C        6.16217254       6.38195305       3.88558945       0.00089926       0.00522485       0.01119101
C        4.93689101       8.54985405       4.03879910      -0.00154770      -0.00828015      -0.00412868
C        0.00876982       1.38738617       3.45319200       0.00237777       0.00224996       0.00022027
C       -1.21162517       3.56234661       3.56330799      -0.00533012       0.00536329       0.00089513
C       -2.44437833       5.68755345       3.85350686      -0.00281378      -0.00710358       0.00296063
C       -3.69601789       7.80919813       3.90934446      -0.00065033      -0.00897294       0.00821127
C       -4.93365195       9.92838086       3.75072364      -0.00132934       0.00784090      -0.00300048
C        2.47887813       1.30679882       3.25087038       0.00984929       0.00120556      -0.00343335
P        1.30933461       3.64995635       2.53158901      -0.00873086       0.00473942      -0.00837838
C        0.04683617       5.68043554       3.92827714      -0.01184258      -0.00311390      -0.00218389
C       -1.22329341       7.82348807       3.99523553       0.00114985      -0.00168849      -0.00225849
C       -2.45472139       9.93300212       3.73280727       0.01102218      -0.00481202       0.00097066
C        4.95480678       1.37969635       3.36143591      -0.00699053       0.00117003      -0.00404973
P        3.65821182       3.60622776       2.36026066      -0.00130485       0.00332722       0.00138495
C        1.24427675       7.91545551       4.18504272      -0.00431751       0.00466773      -0.00138677
C        0.00441045       9.98575929       3.83447429       0.00529372      -0.00055720      -0.00737798
C        7.41167990       1.43478475       3.60095941      -0.00717779      -0.00418908       0.00529415
C        6.20082755       3.54750693       3.40632811       0.00561676       0.00731341       0.00870131
C        4.94816595       5.62543212       3.77148272       0.00787164      -0.00000760       0.01070761
C        3.68134776       7.92018878       4.21472184       0.00007211       0.00718204      -0.00697586
C        2.47451798      10.03677748       3.92260498      -0.00022000      -0.00788810       0.00042165
C        9.89388577       1.43836009       3.66114015       0.00815257      -0.00281664      -0.01040802
C        8.65654141       3.56102932       3.65202429       0.00077526       0.00525747      -0.00291543
C        7.40818137       5.68052299       3.79614570      -0.00000873       0.01192932       0.00556613
C        6.16043213       7.80668750       3.97513125      -0.00028294       0.00026167       0.00698783
C        4.94477869       9.97391672       3.86974224      -0.00852925      -0.01421472       0.00142246
Cd       2.05399988       5.44488671       6.44820128       0.01106109       0.00181213      -0.00015046
