51
Lattice="12.336457 0.0 0.0 -6.168228499999997 10.683685154694365 0.0 0.0 0.0 15.0" Properties=species:S:1:pos:R:3:initial_magmoms:R:1:forces:R:3 energy=-431.4709333541632 free_energy=-431.4709333541632 stress="0.0023896887637521055 -4.1444135189700436e-05 1.180470925388322e-05 -4.1444135189700436e-05 -0.011253770934146399 5.1172143290462434e-06 1.180470925388322e-05 5.1172143290462434e-06 1.1805183502807755e-05" pbc="T T T"
C       -0.01023241      -0.03346184       3.90301548       0.00000000       0.00000206       0.00008477       0.00184936
C       -1.22149823       2.14807462       3.78721880       0.00000000       0.00321423      -0.00187166      -0.00588316
C       -2.44862125       4.26873297       3.57738049       0.00000000      -0.00804648      -0.00121035      -0.00546004
C       -3.69577896       6.38602348       3.58475486       0.00000000      -0.00211400      -0.00453318       0.00363656
C       -4.96240092       8.49306806       3.74920725       0.00000000      -0.00126118       0.00334984       0.00544633
C        2.45749750      -0.10574846       3.94972303       0.00000000      -0.00541744      -0.00153924      -0.00789531
C        1.25691854       2.03997542       3.90163775       0.00000000       0.00057782      -0.00035876       0.00218376
C        0.05656416       4.27102945       3.61361186       0.00000000      -0.00785521       0.00610476       0.00495093
C       -1.19584601       6.39586063       3.61118224       0.00000000       0.00699103      -0.00168371       0.00630932
C       -2.46379178       8.49439030       3.80150589       0.00000000       0.00117637      -0.00165371       0.00452976
C        4.92046639      -0.02640726       3.85354920       0.00000000      -0.00133538       0.00375114      -0.00536935
C        3.64384910       1.99529276       3.61257674       0.00000000      -0.00100878       0.00256092       0.00215957
B        1.40515165       6.43324584       3.79779393       0.00000000      -0.00624530       0.00634319      -0.00094301
C        0.00451855       8.55271590       3.87430817       0.00000000      -0.00098315      -0.00630051      -0.00209464
C        7.37655340       0.05012912       3.89132370       0.00000000       0.00109806      -0.00022444       0.00243946
C        6.13264670       2.14189233       3.62756994       0.00000000       0.00566920       0.00740190      -0.00462806
C        4.93987614       4.28864496       3.26544144       0.00000000       0.00656745       0.00325591       0.01085572
S        3.32995336       6.40129306       2.91085806       0.00000000       0.00401041      -0.00992933       0.00985475
C        2.45199767       8.64913484       3.84147798       0.00000000      -0.00223887      -0.00120615       0.00461439
C        9.86908536       0.04439581       3.87578031       0.00000000       0.00793405       0.00278163       0.00751232
C        8.62819885       2.16158963       3.72427494       0.00000000       0.00179957       0.00083103      -0.00076740
C        7.38923412       4.27012101       3.51264722       0.00000000       0.00017417      -0.00484491       0.00349379
C        6.13724045       6.40312308       3.44559371       0.00000000      -0.00234137      -0.00294318      -0.00052652
C        4.90983059       8.55511797       3.66679824       0.00000000      -0.00172869      -0.00209128      -0.00307135
C        0.00281335       1.40127527       3.89977672       0.00000000       0.00195736      -0.00253417       0.00241300
C       -1.19640332       3.55861273       3.63029081       0.00000000      -0.00723947       0.00063172      -0.00289796
C       -2.44841583       5.68620690       3.56802380       0.00000000       0.00273069      -0.00122498       0.00096635
C       -3.70682140       7.79446412       3.70993098       0.00000000      -0.00100545      -0.00044721       0.00326587
C       -4.95966090       9.90367802       3.90139387       0.00000000      -0.00419378       0.00418460      -0.01109179
C        2.45068536       1.30535948       3.88700408       0.00000000      -0.00146317      -0.00217613       0.00078446
B        1.40067187       3.52101268       3.83370046       0.00000000       0.00486783       0.00575830      -0.00181010
C        0.05708421       5.68202940       3.60065895       0.00000000       0.00861648       0.00647103      -0.01031483
C       -1.22017966       7.80683526       3.76605611       0.00000000       0.00219282      -0.00436399       0.00183868
C       -2.46673717       9.90948484       3.89080137       0.00000000      -0.00341925       0.00055796      -0.00395509
C        4.90862581       1.40046592       3.69834155       0.00000000       0.00347045       0.00996941       0.00167163
S        3.32700554       3.55211222       2.95415355       0.00000000      -0.00035376       0.00121841      -0.00533882
C        1.25898715       7.91402128       3.85903842       0.00000000      -0.00164217      -0.00327787       0.00438881
C       -0.00953304       9.98705845       3.89488833       0.00000000      -0.00224518      -0.00437509       0.00256019
C        7.37266603       1.46281344       3.76193758       0.00000000       0.00252274       0.00259519      -0.00270857
C        6.13520648       3.55350543       3.46789452       0.00000000       0.00692018       0.00401278      -0.01151327
C        4.94116816       5.66731393       3.25070930       0.00000000      -0.00515342       0.00102634      -0.00332363
C        3.64578073       7.96065135       3.56696991       0.00000000      -0.00466572      -0.00043472      -0.00553812
C        2.45727700      10.05922846       3.92110033       0.00000000       0.00486842       0.00121902      -0.00496406
C        9.87131738       1.46063849       3.80967737       0.00000000       0.00420413       0.00301015       0.00447229
C        8.63973577       3.57020142       3.59932913       0.00000000      -0.00498652      -0.00254454       0.00118359
C        7.39014494       5.68622597       3.50283951       0.00000000      -0.00388783      -0.00810994       0.00307497
C        6.13499122       7.81491050       3.60195348       0.00000000       0.00088247      -0.00167499      -0.00305392
C        4.92031633       9.98063117       3.83704343       0.00000000       0.00347871      -0.00187430       0.00257170
Cd       1.94761110       4.99742216       5.51399488       0.00000000      -0.00282014       0.00058306       0.00958620
O        2.09265677       5.09588178       8.25266822       1.00000000      -0.00900743      -0.00202525      -0.01753517
O        3.06870652       5.03162878       7.38903540       1.00000000       0.00673244      -0.00224950       0.01207041
