50
Lattice="12.336457 0.0 0.0 -6.168228499999997 10.683685154694365 0.0 0.0 0.0 15.0" Properties=species:S:1:pos:R:3:forces:R:3 energy=-433.3546339983328 free_energy=-433.3546339983328 stress="-0.00171478165766439 -0.0029834987622422973 1.79244399439626e-05 -0.0029834987622422973 -0.0037679628254873904 1.1646254018774619e-05 1.79244399439626e-05 1.1646254018774619e-05 7.953041916246725e-06" pbc="T T T"
C       -0.00036296      -0.00625650       3.79010559      -0.00937752      -0.00412725      -0.00077527
C       -1.24642308       2.12651668       3.74333116       0.00488461      -0.00257540       0.00499503
C       -2.46097182       4.26987951       3.71393921      -0.00029650      -0.00088786       0.00479789
C       -3.68225712       6.40863168       3.74385783       0.01168596       0.00338876      -0.00531091
C       -4.91630700       8.54947520       3.80180123       0.00123756       0.00608430      -0.00346095
C        2.46842799      -0.00163442       3.70795634       0.00338042      -0.00564422       0.00173844
C        1.20345230       2.14497301       3.71062125       0.00422644      -0.00399207       0.00667099
C        0.01875760       4.21091827       3.79698081      -0.00189239       0.00113238      -0.00967231
C       -1.19490796       6.38837181       3.78426971       0.01124947      -0.00101150      -0.00086777
C       -2.44714541       8.54090557       3.74810313       0.00074629      -0.01035036      -0.00065958
C        4.93357493       0.00698950       3.61883329      -0.00058858       0.00084754       0.00518501
C        3.66674371       2.10939228       3.36046298       0.00462417       0.00069665       0.00008938
B        1.32477902       6.40630983       3.98844560      -0.00749562       0.00105904      -0.00247494
C        0.00915209       8.55663144       3.78349002      -0.00592684       0.00676961       0.00863278
C        7.39807326       0.01729552       3.69501475       0.00118912       0.00485758      -0.00263509
C        6.15729262       2.14908095       3.49212398      -0.00752662       0.01042481       0.01173183
C        4.96341761       4.32215575       3.44316033      -0.00547038       0.00306501      -0.00817605
C        3.69779176       6.41679542       3.94415099      -0.00542743       0.00238732       0.01134759
C        2.47687803       8.58113960       3.88772090      -0.00071400      -0.00428633      -0.00173066
C        9.86900303       0.00649059       3.78189083      -0.00487909       0.00020485      -0.00258228
C        8.62651199       2.14353110       3.66090078      -0.00094194      -0.00573728       0.00087032
C        7.40697749       4.28475201       3.62649035       0.00276905       0.00240253      -0.00352847
C        6.18286900       6.42935624       3.75261859       0.00055846       0.00071155       0.00302216
C        4.94501614       8.54775822       3.85878367       0.00540149       0.00463426      -0.00520272
C       -0.01678693       1.41402700       3.75473208       0.00188016      -0.00722714       0.00470542
C       -1.23960156       3.53931312       3.74047666      -0.00157256      -0.00066117      -0.00207865
C       -2.44968151       5.69237355       3.73933386       0.01272553       0.00149590      -0.00055569
C       -3.68231753       7.83347651       3.77188597      -0.00007260       0.00126502      -0.01024045
C       -4.92762536       9.96828024       3.78541230      -0.00464922       0.00310988      -0.00086485
C        2.45219015       1.41341610       3.59372353       0.00741610      -0.00368118       0.00405267
N        1.18624531       3.49935493       3.82176219      -0.00464792      -0.00162431       0.00363153
C        0.03130096       5.65268314       3.84320609       0.00607085      -0.00135440      -0.00948177
C       -1.20926186       7.82386069       3.76939627       0.00163917      -0.00418498       0.01135748
C       -2.45877280       9.96800496       3.69303275       0.00302794      -0.01103049      -0.00214339
C        4.92298898       1.43489291       3.47431147      -0.00021722       0.00301384       0.00215882
P        3.49106731       3.72890302       2.73441422       0.00297357      -0.00518696      -0.00370733
C        1.25627367       7.88324317       3.88509400      -0.00780620       0.00135985      -0.00382916
C       -0.00177101       9.98583224       3.69616126      -0.00001063       0.00778901       0.00263970
C        7.38964337       1.43846545       3.60894557      -0.00699605       0.00523372       0.00347201
C        6.16721937       3.57670573       3.50212335      -0.00474777       0.00890274       0.00699318
C        4.92384416       5.74140536       3.70205454      -0.00932184       0.00308556      -0.01047074
C        3.69811346       7.82084285       3.91299736       0.00628671       0.00187462      -0.00269689
C        2.46814456       9.99466007       3.79112653      -0.00196971      -0.00195937      -0.00193463
C        9.85783246       1.42520535       3.72743684       0.00344257      -0.00111259       0.00317258
C        8.63232802       3.56803959       3.66174185      -0.00031716      -0.00560887      -0.00507514
C        7.41182751       5.70790380       3.70461452       0.00805885       0.00428255      -0.00073830
C        6.18366750       7.84403488       3.81997738       0.00582400       0.00254025       0.00336988
C        4.93416147       9.96504252       3.82165211      -0.00794220       0.00110974      -0.00777545
Cd       2.57541287       5.15581926       5.38939119      -0.00255908      -0.00899142       0.01549427
O        2.51133600       4.41579773       7.19293171      -0.00793143      -0.00249370      -0.01145951
