52
Lattice="12.336457 0.0 0.0 -6.168228499999997 10.683685154694365 0.0 0.0 0.0 15.0" Properties=species:S:1:pos:R:3:forces:R:3 energy=-445.3121961365846 free_energy=-445.3121961365846 stress="-0.0031729716201154222 0.0007652160780243771 2.7536461545652753e-05 0.0007652160780243771 -0.0034803225864598725 9.186967396310997e-06 2.7536461545652753e-05 9.186967396310997e-06 -9.601767837994158e-07" pbc="T T T"
C       -0.00485145      -0.00880898       3.74212800       0.00094817      -0.00190907       0.00458829
C       -1.23712420       2.13120317       3.74564385       0.00531946      -0.00427697      -0.00475979
C       -2.49578610       4.27141622       3.60954114       0.00717953      -0.00725593       0.00893044
C       -3.72367298       6.40947669       3.56638053       0.00299519      -0.00326797      -0.00188393
C       -4.94014722       8.54660985       3.64155167      -0.00474674      -0.00166502      -0.00155720
C        2.47331645       0.00185224       3.73187528      -0.00256382      -0.00267320      -0.00934151
C        1.24731791       2.10171035       3.96937728      -0.00474261      -0.00500459       0.01572005
C       -0.07225522       4.28500592       3.92018182       0.00909603       0.00212703      -0.00208090
C       -1.25651187       6.41665674       3.68718971       0.00798117      -0.00385311      -0.01511383
C       -2.47607455       8.54823967       3.61963430      -0.00003591       0.00080729      -0.00327100
C        4.93177395       0.00198579       3.64116247      -0.00568178       0.00537115      -0.00183067
C        3.72647425       2.15752168       3.82760443      -0.00542351       0.00148292      -0.00864514
B        1.26587878       6.41665351       4.02999850      -0.00131341      -0.00043222       0.00367152
C       -0.01009677       8.55345589       3.70716640      -0.00345692       0.00151957      -0.00441148
C        7.40223130      -0.00200352       3.63211518      -0.00032823       0.00762166      -0.00840358
C        6.16901434       2.12892413       3.58911240      -0.00100966      -0.00727188      -0.00272633
C        4.91392336       4.22269948       3.74991397       0.00174103       0.00895793       0.00330954
C        3.70625126       6.40342434       3.99583439       0.00277405      -0.00170753      -0.01560685
C        2.46741967       8.56092041       3.81543071       0.00040792      -0.00692156       0.00975396
C        9.87080523      -0.00258258       3.69218535      -0.00161147       0.01193554      -0.00773250
C        8.63514881       2.13153612       3.58413594       0.00413150       0.01401816      -0.00005995
C        7.38307369       4.27006846       3.55038177      -0.01075233      -0.00628396      -0.00384570
C        6.14228091       6.40287847       3.64316278       0.00395344       0.00007463       0.00505778
C        4.93214662       8.53371592       3.74702161       0.00312327       0.00368292      -0.00965611
C       -0.00455695       1.41584449       3.82274748      -0.00153498      -0.00834984       0.00702502
C       -1.26559501       3.55327548       3.74200827       0.01066989      -0.00542596       0.00703082
C       -2.49599253       5.69895832       3.60008074       0.00723959      -0.00767858      -0.00248027
C       -3.71222074       7.83526613       3.59606120      -0.00112883      -0.00000637       0.01350775
C       -4.93622268       9.96888318       3.70765207       0.00083920      -0.00502103      -0.00243455
C        2.48404305       1.42007674       3.86342271      -0.00692653      -0.00338552      -0.00024971
B        1.17198226       3.53813909       4.22011322      -0.00814350      -0.00632785      -0.00387387
C       -0.04859786       5.69667557       3.85982054       0.00798678       0.00363774       0.00538941
C       -1.24426502       7.83891809       3.66222287       0.00028954      -0.00079471      -0.00176990
C       -2.46997756       9.97092001       3.65675940      -0.00105370       0.00063501       0.00234303
C        4.94380907       1.42243012       3.66210421      -0.00478065      -0.00093111      -0.00033794
N        3.78108227       3.50532863       3.94557071       0.00528656       0.00401278      -0.01454412
C        1.23573118       7.87670913       3.83973719      -0.00389520      -0.00552997       0.00452132
C       -0.00322223       9.97365311       3.63959694      -0.00542819       0.00485905       0.01457758
C        7.40410219       1.41903321       3.57753332       0.00832857       0.00821185       0.00431457
C        6.16105018       3.54689219       3.59215408      -0.00835145      -0.00647299      -0.00141575
C        4.88169324       5.69189608       3.77679710       0.00962556       0.00668790       0.01163708
C        3.68785010       7.79870959       3.86062509       0.00645696      -0.00517375      -0.00184931
C        2.47079272       9.97543995       3.69776803      -0.00043887       0.00043174       0.00963278
C        9.86923382       1.41911330       3.65719462      -0.00041231       0.01395746      -0.00438254
C        8.61951084       3.55723784       3.55753771      -0.00219701       0.00658262       0.00086757
C        7.37394704       5.69633456       3.56718427      -0.00333344      -0.00693812       0.00481119
C        6.15696976       7.82719276       3.66980429      -0.00154682      -0.00080324       0.00160380
C        4.93130480       9.95736218       3.72423561      -0.00226024       0.00699307      -0.00644542
Cd       2.44760885       5.03235926       5.29929006      -0.00176956       0.00993117      -0.00445372
O        3.38664005       4.95744276       7.24456680      -0.00204998      -0.00714643       0.01402160
O        2.30880199       5.01813508       8.24699314      -0.00692309      -0.00396047      -0.00265208
H        2.86229227       5.02324328       9.04860079      -0.00253263       0.00292975      -0.00449942
