49
Lattice="12.336457 0.0 0.0 -6.168228499999997 10.683685154694365 0.0 0.0 0.0 15.0" Properties=species:S:1:pos:R:3:forces:R:3 energy=-429.1233689588118 free_energy=-429.1233689588118 stress="0.0008779800998203074 -0.0008237007308827745 1.0065841066568895e-06 -0.0008237007308827745 0.001302496231839884 6.868678758503977e-06 1.0065841066568895e-06 6.868678758503977e-06 -6.715484065540122e-07" pbc="T T T"
C        0.00673965      -0.01042444       3.66245259       0.00173762       0.00807806      -0.00480958
C       -1.24039615       2.12002860       3.63425232      -0.01017573      -0.00301489      -0.00312420
C       -2.47378465       4.26646836       3.61781878      -0.00102132       0.00013776      -0.00478428
C       -3.70162472       6.40300730       3.62351643       0.00931114       0.00305619       0.00191715
C       -4.92654425       8.54322621       3.64635916       0.00521461      -0.00273287       0.01063282
C        2.46981357       0.03624180       3.66656475       0.00178209      -0.00218303       0.01022349
C        1.19762187       2.13138097       3.71142770       0.00438299       0.00016471      -0.00504495
C       -0.02902078       4.21593226       3.73010821       0.00650310      -0.00557487       0.00330471
C       -1.21284892       6.37875481       3.69224844      -0.00614211       0.00819305       0.00284539
C       -2.46203515       8.53883538       3.65121421      -0.00636969       0.00089454       0.00378858
C        4.92677491      -0.00035309       3.66906318      -0.00210570      -0.00457536      -0.00226068
C        3.73068499       2.13856564       3.74335545      -0.00812945      -0.00217756      -0.00307910
B        1.27079448       6.40038694       4.06292015       0.00798371       0.00137428       0.00487109
C       -0.00189633       8.54431334       3.74590954      -0.00378311      -0.00018274       0.01060230
C        7.40014935      -0.00205328       3.69092517       0.00305075      -0.00416998      -0.00140398
C        6.16488591       2.13328669       3.66355976       0.00412273      -0.00468734      -0.00178855
C        4.94932779       4.23956866       3.79601227      -0.00737985       0.00472442      -0.00528450
C        3.70521203       6.40015800       4.06419946      -0.00616208      -0.00299445       0.00695746
C        2.47205163       8.55123650       3.84737900       0.00096980      -0.00041413       0.00021100
C        9.87183736      -0.01018119       3.68852015      -0.00651120       0.00197885      -0.00090470
C        8.63196391       2.13168145       3.63384830       0.00438665      -0.00405218      -0.00233093
C        7.39365246       4.27305095       3.63964098       0.00777614      -0.00012868      -0.00261077
C        6.15225638       6.39373530       3.69324910       0.00817667       0.00010287      -0.00261006
C        4.94340564       8.53074536       3.74210211      -0.00282627       0.00387684       0.00305840
C        0.00391640       1.42040519       3.65867063      -0.00041470       0.00687176      -0.00992349
C       -1.24399598       3.53479302       3.63052382      -0.00181396      -0.00460229       0.00364697
C       -2.46513654       5.68651299       3.62980940      -0.00002678       0.00379390      -0.00108739
C       -3.69681412       7.82920499       3.63299458       0.00321785      -0.00435402      -0.00184336
C       -4.92345796       9.97847928       3.65628312       0.00429352      -0.00271014       0.00276877
C        2.46689870       1.48621445       3.70786973      -0.00394059      -0.00218690       0.00511347
O        1.14582556       3.50230408       3.82376737       0.01376098      -0.00133793       0.00404191
C        0.01372981       5.62724889       3.79220569      -0.00177273      -0.00091607      -0.00502560
C       -1.22489198       7.81412494       3.69469268      -0.00861340       0.00771147       0.01365612
C       -2.47312994       9.97885731       3.66050088      -0.00197309      -0.00256791       0.00523702
C        4.92419001       1.43226200       3.68004474      -0.00567509       0.00024106      -0.00672790
O        3.79012966       3.50560999       3.90522397      -0.01259253       0.00147371      -0.01307505
C        1.24159787       7.86328845       3.87396514       0.00191289       0.00690322       0.00210738
C       -0.00533798       9.97231966       3.69377244      -0.00074506      -0.00263495       0.00464035
C        7.39246207       1.42422582       3.65238052       0.00810963      -0.00624360      -0.00144719
C        6.15795250       3.55356270       3.68009088      -0.00030218      -0.00022079       0.00029149
C        4.88799216       5.67166957       3.82711997      -0.00408568       0.00601229      -0.01392218
C        3.69894785       7.79266809       3.88317358      -0.00246749      -0.00475063      -0.00328102
C        2.47098294       9.97172998       3.73345585       0.00072966      -0.00019474       0.00472396
C        9.87078796       1.41497136       3.64212962      -0.00576868      -0.00108265      -0.00912737
C        8.62721661       3.55779792       3.61929990       0.00565811      -0.00374018      -0.01008316
C        7.38855136       5.69339998       3.63925744       0.01130855       0.00228376       0.00256399
C        6.17085600       7.82104432       3.68616034       0.00100572       0.00377979       0.00885341
C        4.93865704       9.95305872       3.69270625      -0.00570850       0.01114367      -0.00060582
Cd       2.48044236       5.34520292       5.54197380       0.00111207      -0.00836531       0.00012856
