50
Lattice="12.336457 0.0 0.0 -6.168228499999997 10.683685154694365 0.0 0.0 0.0 15.0" Properties=species:S:1:pos:R:3:forces:R:3 energy=-430.445576190124 free_energy=-430.445576190124 stress="0.0018842846416857416 -0.003495196817596421 -1.552927699102318e-05 -0.003495196817596421 -0.0016171005422947235 1.0941960632604981e-05 -1.552927699102318e-05 1.0941960632604981e-05 2.839149096130519e-06" pbc="T T T"
C        0.00416160      -0.00386659       3.79817227      -0.00813535       0.00470854      -0.00938228
C       -1.24442685       2.13840288       3.76786450      -0.00137672      -0.00345126      -0.00434984
C       -2.45890890       4.28370088       3.74613889       0.00963030       0.00557959      -0.00544530
C       -3.67684071       6.41732559       3.76616756      -0.00267443      -0.00317590      -0.00492581
C       -4.91462976       8.55314873       3.81520493      -0.00237787       0.00070520       0.00175192
C        2.46769258       0.01259295       3.74027064      -0.00505847       0.00174249      -0.00416527
C        1.18947485       2.11704128       3.73779415       0.00420022       0.00134576      -0.00830960
C       -0.00624355       4.22118849       3.86025744       0.00090124       0.00187652       0.00035269
C       -1.17354541       6.38366064       3.81244742       0.00091652      -0.00255713      -0.00243553
C       -2.44162312       8.54208481       3.78085334       0.00589073       0.00212797       0.00494053
C        4.93232120       0.01178937       3.65678851       0.00484156       0.00283622      -0.00310816
C        3.66948326       2.09476477       3.31619897      -0.00007237       0.00932105       0.01197628
B        1.37498800       6.40627168       3.99734456       0.00124388       0.00344682      -0.00468696
C        0.01616698       8.56013113       3.81148530      -0.00014677      -0.00867736      -0.00441119
C        7.39417438       0.03201418       3.70848437       0.00099827      -0.00206288       0.00324223
C        6.14723992       2.16849176       3.48653813      -0.00769415      -0.00654533      -0.00564556
C        4.97987135       4.35055565       3.33690872      -0.00115993      -0.00580995       0.01214760
C        3.66783953       6.42174251       3.94635978       0.01162638       0.00144857      -0.00610798
C        2.47817510       8.59488944       3.88627974      -0.00323163       0.00295461      -0.00045071
C        9.86958646       0.01958331       3.78123821       0.00303098      -0.00455092      -0.00254253
C        8.62498693       2.15893366       3.67542128      -0.00414867       0.01075562       0.00064530
C        7.40709101       4.30012453       3.63569439      -0.00921301      -0.00098683      -0.00636619
C        6.17337729       6.43404928       3.74514309       0.00235501       0.00201471      -0.00257856
C        4.94514508       8.55470396       3.84642538      -0.00323232      -0.00447257       0.00200066
C       -0.00834087       1.42439862       3.77241010       0.00168570       0.00426327      -0.00475503
C       -1.23195470       3.55142962       3.78029301       0.00446804      -0.00284281       0.00304729
C       -2.43532929       5.69970942       3.77034512       0.00177756       0.00182378      -0.00523072
C       -3.67827342       7.83916479       3.79432639       0.00298823      -0.00073988      -0.00041411
C       -4.92632030       9.97722842       3.80631127      -0.01048272       0.00304948      -0.00452108
C        2.43968948       1.44122458       3.61893879       0.00328440       0.00222314       0.00090038
O        1.15647032       3.47576702       3.95200731       0.00013727       0.00104038      -0.01071033
C        0.06481269       5.63480037       3.86839356       0.00153617       0.00348137       0.00523678
C       -1.19961372       7.82053910       3.80067061       0.00117005      -0.00599134       0.00345113
C       -2.45972497       9.97508911       3.73040359       0.00329353       0.00615926       0.00375824
C        4.91463331       1.44427789       3.48237529      -0.00464629       0.00298837       0.00799547
S        3.61410146       3.65411368       2.57042499       0.00480908      -0.00502606       0.00124163
C        1.26402090       7.88623413       3.89858426       0.00037874       0.00002944       0.00492243
C        0.00106407       9.99269485       3.72565807       0.00263404      -0.00682557       0.00661187
C        7.38040567       1.45779312       3.62031742      -0.00469773       0.00107779       0.00224912
C        6.16360117       3.59536036       3.47944321      -0.00705677      -0.00956158      -0.00253662
C        4.90087602       5.74670389       3.67158987       0.01014228      -0.00324224       0.01066904
C        3.69678678       7.83171543       3.90339505      -0.00481848       0.00011816       0.00669247
C        2.46726576      10.01104151       3.79218296       0.00249093       0.00084973      -0.00151027
C        9.86489999       1.44198439       3.73997472      -0.00416803      -0.00172122      -0.00117157
C        8.63547903       3.58065615       3.68312465       0.00142396       0.01425469      -0.00092029
C        7.41074319       5.71976649       3.71309119      -0.00579186      -0.00236172       0.00038522
C        6.18242929       7.85098134       3.81942575      -0.00179010       0.00031322       0.00512008
C        4.93487661       9.97448204       3.81574776      -0.00063598      -0.00556329       0.00804599
Cd       2.59854992       5.34615570       5.55727872      -0.00804199       0.00397856      -0.00677363
O        2.28039842       4.34317646       7.19302760       0.01279659      -0.01034845       0.00607075
