52
Lattice="12.336457 0.0 0.0 -6.168228499999997 10.683685154694365 0.0 0.0 0.0 15.0" Properties=species:S:1:pos:R:3:initial_magmoms:R:1:forces:R:3 energy=-448.2467725876149 free_energy=-448.2467725876149 stress="-0.005222970091331177 0.0022725130581811408 7.151903180071612e-06 0.0022725130581811408 -0.007910935229415042 -5.6802193113850295e-06 7.151903180071612e-06 -5.6802193113850295e-06 -5.45395507146214e-06" pbc="T T T"
C       -0.04581369      -0.02105293       3.63181762       0.00000000      -0.01234185       0.00417260      -0.00480204
C       -1.27226488       2.11927833       3.65443573       0.00000000       0.00426049      -0.00470796      -0.00133844
C       -2.50724603       4.25701301       3.64607474       0.00000000       0.00410154       0.00767242       0.01317937
C       -3.74805733       6.38912438       3.62362978       0.00000000       0.00393628       0.00031382      -0.00122129
C       -4.99326637       8.51921479       3.58692074       0.00000000       0.00015139       0.00013731      -0.00172875
C        2.41888305      -0.02607360       3.74070418       0.00000000      -0.01196409       0.00120716      -0.00273384
C        1.19382361       2.11774220       3.72074180       0.00000000      -0.00269782      -0.01137354       0.00244886
C       -0.05546216       4.24641387       3.67743031       0.00000000       0.00231161       0.00993263      -0.00042787
C       -1.27545965       6.39292522       3.71110301       0.00000000      -0.00307413       0.00996869      -0.00683234
C       -2.51956335       8.52605945       3.73256168       0.00000000       0.00679071      -0.00765792       0.01006835
C        4.88996377      -0.02006182       3.84065925       0.00000000      -0.00382256       0.00096558       0.00486797
C        3.67019637       2.09845661       3.84037799       0.00000000      -0.00268418       0.01214638       0.00340074
B        2.46311326       4.35750653       3.90932864       0.00000000       0.00604797      -0.00155303      -0.00194846
B        1.30009193       6.37391065       3.89319458       0.00000000       0.00156934       0.00616378       0.00485946
C       -0.05384608       8.54804719       3.83186459       0.00000000       0.00128898      -0.00492027      -0.00179829
C        7.35686336       0.00269936       3.83107366       0.00000000       0.01025471      -0.00866285      -0.00859067
C        6.14238137       2.10676763       3.83279770       0.00000000       0.00007854      -0.00078657      -0.00359749
C        4.94258127       4.20935872       3.69310429       0.00000000       0.00063436      -0.00549834       0.00308611
P        3.26909440       6.16765775       3.03122294       0.00000000       0.00757523      -0.01794981      -0.00969669
C        2.41019554       8.59722749       3.67862421       0.00000000      -0.00963704       0.00510920       0.00649141
C        9.83460100       0.00045082       3.68156188       0.00000000       0.00662190      -0.00473406      -0.00573538
C        8.60378260       2.12471098       3.74025377       0.00000000       0.00326847       0.00375696       0.00273440
C        7.37898635       4.25298756       3.68187773       0.00000000      -0.00636327       0.00502928      -0.00756471
C        6.11089089       6.37593051       3.49177570       0.00000000       0.00119422      -0.01186054      -0.00838505
C        4.87057369       8.52579038       3.48392901       0.00000000       0.00088445       0.00692473       0.00578481
C       -0.04083356       1.40317494       3.66399500       0.00000000      -0.00174568      -0.00515147      -0.00088867
C       -1.28478350       3.53733432       3.64178576       0.00000000       0.00376475      -0.00024524      -0.00379867
C       -2.51186219       5.68124689       3.65295634       0.00000000       0.00221410       0.00827209       0.00568957
C       -3.75464136       7.81343521       3.64059994       0.00000000       0.00512933      -0.00213769       0.00686512
C       -4.98387761       9.94445687       3.64766303       0.00000000      -0.01724171       0.00665373      -0.00219055
C        2.42450167       1.39226064       3.78254045       0.00000000       0.00151379       0.00303807      -0.00673806
C        1.17433739       3.54404032       3.74081998       0.00000000      -0.00170641      -0.00711028       0.00239877
C       -0.04945905       5.66292276       3.73328182       0.00000000      -0.00253214       0.01584637      -0.00494940
C       -1.28826012       7.82177689       3.77248030       0.00000000       0.00609247      -0.00117471      -0.00455431
C       -2.51557146       9.94899482       3.78002624       0.00000000      -0.00792316      -0.00579395      -0.00377850
C        4.90469874       1.39396709       3.85220631       0.00000000      -0.00528389       0.00785449       0.00518410
C        3.72003310       3.51046649       3.82641206       0.00000000       0.00301354       0.00501829       0.00141450
C        1.19428190       7.88639073       3.81259112       0.00000000      -0.00433043      -0.00179784       0.00315848
C       -0.04668878       9.96945753       3.84986045       0.00000000       0.00313738      -0.00506423      -0.00399800
C        7.37080060       1.41333607       3.81761020       0.00000000       0.00279780      -0.00432809      -0.00458927
C        6.16936044       3.51994030       3.75667550       0.00000000      -0.00266219      -0.00032341      -0.00060085
C        4.91709660       5.60612053       3.45453007       0.00000000      -0.00137389      -0.01161242      -0.00114325
C        3.60694094       7.87809040       3.43700432       0.00000000      -0.00669056       0.01451782       0.02990627
C        2.42595866      10.00368142       3.75060605       0.00000000       0.00893990      -0.00204288      -0.00552602
C        9.83433151       1.41663332       3.69394530       0.00000000       0.00459066      -0.00521524       0.00000772
C        8.60546109       3.54408274       3.68945739       0.00000000      -0.00121108       0.00941836       0.00564028
C        7.35838373       5.67452394       3.59485879       0.00000000       0.00289415      -0.00110445      -0.00466933
C        6.10920918       7.80776043       3.48811968       0.00000000       0.00378003      -0.00946692       0.00146021
C        4.88762356       9.95595563       3.59489704       0.00000000       0.00017247       0.00274098      -0.00890622
Cd       2.30082241       5.61570420       5.82467788       0.00000000       0.00273998      -0.00263024      -0.00595883
O        3.17423998       5.58995359       8.17923500       1.00000000       0.00768256       0.01371430      -0.01627803
O        3.77025209       6.46900369       7.39950056       1.00000000      -0.01414703      -0.01567110       0.02632278
