50
Lattice="12.336457 0.0 0.0 -6.168228499999997 10.683685154694365 0.0 0.0 0.0 15.0" Properties=species:S:1:pos:R:3:forces:R:3 energy=-435.1310770572805 free_energy=-435.1310770572805 stress="-0.002787280398123357 -0.0018192387321298228 8.109188396471187e-06 -0.0018192387321298228 -0.003388467660551237 -8.529151060590766e-06 8.109188396471187e-06 -8.529151060590766e-06 -1.1589094688328367e-05" pbc="T T T"
C       -0.00196856       0.01261415       3.57557307      -0.00183920      -0.00563143      -0.00083871
C       -1.25746315       2.13184948       3.65612722       0.00255982      -0.00573556       0.00204591
C       -2.49500265       4.27860609       3.71670404      -0.00454328       0.00018587      -0.00249923
C       -3.70177323       6.42078951       3.66294192      -0.00376811       0.00480328       0.00170987
C       -4.93576450       8.55565871       3.53854573      -0.00163961       0.00858721       0.00180917
C        2.46682118       0.01360058       3.74592402       0.00214094      -0.00313447      -0.00426164
C        1.21386380       2.13287077       3.83063116       0.00064474      -0.00102507       0.00636733
C       -0.06449227       4.23081047       3.93354906      -0.00790475      -0.00004778       0.00214223
C       -1.24674964       6.40907657       3.92998599       0.00051953       0.00065957       0.01072366
C       -2.45873087       8.55288066       3.78835653      -0.00167052      -0.00217533       0.00204456
C        4.93143053       0.01468259       3.81858908       0.00190579      -0.00138745      -0.00219500
C        3.68980367       2.17552540       3.87461481      -0.00114659      -0.00157207       0.00279114
B        2.40067817       4.35730420       4.34131238       0.00250500      -0.00110305      -0.00850625
P        1.51795770       6.23152639       4.53368604      -0.01599717       0.00714080      -0.00501877
C        0.02283738       8.54821071       3.89454505       0.00096941      -0.00153725      -0.00194450
C        7.39078456       0.02012590       3.71024991       0.01105444       0.00230352      -0.00043240
C        6.15769414       2.15099426       3.76182002      -0.00074203       0.00488871      -0.00460006
C        4.92903259       4.29061982       3.64475008      -0.00291258      -0.00502505      -0.00781648
S        3.60139148       6.34354964       2.48108977       0.01206975      -0.00853973      -0.00691857
C        2.47657543       8.59193258       3.54401422      -0.00015659      -0.00483832      -0.00451840
C        9.86419795       0.02009529       3.53033745       0.00316129       0.00789368       0.00252246
C        8.61817590       2.14843618       3.65247793      -0.00079451      -0.00223024      -0.00416623
C        7.38938870       4.28763917       3.63842907       0.00608784      -0.00435045      -0.00310063
C        6.17331891       6.42319349       3.38183728       0.00049358       0.00049642      -0.00040544
C        4.93976877       8.56850118       3.31393935      -0.00087320       0.00760240       0.00251392
C       -0.01708104       1.42538338       3.67745905       0.00251485      -0.00894577       0.00736393
C       -1.28394464       3.54428170       3.74582989      -0.00671444      -0.00378692      -0.00490712
C       -2.48077480       5.70290583       3.77141744      -0.00371651       0.00239146       0.00673746
C       -3.69643414       7.84580718       3.66388143      -0.00382118       0.00555438      -0.00157312
C       -4.93312126       9.98404897       3.61452681      -0.00038145       0.00334399       0.00147646
C        2.46257356       1.43598059       3.83363228       0.00128420      -0.00319896      -0.00281920
C        1.16540869       3.53541126       3.99889917      -0.00252614       0.00706971       0.00316083
C       -0.07134288       5.63707089       4.09508727       0.00010396       0.00013165       0.00828900
C       -1.22398154       7.83931623       3.90161301       0.00084546      -0.00086738      -0.00236665
C       -2.46696050       9.98107484       3.79062004       0.00117706      -0.00439890      -0.00138742
C        4.92438813       1.44390600       3.81884722      -0.00121368       0.00200202      -0.00246349
C        3.69707511       3.61984362       3.91988215      -0.00130202       0.00249052       0.00165651
C        1.29404272       7.87899898       3.89430005      -0.00279556      -0.01092286      -0.00583648
C       -0.00036834       9.98177608       3.80686931       0.00565459       0.00170355      -0.00101604
C        7.38753713       1.44002175       3.70640865       0.00043551       0.00294019       0.00394977
C        6.16368979       3.57426223       3.69224276       0.00333728       0.00181248      -0.00343856
C        4.98775922       5.66341272       3.25917740      -0.00581997      -0.00469366       0.00085443
C        3.69096321       7.92751106       3.18714662      -0.00023218      -0.00054938       0.00139883
C        2.46140618      10.00832472       3.58265542       0.00986412       0.00304033      -0.00398979
C        9.85118633       1.43456748       3.60201751       0.00017744       0.00461713      -0.00035355
C        8.61545325       3.57049016       3.66509738       0.00079067      -0.00677386       0.00242207
C        7.40172897       5.71060760       3.56721396       0.00023658      -0.00280124       0.00457215
C        6.17212251       7.84796594       3.36209527       0.00087159       0.00609504      -0.00052147
C        4.93400445       9.99355721       3.46787597      -0.00277512       0.00510908       0.00412761
Cd       2.66117307       5.23708571       6.58583198       0.00388097       0.00240921       0.00721589
