51
Lattice="12.336457 0.0 0.0 -6.168228499999997 10.683685154694365 0.0 0.0 0.0 15.0" Properties=species:S:1:pos:R:3:forces:R:3 energy=-442.5554278222505 free_energy=-442.5554278222505 stress="-0.004395676385898966 0.001636224397422879 -3.145337587554695e-05 0.001636224397422879 -0.006286583366783002 -1.8279096806484936e-05 -3.145337587554695e-05 -1.8279096806484936e-05 2.191741147414023e-05" pbc="T T T"
C        0.00326447       0.00032607       3.63839586       0.00241493       0.00158281       0.00450029
C       -1.22568487       2.13703289       3.65722435      -0.00271792       0.00221336      -0.00065754
C       -2.46163385       4.27776731       3.65758480       0.00054641      -0.00353613      -0.00087997
C       -3.69764272       6.41042227       3.63896939       0.00292749       0.00139276       0.00400563
C       -4.94127400       8.54144755       3.60127230       0.00217355       0.00134374      -0.00124055
C        2.46922438      -0.00199395       3.75586876      -0.00043367       0.00039495       0.00117850
C        1.24275171       2.14235797       3.71320458      -0.00190644      -0.00041181      -0.00354126
C       -0.01403549       4.26378216       3.65589270       0.00217607       0.00128898      -0.00670170
C       -1.22290369       6.41282557       3.71526012      -0.00092431      -0.00116996      -0.00388964
C       -2.46667315       8.54716470       3.75714193       0.00003443      -0.00094553       0.00071497
C        4.94059601       0.00182325       3.87436910      -0.00460063      -0.00271759       0.00399422
C        3.71552704       2.13015987       3.86361701       0.00004912      -0.00228261      -0.00641522
B        2.49947356       4.40771139       3.86730914      -0.00188812       0.01107625      -0.00482133
B        1.36727032       6.36840458       3.86962024       0.00829109      -0.00739459      -0.00465448
C        0.00299984       8.56035863       3.86665990      -0.00199240       0.00128656      -0.00681741
C        7.40752523       0.02003354       3.86921067       0.00004730      -0.00299507       0.00251048
C        6.18983413       2.12909046       3.86722293      -0.00246449       0.00152806       0.00312956
C        4.98877371       4.23610623       3.71743733      -0.00496885       0.00274395       0.00244082
P        3.32695256       6.19308940       2.97180054      -0.00738136      -0.00475920      -0.00117956
C        2.46351144       8.60996159       3.72104618      -0.00013853      -0.00544418       0.00184636
C        9.88341204       0.01745893       3.70818798      -0.00089580       0.00355191       0.00244541
C        8.65143882       2.14425458       3.76780897      -0.00492126      -0.00287012       0.00056796
C        7.42557882       4.27455291       3.70658231       0.00241064      -0.00225918       0.00260959
C        6.16045407       6.39707748       3.50299018       0.00353658      -0.00109331       0.00272849
C        4.92067281       8.54428856       3.50410532       0.00111746       0.00384264       0.00254451
C        0.00762078       1.42443066       3.66178299      -0.00315704       0.00055014       0.01058724
C       -1.24002817       3.55591864       3.63722690       0.00217411       0.00121174      -0.00273410
C       -2.46217560       5.70214333       3.66291391      -0.00060832      -0.00293057       0.01023738
C       -3.70238721       7.83540777       3.65971898       0.00194051       0.00163098      -0.00560967
C       -4.93327238       9.96739502       3.65897887       0.00245286       0.00099630      -0.00505721
C        2.47375588       1.41778941       3.79203584      -0.00080620      -0.00029067      -0.00541672
C        1.22211412       3.56795423       3.71563117       0.00033136      -0.00027588       0.00026772
C        0.00137437       5.68216296       3.71733292      -0.00007546       0.00042384       0.00005736
C       -1.23485791       7.84118005       3.79440755      -0.00057755      -0.00043499      -0.00570366
C       -2.46486355       9.97122361       3.80486243      -0.00351975      -0.00234912       0.00593779
C        4.95108543       1.41902856       3.88624377      -0.00064036      -0.00284240       0.00249828
C        3.75706839       3.54553608       3.84000974      -0.00379383      -0.00058219       0.00502395
C        1.24954792       7.88861777       3.84364680      -0.00246607      -0.00311312       0.00476025
C        0.00494622       9.98597560       3.88823108      -0.00279457       0.00088587       0.00197860
C        7.41896010       1.43268267       3.85148111      -0.00409203      -0.00248887      -0.00033919
C        6.21416677       3.54367507       3.78819135      -0.00305081       0.00326535       0.00193078
C        4.96611388       5.63133432       3.46117292      -0.00092712       0.00291994       0.00062620
C        3.66028236       7.89279198       3.46343890       0.00231219      -0.00161810       0.00031434
C        2.47658490      10.01744133       3.79120961       0.00122683      -0.00399412       0.00127935
C        9.88183589       1.43439404       3.71415517      -0.00409265       0.00314388      -0.00487886
C        8.65187835       3.56473433       3.71366577       0.00042971      -0.00510115      -0.00486173
C        7.40815929       5.69559297       3.61121097       0.00547171      -0.00143899       0.00452198
C        6.16161750       7.82927328       3.50039696       0.00232072       0.00118015       0.00030533
C        4.93709485       9.97557867       3.61206834       0.00124744       0.00558234       0.00457047
Cd       2.21007872       5.54621442       5.94952236       0.01080888       0.00541383      -0.01021852
O        2.36012038       5.62597244       7.88130383       0.00939412       0.00588914      -0.00449549
