52
Lattice="12.336457 0.0 0.0 -6.168228499999997 10.683685154694365 0.0 0.0 0.0 15.0" Properties=species:S:1:pos:R:3:forces:R:3 energy=-439.58534709513464 free_energy=-439.58534709513464 stress="-0.002897309839889536 -0.001097491734670009 5.352559317724336e-05 -0.001097491734670009 -0.00525059647811976 2.6674319731621034e-05 5.352559317724336e-05 2.6674319731621034e-05 1.0889043873665506e-05" pbc="T T T"
C        0.01548320      -0.04899749       3.53257369      -0.00381950       0.00294335       0.00065511
C       -1.22011043       2.09898687       3.53013704      -0.00936501      -0.00323653       0.00088675
C       -2.45703034       4.23082412       3.67162400      -0.00308603       0.00925556       0.00513387
C       -3.68119159       6.36625181       3.64504653      -0.00453411       0.00316101       0.00088723
C       -4.91569636       8.49722772       3.57505735       0.01164599      -0.00261949      -0.00951606
C        2.48695731      -0.09287646       3.65217814       0.00001932      -0.00533319       0.00115686
C        1.27049266       2.02500508       3.42278283       0.00922366       0.00426921       0.00280871
C       -0.00444570       4.28557317       3.66449830       0.00321777      -0.00510619      -0.00308144
C       -1.24219136       6.37855215       3.85608056      -0.00919692       0.00907966      -0.00660071
C       -2.44695079       8.49518792       3.74438799      -0.00274144      -0.01029076      -0.00265190
C        4.95786278      -0.05944887       3.83421050      -0.00484209      -0.00206709      -0.00391348
C        3.68476495       2.00976934       3.95013497       0.00120319       0.00269985       0.00104492
C        1.14639797       6.39918809       4.38055722      -0.01150247       0.00178907      -0.00092861
C        0.02564222       8.49395215       3.92571835       0.00792070       0.00021783      -0.01086683
C        7.42443137      -0.04811117       3.82193653       0.00553594      -0.00565536       0.00204826
C        6.17256051       2.10842146       3.83828560       0.01027318       0.00014533       0.00614125
C        4.96030345       4.33539080       3.82703773      -0.00766482       0.00751172       0.00989878
O        3.82611919       6.44989711       3.84824913       0.00062612       0.00072833      -0.01150841
C        2.51606949       8.47906901       3.90905651      -0.00030142       0.00739799      -0.00393354
C        9.88144301      -0.04695166       3.66049025      -0.00191338      -0.00081834       0.00665687
C        8.64521298       2.09511914       3.68631081       0.00023133      -0.00619089       0.00430936
C        7.40734391       4.23754293       3.67106162       0.00237833       0.00513613       0.00177442
C        6.20656855       6.39537501       3.55899138       0.01015490       0.00245812      -0.00421022
C        4.96198564       8.51572382       3.62692329       0.00058064      -0.00602191      -0.00356070
C        0.01529844       1.37830485       3.47197861       0.00235938       0.00445429      -0.00930601
C       -1.20794182       3.53012097       3.61322641      -0.00216982      -0.00083484      -0.00218528
C       -2.45586044       5.65498334       3.72147825      -0.00906163       0.01138932      -0.00237454
C       -3.67698852       7.78700626       3.64489164       0.00309875      -0.00936546       0.00181908
C       -4.92089509       9.91319869       3.57113832       0.00231172      -0.00301868       0.00078253
C        2.47936197       1.31133783       3.66731713       0.00390237      -0.00510374       0.00032833
P        1.52071249       3.70434911       2.95495260       0.00445968       0.00566180       0.00587564
C        0.00012197       5.68902501       3.97564956      -0.01034170       0.00235616      -0.00373530
C       -1.21762526       7.79263129       3.85567471       0.00141367       0.00722285       0.00732579
C       -2.44042463       9.90710630       3.75164198      -0.00298778      -0.01137028      -0.00863631
C        4.94813920       1.37018084       3.89252392       0.00044250       0.00588438       0.00935906
P        3.41844371       3.68338408       4.40489465      -0.00099629       0.00077529       0.00895515
C        1.25948332       7.74971598       4.07521968       0.00702881       0.00378941       0.00196980
C        0.02524195       9.91604094       3.86116481       0.00074818      -0.00133186      -0.00009709
C        7.40884097       1.38591241       3.77778113       0.01000806      -0.01248212       0.00908543
C        6.16082076       3.54703121       3.77278586      -0.00047839       0.00361117      -0.00133308
C        5.00165759       5.72901770       3.69002386       0.00589725       0.00350867      -0.00531325
C        3.76330476       7.82401047       3.79198742      -0.00509170      -0.00143452      -0.00868603
C        2.49369265       9.90530386       3.79263279       0.00462670       0.00370945       0.01643348
C        9.88368181       1.38669032       3.61780564      -0.00793942      -0.00297954       0.00076773
C        8.64628285       3.52044843       3.66739505       0.00192024       0.00066784       0.00395822
C        7.42634545       5.65531657       3.60259730       0.00329079       0.00306176      -0.00587579
C        6.19666155       7.80760135       3.55722264       0.01115050       0.00028230      -0.00582720
C        4.94744373       9.93662755       3.59781874      -0.00660660      -0.00222231       0.00879243
Cd       2.32903272       5.44038551       5.92150065      -0.00731005      -0.00233248      -0.00123657
O        3.03475891       5.69838702       7.86287226      -0.00274320      -0.01334217      -0.00176244
O        1.81569557       5.98772154       8.65321982       0.00110538      -0.00601465       0.00735100
H        1.98177344       5.36499796       9.38651088      -0.01208125       0.00600457      -0.00906526
