50
Lattice="12.336457 0.0 0.0 -6.168228499999997 10.683685154694365 0.0 0.0 0.0 15.0" Properties=species:S:1:pos:R:3:forces:R:3 energy=-432.2807841170514 free_energy=-432.2807841170514 stress="-0.003306398886376982 -0.003738571814283573 1.2886795469682984e-05 -0.003738571814283573 0.0017889893740148488 2.732288487194033e-06 1.2886795469682984e-05 2.732288487194033e-06 1.4807777225664859e-05" pbc="T T T"
C       -0.01376909      -0.00259486       3.76996209      -0.00998870       0.00213002      -0.00793384
C       -1.27332917       2.12233229       3.81212747       0.00033017      -0.00100930      -0.00462103
C       -2.47811509       4.27185137       3.76637694       0.00164833       0.00039604      -0.00145922
C       -3.68443257       6.42057863       3.68782525      -0.00613891      -0.00433208       0.00591770
C       -4.92311694       8.56669209       3.71743443       0.00176261      -0.00227048       0.00493498
C        2.44794575       0.02953668       3.75229158       0.00969128       0.00457382      -0.00157629
C        1.16248978       2.12556526       3.81932966       0.00469141       0.00454428       0.01025628
C       -0.05165306       4.22411598       4.03571437      -0.00211436      -0.00505520       0.00788128
C       -1.23749247       6.40007359       3.87000032      -0.00566636      -0.00316427      -0.00141293
C       -2.47084847       8.55768165       3.76548388       0.00432132      -0.00327373      -0.00212660
C        4.91562432       0.00842256       3.67096365       0.00730595      -0.00255672      -0.00604013
C        3.64977758       2.10928405       3.38107683       0.00141595       0.00846973       0.00375676
C        1.12629694       6.42945747       4.32854351      -0.00087297       0.00676485      -0.00121398
C       -0.01410574       8.53873472       3.85990693      -0.00385257      -0.00124934      -0.00327822
C        7.38238081      -0.01559363       3.71392484      -0.00007054       0.00113624       0.00204833
C        6.14038316       2.14784249       3.48280451      -0.01072736      -0.00642586      -0.01139333
C        5.00627690       4.35956787       3.24337121       0.00162974      -0.00501206       0.00910204
N        3.79345800       6.42772543       3.64257003       0.01448967       0.00369434      -0.01266847
C        2.46768201       8.50003162       3.86705976       0.00484514       0.01261339      -0.00140517
C        9.84375780      -0.02368880       3.75284989       0.00220577       0.00072973      -0.00380235
C        8.60754492       2.13008898       3.67308516       0.00166068       0.00127752       0.00167282
C        7.41042588       4.28608876       3.55595470      -0.00868154       0.00442398      -0.00685618
C        6.21533842       6.45157955       3.54783834      -0.00849660      -0.00079214       0.00044131
C        4.94378375       8.54552836       3.70243107      -0.00162951      -0.00832740      -0.00417003
C       -0.03138165       1.42505212       3.80603346       0.00172217       0.00594995       0.00937506
C       -1.25507134       3.54355497       3.86906060      -0.00153032      -0.00533118       0.00814502
C       -2.45901226       5.69616832       3.76614171      -0.00470283      -0.00210525      -0.00486860
C       -3.69247743       7.84630573       3.72455211       0.00396286      -0.00490240      -0.00417401
C       -4.94238724       9.99081654       3.76638906      -0.00030508       0.00529783       0.00667514
C        2.41816944       1.45888032       3.68710777       0.00391878       0.00815377      -0.00252350
O        1.10531169       3.47512243       4.11496729       0.00763655       0.00619833       0.00193980
C        0.00400766       5.66986150       4.06768648      -0.00413452      -0.00174738       0.00239623
C       -1.23944715       7.82926850       3.82691065      -0.00365709      -0.00459451       0.00508442
C       -2.48101426       9.98851683       3.73487746       0.01168964      -0.00149789      -0.00005784
C        4.89973466       1.44274896       3.50254370      -0.00669610      -0.00276065       0.00095161
S        3.51388658       3.70789777       2.74041870       0.01794917      -0.00259836       0.00725170
C        1.21920863       7.77744952       4.01637323       0.00253171       0.01270810       0.00375575
C       -0.01651155       9.96277922       3.74208146       0.00230306      -0.00331094       0.00494630
C        7.36824472       1.42017136       3.61774912      -0.00377371      -0.00037703       0.00249738
C        6.16638020       3.58169738       3.41655098      -0.00651069      -0.00616506       0.00278816
C        4.97658255       5.77898793       3.44196257       0.00238760      -0.00724004      -0.00170104
C        3.72496643       7.78545041       3.73182586       0.00206111      -0.00132301      -0.00620867
C        2.44963100       9.92584104       3.77400907       0.00311006       0.01043907      -0.00392422
C        9.84108530       1.41019906       3.74716949       0.00352823      -0.00144111      -0.00199767
C        8.62704758       3.55992839       3.66161495      -0.00208528       0.00631187      -0.00175679
C        7.42701003       5.71073449       3.58550421      -0.01256509       0.00417167       0.00334924
C        6.18894319       7.86311891       3.65556339      -0.00203352      -0.00432064       0.00293341
C        4.91773699       9.96172617       3.75096269      -0.00733714      -0.00947128      -0.00394788
Cd       2.51566041       5.40053880       5.55403981      -0.00086370      -0.00225241       0.00132551
O        3.36131521       4.60743335       7.11742212      -0.00436445      -0.00507683      -0.00830826
