50
Lattice="12.336457 0.0 0.0 -6.168228499999997 10.683685154694365 0.0 0.0 0.0 15.0" Properties=species:S:1:pos:R:3:forces:R:3 energy=-431.8642894957483 free_energy=-431.8642894957483 stress="-0.0021103907314624537 0.00011998827041016283 1.6391250592248733e-06 0.00011998827041016283 -0.001197522564750525 8.104180076941598e-06 1.6391250592248733e-06 8.104180076941598e-06 -7.043822480650819e-06" pbc="T T T"
C        0.03609993       0.00698198       3.84017968      -0.00052953       0.00769340      -0.00273424
C       -1.21243751       2.12951755       3.57795006      -0.00817413       0.00370577      -0.00313458
C       -2.46703158       4.27468523       3.59021676       0.00024293      -0.00327443      -0.00070849
C       -3.67854250       6.41391623       3.77661041       0.00700838      -0.00205514       0.00001487
C       -4.89435085       8.55465847       3.91848680       0.00017354       0.00209290      -0.00537676
C        2.50981291       0.01654899       3.87497217      -0.00024106      -0.00460055      -0.01055976
C        1.28431227       2.08232810       3.41662602      -0.00487938      -0.00503548       0.00724599
C       -0.10147044       4.26228472       3.00339702       0.00081008       0.00534152      -0.00980156
C       -1.23633548       6.42701612       3.40667029       0.00496267       0.00198477       0.00082486
C       -2.42904501       8.55027218       3.77464148      -0.00190570       0.00404756       0.00036008
C        4.97079359       0.00489299       3.87292937      -0.00407226       0.00539843      -0.00280513
C        3.75530437       2.17292606       3.90551478       0.00715504       0.00310461       0.00150176
P        1.53159718       6.34487258       2.70490470      -0.01249028      -0.00757017      -0.00737918
C        0.03465297       8.55732035       3.62797825      -0.00694940      -0.00832349       0.00146089
C        7.43617824       0.00413046       3.89086048      -0.01272386       0.00501744      -0.01425668
C        6.20418819       2.13766968       3.92452027       0.00719756       0.00120823       0.00245176
C        4.95047838       4.23243857       4.00307487       0.00088290       0.00044191      -0.00594762
C        3.74057821       6.41536548       4.02422882       0.00294588      -0.00870844       0.00683977
C        2.50442278       8.56706661       3.83435387       0.00844848       0.00603448      -0.00136757
C        9.90766672       0.00965441       3.90210983       0.00645295      -0.00736434      -0.00246008
C        8.66763711       2.14169658       3.82898617       0.01189340      -0.00707341      -0.00042910
C        7.42278891       4.27791788       3.86408448      -0.01155666      -0.00095731       0.00160584
C        6.19194549       6.41148689       3.95730427      -0.01050667       0.00570065      -0.00130447
C        4.97536464       8.55083429       3.98362666       0.00343879       0.00152496       0.00926983
C        0.03284042       1.41911077       3.61179344      -0.01224299       0.00752457       0.00205761
C       -1.25732038       3.54037217       3.38491665       0.00140696       0.00440158       0.00003870
C       -2.46243775       5.70534908       3.59184011       0.01098388      -0.00251676      -0.00055182
C       -3.66729968       7.83999510       3.82886228       0.00306906       0.00101107       0.00351868
C       -4.89610212       9.98021123       3.89105293      -0.00256064       0.00139943      -0.00379379
C        2.51001393       1.43659497       3.75746633       0.00163104      -0.00276071       0.00000759
P        1.35268928       3.50866336       2.38871771       0.00673846       0.00289452       0.00410756
C       -0.07442315       5.68999014       3.05672726       0.00264748       0.00511469       0.00135146
C       -1.20712441       7.84401818       3.58913346      -0.00724065      -0.00363782       0.00155464
C       -2.42980740       9.97591263       3.86558913      -0.00028705       0.00282672      -0.00634953
C        4.97300777       1.43292582       3.91693978       0.00787727       0.00531028       0.00923107
N        3.78643208       3.53006143       4.05928786       0.00699796       0.00208662       0.00180687
C        1.29289307       7.90085953       3.50134259       0.00569778       0.00210663       0.01038293
C        0.03564490       9.97337178       3.82100453      -0.01344697      -0.00425344      -0.00649714
C        7.43804121       1.42801280       3.90214137       0.00661890       0.00385994      -0.00033835
C        6.19744886       3.55604852       3.93254377      -0.00712434      -0.00197813       0.00708979
C        4.93311386       5.70096070       4.00475235      -0.00239964      -0.00591426      -0.00210144
C        3.73588993       7.82001794       3.96355514       0.00700358      -0.00928255       0.00305605
C        2.50537992       9.98169272       3.91439505      -0.00371528       0.01019473      -0.01480189
C        9.90553983       1.42940098       3.78809619       0.00686207      -0.01148178       0.00340400
C        8.65569628       3.56685198       3.77328327      -0.00327424      -0.00462567       0.00777028
C        7.42081012       5.70329927       3.87108320      -0.00751899       0.00472954       0.00490294
C        6.20507262       7.83881525       3.96652537      -0.00183233       0.00640447      -0.00049295
C        4.97347560       9.97614518       3.92097982       0.00832778       0.00019935       0.00814355
Cd       2.27973274       5.14073058       5.04288788       0.00514475      -0.01291044      -0.00333388
O        0.71057594       4.71205887       6.11991352      -0.00694753       0.00096357       0.00652666
