50
Lattice="12.336457 0.0 0.0 -6.168228499999997 10.683685154694365 0.0 0.0 0.0 15.0" Properties=species:S:1:pos:R:3:forces:R:3 energy=-432.2960702154782 free_energy=-432.2960702154782 stress="-0.0008998855335291069 0.0003083638054280941 1.218308562125653e-05 0.0003083638054280941 -0.002781154252572212 -6.5932505004389075e-06 1.218308562125653e-05 -6.5932505004389075e-06 1.038437769412071e-05" pbc="T T T"
C        0.02670896       0.02373970       3.89675997       0.00117287       0.00021822       0.00051951
C       -1.21677478       2.16733601       4.06382960       0.00674800       0.00583720      -0.00857167
C       -2.48531133       4.30248159       3.79105422       0.00605252      -0.00089176      -0.00391778
C       -3.70544014       6.43277793       3.57764817      -0.00081501      -0.00032330       0.01568732
C       -4.91754057       8.56861349       3.66499456      -0.00241379      -0.00004787      -0.01069892
C        2.50478900       0.02510008       3.76723324       0.00857647       0.00271125      -0.00530370
C        1.29335317       2.08102755       4.30861532       0.00332932      -0.00108945       0.00850495
C       -0.10336514       4.37283180       4.19420597       0.00069055      -0.00465039      -0.01086427
C       -1.23103119       6.43097153       3.55258534      -0.00706704       0.00375506       0.00111175
C       -2.44726614       8.56277476       3.53254046       0.00030167       0.00806185       0.00074953
C        4.95768490       0.01072867       3.59075178       0.00595005      -0.00015002       0.00336195
C        3.76607291       2.12966764       3.80436683      -0.00789143      -0.00614422       0.00068402
P        1.58578919       6.21015620       3.07587324       0.01444515      -0.00045546      -0.00317507
C        0.03085519       8.56490292       3.44850781       0.00233034       0.00739871       0.00376274
C        7.42278520       0.03401451       3.61849735      -0.00055502      -0.00456787       0.00440833
C        6.18900546       2.15752161       3.60650838      -0.00480619      -0.01195243       0.01033127
C        4.95429282       4.26499129       3.62178576       0.00139025      -0.00344409       0.00193208
C        3.65743390       6.45335507       3.80968596       0.00117196       0.00458779      -0.00319842
C        2.50359624       8.61648096       3.59664156      -0.00596420      -0.00214480       0.00131764
C        9.89708563       0.04344484       3.80605935      -0.00284834      -0.00172503      -0.00867655
C        8.65287553       2.16746198       3.75458432       0.00155631       0.00366198      -0.00023995
C        7.39679786       4.30123193       3.60859088       0.00420444       0.00529466      -0.00008722
C        6.14403128       6.41733307       3.59505595      -0.00077979       0.00288398       0.00235132
C        4.96382204       8.58196667       3.73212780      -0.00610654      -0.00667479      -0.00634324
C        0.03176750       1.44126138       4.10830363       0.00541968       0.00587063      -0.00458557
C       -1.27308193       3.59286805       4.05079936       0.00352328      -0.00039525      -0.00985802
C       -2.47527904       5.72354904       3.63375317      -0.00260234      -0.00350198      -0.00280669
C       -3.68924045       7.85687780       3.57648028      -0.00096807       0.00077054      -0.00460466
C       -4.90786887       9.99335391       3.77862865       0.00520362       0.00156134       0.00322926
C        2.53027764       1.44158407       3.96356086      -0.00148926      -0.00253377      -0.00213111
P        1.22879489       3.64689751       5.03898735      -0.00038597      -0.00042886      -0.00271416
C       -0.02147664       5.68610237       3.68067816      -0.00832730      -0.00239410      -0.00845942
C       -1.21483990       7.85285158       3.46314235      -0.00095583       0.01014209       0.00665015
C       -2.44462839       9.99017223       3.60900555       0.00910461       0.00631802      -0.00293811
C        4.96092679       1.44069971       3.64732758      -0.00771734      -0.00769643       0.00243306
O        3.79640914       3.50995808       3.77550262      -0.00414206      -0.00635052       0.01600248
C        1.29488371       7.90737853       3.40538861      -0.00141196      -0.00186190      -0.00137658
C        0.02682827       9.99102016       3.53494073       0.00348144       0.00295228       0.00171644
C        7.41708933       1.45842826       3.65215110       0.00020589      -0.00612771      -0.00342703
C        6.16717294       3.57877833       3.58231551       0.00339389      -0.00636547       0.00935238
C        4.88160338       5.69028455       3.62758839      -0.00002806       0.00201503      -0.00176178
C        3.72487064       7.87210719       3.69607536      -0.00753139       0.00062625       0.00149821
C        2.49606934      10.03011378       3.67658406      -0.00402847      -0.00470649      -0.00052579
C        9.89426099       1.46223192       3.87889059       0.00375452       0.00364791       0.00233044
C        8.63010743       3.58972175       3.71457507       0.00527790       0.00565785       0.00075267
C        7.38410185       5.71976024       3.58500157      -0.00050586       0.00545567       0.01077607
C        6.18078991       7.85083660       3.66855723      -0.00318983      -0.00215116       0.00606738
C        4.96154148      10.00525655       3.81524711      -0.00314381      -0.00584810      -0.00980308
Cd       2.79086332       5.46565832       5.54487667      -0.00926801      -0.00261732       0.00229563
O        1.42503284       3.91366386       6.55234990      -0.00234184       0.00781219      -0.00175779
