49
Lattice="12.336457 0.0 0.0 -6.168228499999997 10.683685154694365 0.0 0.0 0.0 15.0" Properties=species:S:1:pos:R:3:forces:R:3 energy=-427.33879526209125 free_energy=-427.33879526209125 stress="-0.004635103954616214 0.00012361869392389017 1.4099977524592733e-05 0.00012361869392389017 -0.006828242926850234 4.883564108703237e-06 1.4099977524592733e-05 4.883564108703237e-06 -9.457336135304782e-07" pbc="T T T"
C       -0.00388768      -0.03013107       3.42895617      -0.00543423       0.00041948       0.00092736
C       -1.23897472       2.11531844       3.43470657      -0.00337199       0.00293324       0.00371897
C       -2.47666342       4.25133069       3.58121878       0.00262984       0.00932566      -0.00629110
C       -3.70652086       6.38864727       3.57149435       0.00077216       0.00020560      -0.01011348
C       -4.93429717       8.51871532       3.48958588       0.00124049      -0.00002103       0.00424151
C        2.46886939      -0.07046246       3.48798441      -0.00180024       0.00556920      -0.00471046
C        1.25408926       2.04734360       3.29482249       0.00037330      -0.00681768       0.01418478
C       -0.02730805       4.30343061       3.51590354      -0.01237437       0.00359175       0.00955111
C       -1.27235098       6.40889889       3.69441218       0.00286820      -0.00942014      -0.00536374
C       -2.46924032       8.51981670       3.59105650       0.00197197      -0.00036700      -0.00185376
C        4.93745456      -0.03762098       3.72296201       0.00757931      -0.00345714       0.00537056
C        3.66514299       2.01526991       3.88561397       0.00372045       0.00341192       0.00371540
C        1.08731961       6.42575187       4.25959877      -0.00043734       0.00617374      -0.00016164
C       -0.00647572       8.52576235       3.82519421      -0.00894216      -0.00910709       0.00011713
C        7.40527960      -0.02621169       3.80154905       0.00864012       0.00024562      -0.00355456
C        6.15927399       2.11988423       3.86241930      -0.01029041       0.00101920       0.00518173
C        4.97567606       4.33643613       4.09850420       0.00811482       0.00741403      -0.00161584
N        3.91328210       6.52824180       4.43335352      -0.00161531      -0.00006880      -0.00389841
C        2.49045432       8.51618268       4.00138021       0.00029749      -0.00422792       0.00167872
C        9.86670475      -0.02338112       3.65643207       0.00284247      -0.01008675      -0.00161700
C        8.63023823       2.11408604       3.66715680       0.00177865       0.00085863       0.00605362
C        7.39650132       4.25653526       3.72599783       0.00121049      -0.00281755      -0.00769728
C        6.19426015       6.41927668       3.71729861       0.00255593       0.00579381      -0.00598845
C        4.95247410       8.54108893       3.70374036       0.00284553       0.00365502       0.00832940
C       -0.00374021       1.39710001       3.35191357      -0.00199048       0.00171447      -0.00289487
C       -1.22938106       3.54751463       3.49264785      -0.00331594       0.00450434       0.00045453
C       -2.48215292       5.67785960       3.60246038       0.00131365       0.00505362      -0.01173612
C       -3.70059224       7.80805386       3.52908450       0.00317855      -0.00005390       0.00293579
C       -4.94149762       9.93174921       3.43601131      -0.00515636       0.00117279      -0.00044708
C        2.46353149       1.33003831       3.52946459       0.00469915       0.00315604       0.00104768
P        1.53646459       3.73533875       2.89796137       0.00655357       0.00333166      -0.00359323
C       -0.03602570       5.71414889       3.80684368       0.00160789      -0.00258625       0.00240808
C       -1.24155653       7.82167472       3.70933468      -0.00598844      -0.01230484      -0.00814756
C       -2.45979423       9.93035230       3.59657349       0.00310991       0.00294591      -0.00032616
C        4.93348919       1.38333620       3.84031537      -0.00265396      -0.00087413       0.00515266
P        3.42660131       3.61790849       4.53478759      -0.01371443      -0.00342950       0.00593733
C        1.22709713       7.79131267       4.03637730      -0.00539643       0.00075847       0.00160053
C        0.00298105       9.94134593       3.78295683       0.00825015      -0.00657620       0.00545201
C        7.39469164       1.40424977       3.77422501      -0.00478075       0.00526971       0.00348774
C        6.15507689       3.56107139       3.89385426      -0.00469445       0.00081465      -0.00899832
C        4.99203461       5.76854959       4.05215602       0.00659358       0.00473889      -0.00153246
C        3.76219744       7.83010969       4.04028253       0.00113491      -0.00122602      -0.00215785
C        2.47594688       9.93120240       3.82050482       0.00730695      -0.00586140       0.00195660
C        9.86637212       1.40387151       3.57229691      -0.00074376      -0.00817045      -0.00035377
C        8.62827587       3.54082499       3.64407090       0.00703608       0.00391272       0.00596303
C        7.40331782       5.67854009       3.64518055      -0.00005172      -0.00042439      -0.00781366
C        6.17509295       7.82555949       3.60925539       0.00105263       0.00606876      -0.00321520
C        4.93325152       9.95335440       3.57662259       0.00004346      -0.00317119       0.00377588
Cd       2.33440980       5.48927220       5.72819633      -0.00856894      -0.00298958       0.00083984
