51
Lattice="12.336457 0.0 0.0 -6.168228499999997 10.683685154694365 0.0 0.0 0.0 15.0" Properties=species:S:1:pos:R:3:initial_magmoms:R:1:forces:R:3 energy=-436.1270687377381 free_energy=-436.1270687377381 stress="-0.001902632148051054 0.0028887894657566885 7.420399259674588e-06 0.0028887894657566885 0.0014126895624916233 5.328724423485964e-06 7.420399259674588e-06 5.328724423485964e-06 2.6143042660507583e-05" pbc="T T T"
C       -0.03318923       0.02204421       3.68790441       0.00000000       0.00023224      -0.00099656      -0.00596241
C       -1.26138969       2.15621042       3.77911799       0.00000000      -0.00038382       0.00871439      -0.00711519
C       -2.48504794       4.29596197       3.74915239       0.00000000      -0.00339812       0.00637293       0.00252537
C       -3.73406519       6.43044418       3.63943717       0.00000000      -0.00094797      -0.00309040       0.00403046
C       -4.99234331       8.56264493       3.59349314       0.00000000      -0.00105718      -0.00833248      -0.00263730
C        2.42118511       0.07029786       3.69755425       0.00000000      -0.00304319       0.01193088      -0.00489068
C        1.17177894       2.17215031       3.79575620       0.00000000      -0.00682902      -0.00083393       0.01118901
C       -0.04868165       4.27158608       3.93430252       0.00000000       0.00008974      -0.01145105       0.00624534
C       -1.27950878       6.42939943       3.83970828       0.00000000       0.00333667       0.00030707      -0.00916432
C       -2.52887750       8.57738429       3.73434748       0.00000000      -0.00285284       0.00752787      -0.00174754
C        4.88170013       0.02545631       3.75673152       0.00000000       0.00239238      -0.00154614       0.00189360
C        3.70476276       2.16825499       3.66132913       0.00000000       0.00237215      -0.00113934      -0.00289689
C        1.12264344       6.46881748       4.20858228       0.00000000      -0.00910874      -0.00173498       0.00606003
C       -0.06422486       8.57154905       3.88426826       0.00000000       0.00312027       0.00096307      -0.00116401
C        7.36170975       0.01313523       3.82189759       0.00000000       0.00140175      -0.00195350       0.00275024
C        6.15487921       2.13047712       3.67777452       0.00000000       0.00003535       0.00012264       0.00391050
C        4.98630554       4.21130133       3.43688873       0.00000000       0.00286024       0.00111381      -0.00787086
S        3.41472986       6.25680684       3.02023273       0.00000000      -0.00201328      -0.00012061       0.00196755
C        2.41117012       8.56848584       3.82144264       0.00000000       0.00565782       0.00134734      -0.00054329
C        9.83689690       0.01051924       3.75762023       0.00000000      -0.00072592       0.00667963       0.00259797
C        8.61559333       2.14963622       3.74479384       0.00000000       0.00554570      -0.00633152       0.00822063
C        7.39939825       4.28415963       3.59599720       0.00000000       0.00595250      -0.00542502      -0.00014049
C        6.13517734       6.39975052       3.43368500       0.00000000      -0.00232530      -0.00038499       0.01144155
C        4.87977195       8.54751350       3.55389902       0.00000000      -0.00617740       0.00578555      -0.00157340
C       -0.02233227       1.45896867       3.75545204       0.00000000      -0.00516573       0.00171054      -0.00366441
C       -1.25099941       3.57808612       3.81744703       0.00000000      -0.00645713       0.00523304       0.00613790
C       -2.49679077       5.71803181       3.73742772       0.00000000      -0.00002222       0.00488837       0.00065993
C       -3.75181823       7.85700972       3.64814877       0.00000000       0.00111521      -0.00395566      -0.00156302
C       -4.97302347      10.00784276       3.65704466       0.00000000       0.00227044      -0.00328605      -0.00691079
C        2.43216369       1.52273938       3.71944490       0.00000000      -0.00462967       0.01169384       0.00067942
O        1.12609324       3.54642663       3.97591082       0.00000000       0.00029052      -0.00578869       0.00745514
C       -0.02204128       5.71101461       3.98932137       0.00000000      -0.00008722      -0.01249230       0.00219702
C       -1.29631100       7.85779481       3.82524797       0.00000000      -0.00032038       0.00451836       0.00069486
C       -2.52563296      10.01347579       3.72860797       0.00000000      -0.00346564       0.01062098      -0.00623922
C        4.89598075       1.45268999       3.69675101       0.00000000       0.00185527      -0.00411353       0.00453707
O        3.77353245       3.54671495       3.58233498       0.00000000       0.00796068      -0.00469198      -0.00922409
C        1.16957817       7.83565405       3.97263065       0.00000000       0.00353507      -0.00160174      -0.00668438
C       -0.05114562       9.99329524       3.82200566       0.00000000       0.00290345      -0.00129714       0.00110736
C        7.37486270       1.43280244       3.75506552       0.00000000       0.00127179      -0.00337158      -0.00880043
C        6.18263908       3.53810297       3.56165192       0.00000000       0.00269718       0.00065867      -0.00149581
C        4.97231829       5.60467731       3.31181043       0.00000000       0.00044266       0.00148292      -0.00467935
C        3.61642736       7.89412452       3.53627981       0.00000000       0.00116954      -0.00306161       0.00258213
C        2.42801768       9.98959033       3.82149691       0.00000000       0.00252770       0.00185688       0.00030852
C        9.85031705       1.44239844       3.76537384       0.00000000       0.00621174       0.00319556       0.00719797
C        8.62696625       3.57509614       3.69784359       0.00000000       0.00588378      -0.00654574      -0.00647267
C        7.38186513       5.70325026       3.54842757       0.00000000       0.00086920      -0.00452838       0.00509135
C        6.11314571       7.83574996       3.49887464       0.00000000      -0.00829314       0.00018048       0.00393035
C        4.89592635       9.98219138       3.67457728       0.00000000      -0.00451338       0.00571917       0.00067148
Cd       2.56477233       5.37941250       5.36949616       0.00000000       0.00336155      -0.00467974       0.01911761
O        2.96093012       5.12095162       7.95872691       1.00000000      -0.00105608       0.00068548      -0.01141104
O        3.68912462       4.60722401       6.98581886       1.00000000      -0.00448926      -0.00055479      -0.01234881
