49
Lattice="12.336457 0.0 0.0 -6.168228499999997 10.683685154694365 0.0 0.0 0.0 15.0" Properties=species:S:1:pos:R:3:forces:R:3 energy=-433.26135352798235 free_energy=-433.26135352798235 stress="-0.0067067000971182495 0.0009225417599280587 9.369014794642909e-07 0.0009225417599280587 0.0009036673845152478 5.737891875395249e-06 9.369014794642909e-07 5.737891875395249e-06 -9.483274190832931e-07" pbc="T T T"
C        0.00514599       0.01545446       3.74803437       0.00176596      -0.00011457      -0.00221392
C       -1.24494728       2.12222220       3.75165892       0.00195206       0.00729655       0.00186288
C       -2.48098355       4.26816062       3.62101454       0.00065941      -0.00164999       0.01111172
C       -3.70753663       6.42010046       3.53885041      -0.00695127      -0.00077973      -0.01054020
C       -4.92860031       8.57169127       3.61774703       0.00170390      -0.00251953      -0.00161265
C        2.47538426       0.05236473       3.70613247      -0.00285489      -0.00089991      -0.00036676
C        1.23423205       2.20158373       3.95717569      -0.00725688      -0.00087097      -0.00226596
C       -0.04362063       4.25059523       3.99495843       0.00255995       0.00123752       0.00130341
C       -1.27712285       6.42897763       3.72869322       0.00429733      -0.00053697       0.01514657
C       -2.48435667       8.56993682       3.62225068       0.00328656      -0.00192923       0.00844805
C        4.93393838      -0.00164492       3.64971051       0.00307190      -0.00255697      -0.00256575
C        3.74900142       2.12406308       3.67834159       0.00593674      -0.00069390      -0.00891385
C        1.09418234       6.44639280       4.18830619       0.00234617      -0.00456854       0.00110617
C       -0.02558989       8.54452871       3.79109954      -0.00095543       0.00877400      -0.00410608
C        7.40947333      -0.03048639       3.70117299      -0.00388132       0.00055707      -0.00223744
C        6.19126923       2.11247058       3.54469881      -0.00175550       0.00209207       0.01242417
C        4.99029501       4.23365546       3.58666557      -0.00061796       0.00107031      -0.00013867
C        3.81365879       6.39772903       4.03067977       0.01638903       0.00271766       0.00117218
C        2.47067324       8.50969815       3.92966533      -0.00442002       0.00194502      -0.00194628
C        9.86879133      -0.02525267       3.74268850       0.00681969      -0.00511100       0.00467245
C        8.64124297       2.11771819       3.60046599      -0.00605445      -0.01369593      -0.00051428
C        7.41332250       4.27061034       3.49924441      -0.00815781       0.00336897      -0.00503865
C        6.18138297       6.41017287       3.57239460      -0.00684755       0.01071829      -0.00157756
C        4.95416447       8.54010345       3.75749124       0.00744839       0.00341429      -0.00238813
C       -0.00126476       1.43687905       3.82148827      -0.00614663       0.00124065      -0.00791222
C       -1.26893779       3.54355455       3.76415384       0.00869940       0.00803201       0.00126764
C       -2.48835413       5.70327516       3.60714170      -0.00012800       0.00131827      -0.00038093
C       -3.70739179       7.85146312       3.57584742       0.00036355      -0.00126201      -0.00084821
C       -4.92548197       9.99981165       3.69617046      -0.00292930      -0.00237918      -0.00481531
C        2.49799905       1.48211967       3.80037059      -0.00023837       0.00346656      -0.00567515
C        1.11522038       3.54372922       4.24291727      -0.00326070      -0.00751714       0.00857789
C       -0.05536750       5.72262656       3.97063543      -0.00046004      -0.00471573       0.00460524
C       -1.25842424       7.85014835       3.69848777       0.00490397       0.00205568       0.01030861
C       -2.47435401       9.99867603       3.65129924       0.00051613      -0.00139140       0.00464918
C        4.95369777       1.41924399       3.60878615       0.00670510      -0.00370322      -0.00174278
O        3.81933600       3.50100870       3.60343236       0.00344752       0.00229894      -0.00515173
C        1.20866216       7.80538300       3.97705534      -0.00824383      -0.00340067      -0.00878214
C       -0.00200903       9.95639938       3.70545918       0.00126097       0.00628390      -0.00540027
C        7.40972962       1.39810187       3.59930181      -0.00941817      -0.00577264      -0.00318321
C        6.18817674       3.53938908       3.50280893      -0.00477202       0.00105163       0.01611978
C        4.93694776       5.67389931       3.69161354       0.00573499       0.00055999      -0.00720988
C        3.72258833       7.77758821       3.91187615       0.00695295       0.00286321       0.00542174
C        2.47070827       9.92644412       3.78672203      -0.00211879       0.00184202       0.00034942
C        9.86265883       1.39827853       3.68545717       0.00547113      -0.00616578      -0.00335344
C        8.63563655       3.55041066       3.54814363      -0.00557935      -0.00744978       0.00126191
C        7.40183447       5.69779557       3.50761089      -0.01270708       0.00715663      -0.00245434
C        6.17816804       7.83815767       3.63764207       0.00274412       0.00522599      -0.00269453
C        4.94133457       9.96142789       3.75008752       0.00985067      -0.00179998      -0.00397949
Cd       2.48287952       5.05189195       5.05107002      -0.00913221      -0.00510246       0.00020084
