52
Lattice="12.336457 0.0 0.0 -6.168228499999997 10.683685154694365 0.0 0.0 0.0 15.0" Properties=species:S:1:pos:R:3:forces:R:3 energy=-445.61089888843605 free_energy=-445.61089888843605 stress="-0.00591583635152854 0.0030351159620833333 3.8716423386066345e-05 0.0030351159620833333 0.00044057388079051153 2.9277464013213406e-05 3.8716423386066345e-05 2.9277464013213406e-05 -6.25231037345208e-06" pbc="T T T"
C        0.03143629      -0.00141996       3.71395927       0.00111290       0.00210036      -0.00064590
C       -1.19901948       2.12654027       3.50007393      -0.00213801       0.00740178       0.00015860
C       -2.45445013       4.27089976       3.53428160      -0.00373107      -0.00122502       0.01169812
C       -3.68988687       6.41133244       3.69049998       0.00068046      -0.00035562      -0.00151068
C       -4.90741636       8.55375586       3.80444057      -0.00632735      -0.00024053      -0.00530643
C        2.50076893       0.01824394       3.80753942       0.00556516      -0.00698437      -0.00289914
C        1.29582972       2.11340424       3.47075402       0.00131466       0.00598636       0.00387579
C       -0.03164981       4.32790930       3.25715458       0.00297332      -0.00029865      -0.00153601
C       -1.26246244       6.44478151       3.49535605      -0.00094502      -0.00215450      -0.00171940
C       -2.45795125       8.56148352       3.71906311       0.00092894       0.00470153       0.00230817
C        4.96790966      -0.00355540       3.80443909       0.00548363      -0.00021701       0.00153155
C        3.77374613       2.15475634       3.92219654       0.00004953       0.00137749       0.00055091
N        1.14172190       6.42746157       3.60468001      -0.00386270       0.00368324      -0.00319618
C        0.00642602       8.54145864       3.68192787      -0.00333149      -0.00889117       0.00921926
C        7.44265951      -0.03416021       3.76674673      -0.00052137      -0.00133140      -0.01166822
C        6.22625060       2.11124889       3.84636202      -0.00491203       0.00155371      -0.00043021
C        4.98899400       4.20923869       4.06428706       0.00644258       0.00537903       0.00182522
C        3.83580047       6.41620055       4.28911388       0.00398175       0.00264417       0.00690214
C        2.47868047       8.48911601       3.86554721       0.00592557      -0.00529579      -0.00070701
C        9.90094460      -0.03046464       3.73608911       0.00581677       0.00175027       0.00275262
C        8.67913562       2.11489689       3.68035663       0.00240479       0.00372734      -0.00022384
C        7.44025839       4.25751652       3.78067323      -0.00329694      -0.00405841       0.00146421
C        6.21437905       6.40274506       3.91333001      -0.00476764      -0.00305808       0.00012122
C        4.96876880       8.53000619       3.89781547       0.00020890      -0.00121846      -0.00181585
C        0.03860308       1.42326398       3.54901767      -0.00190503       0.00542296       0.00659219
C       -1.21653272       3.56259228       3.41042538      -0.00432012       0.00528096       0.00359941
C       -2.47054005       5.70079945       3.55695175       0.00138079      -0.00354758       0.00589307
C       -3.68614948       7.83899508       3.73885940      -0.00179111       0.00503977      -0.00414207
C       -4.90543902       9.97946029       3.78241272       0.00086975      -0.00104023      -0.00291656
C        2.51671775       1.43871713       3.76072122      -0.00094993      -0.00534753       0.00266653
P        1.47790933       3.67441007       2.70025000       0.00437950       0.01409944      -0.00813015
C       -0.03166859       5.76765136       3.40016575      -0.00059497      -0.00009382       0.00453746
C       -1.23624805       7.85354001       3.62289706      -0.00489953      -0.00316533       0.00195983
C       -2.44254059       9.98186049       3.79735724       0.00903195       0.00114987       0.00742493
C        4.99007060       1.41546545       3.86790507      -0.00164791      -0.00091725      -0.00612673
N        3.83117107       3.49923136       4.14696998       0.01277078       0.00210661       0.00298829
C        1.22191083       7.78556782       3.71377237       0.00227123      -0.00053303       0.00068511
C        0.03229993       9.95558979       3.75808748      -0.00069899      -0.00809708      -0.00215799
C        7.45323766       1.39466061       3.76523916      -0.00072964       0.00448247       0.00099124
C        6.22528594       3.52989599       3.89324542      -0.00188506       0.00074653      -0.00336761
C        4.97652487       5.68419273       4.09713431      -0.00296789       0.00049996      -0.00863661
C        3.72974260       7.77011583       4.02022591       0.00598522      -0.00247033      -0.00131589
C        2.49865358       9.91349665       3.78651903       0.00429625      -0.00356528      -0.00375898
C        9.91071216       1.40076225       3.63071227       0.00346199       0.00477840       0.00081455
C        8.66966835       3.54689561       3.65890438      -0.00288811      -0.00038494       0.00130625
C        7.42943039       5.68851601       3.79096388      -0.00344090      -0.00373903      -0.00768530
C        6.20005809       7.82876585       3.87281873      -0.00552236      -0.00339278       0.00060115
C        4.96728274       9.95176878       3.77852720       0.00320657      -0.00086491       0.00037887
Cd       2.35234069       5.06662317       5.12824806      -0.00810663      -0.00094499      -0.00702029
O        1.41264410       4.66249703       6.97820657       0.00184723      -0.00297683      -0.00637087
O        2.16436850       5.50320062       7.93577896       0.00049070      -0.01298455       0.01269070
H        2.44603975       4.79256528       8.54227430      -0.01669912       0.00548226      -0.00224948
