52
Lattice="12.336457 0.0 0.0 -6.168228499999997 10.683685154694365 0.0 0.0 0.0 15.0" Properties=species:S:1:pos:R:3:forces:R:3 energy=-442.5149110679179 free_energy=-442.5149110679179 stress="-0.004825949833702695 -0.0040930069237366095 -2.9098846509247605e-05 -0.0040930069237366095 0.0009860918913370336 9.970907038278466e-06 -2.9098846509247605e-05 9.970907038278466e-06 8.909770369972975e-06" pbc="T T T"
C       -0.00930394      -0.00031547       3.79702143      -0.00978539      -0.00119602      -0.00461374
C       -1.27369527       2.12188423       3.84049998      -0.00348467       0.00103292      -0.00580545
C       -2.47704476       4.27298177       3.76828419       0.00128174       0.00776384       0.00386702
C       -3.67751441       6.42442399       3.67658679       0.00463032       0.01061195      -0.00297878
C       -4.91478300       8.57255780       3.71616434      -0.00341234      -0.00332533       0.00080403
C        2.45358046       0.03137323       3.82616810      -0.00465489      -0.00748976      -0.00451417
C        1.16129116       2.12143660       3.91168341      -0.00425683       0.00268872       0.00472293
C       -0.06257065       4.22605122       4.07923402       0.00040205       0.00368400       0.00120565
C       -1.23998210       6.40319373       3.89605699       0.00369786       0.00208676      -0.00336684
C       -2.46496496       8.56119882       3.80322646      -0.00104737      -0.00680527      -0.00425272
C        4.92107088       0.01204748       3.74370232       0.00191070       0.00244020      -0.00167697
C        3.65222786       2.11584818       3.50270554       0.00231809       0.00126034      -0.01039045
C        1.13149320       6.42395823       4.31836555      -0.00448250      -0.00368333      -0.00090681
C       -0.00865723       8.54100166       3.90108972      -0.00598298       0.00248597      -0.00661386
C        7.38752231      -0.01440475       3.75208321      -0.00057525       0.00429090      -0.00897607
C        6.14350505       2.14960843       3.52998307       0.00557909       0.00134740      -0.01079777
C        5.01692043       4.36485568       3.27447141      -0.00315735      -0.00120850       0.01176982
N        3.82404895       6.43520089       3.68363262      -0.00145013      -0.00964657       0.00566486
C        2.47589870       8.49989980       3.88092404       0.00051745      -0.00220105       0.00421282
C        9.84797116      -0.02236402       3.76592075      -0.00627941      -0.00063359      -0.00928266
C        8.61008519       2.13176118       3.68720003       0.00483540      -0.00596710      -0.00286394
C        7.41758607       4.29002611       3.54248103       0.00223484      -0.00106199      -0.00278175
C        6.23122256       6.46273857       3.50271033       0.00554903      -0.00333561      -0.00325278
C        4.95193761       8.55165900       3.68601822       0.00749118       0.00136022       0.00017462
C       -0.03130877       1.42497738       3.85771874      -0.00564696       0.00075917      -0.00618419
C       -1.25915795       3.54232800       3.89012783       0.00019509       0.00364337       0.00737025
C       -2.45708081       5.69750066       3.77094540       0.00282682       0.01082650       0.00587124
C       -3.68503869       7.85035420       3.72899571      -0.00382486       0.00297394       0.01112982
C       -4.93638634       9.99441745       3.80114653      -0.00990318      -0.00649711      -0.00134212
C        2.42142982       1.46090377       3.79582708      -0.00244630      -0.00028323       0.00071647
O        1.08386637       3.46788024       4.22552694       0.00254484       0.00863383      -0.00335361
C       -0.00372792       5.67097795       4.09672581      -0.00347370      -0.00017322      -0.00049603
C       -1.23502680       7.83241955       3.86463158      -0.00203691      -0.00198638       0.00389174
C       -2.47487278       9.99212937       3.80075492       0.00239186      -0.00735312       0.00127601
C        4.90241250       1.44796362       3.58657059       0.00506632       0.00456693      -0.00794762
S        3.49289842       3.71628608       2.87354795      -0.00473957       0.00439339       0.01014802
C        1.22645427       7.77812984       4.03411363      -0.00639443      -0.00182671       0.00233854
C       -0.01111472       9.96540207       3.79650253      -0.00010348       0.00457240      -0.00556753
C        7.37139194       1.42140260       3.64967204       0.00389491       0.00058551       0.00290992
C        6.17266281       3.58282637       3.43453813      -0.00027156      -0.00057333      -0.01068069
C        4.99973921       5.78494722       3.43035559       0.00391622      -0.00517884       0.00896609
C        3.73631632       7.79490772       3.74297419       0.00864561      -0.00539221       0.00164658
C        2.45507766       9.92719915       3.79269534      -0.00442621       0.00178130       0.01423054
C        9.84292194       1.41121388       3.76440251       0.00057104      -0.00426058      -0.00440468
C        8.63027210       3.56174017       3.65869344       0.00292894      -0.00298712       0.00608410
C        7.43744816       5.71580817       3.55384367       0.00776506       0.00273750       0.00207521
C        6.19874574       7.87217584       3.62464541       0.00384530      -0.00376593      -0.00043186
C        4.92333932       9.96566479       3.75262076      -0.00735788       0.00199209       0.01139454
Cd       2.62123672       5.26329392       5.32281998      -0.00207434       0.00452672       0.00518962
O        3.37373047       4.43814611       7.07995734       0.00072107       0.00017490      -0.00603598
O        2.55380909       5.12911871       8.10395116       0.01135330      -0.00454062       0.00971293
H        3.28230753       5.45121724       8.66814724       0.00415434      -0.00184828      -0.00785431
