49
Lattice="12.336457 0.0 0.0 -6.168228499999997 10.683685154694365 0.0 0.0 0.0 15.0" Properties=species:S:1:pos:R:3:forces:R:3 energy=-425.19880204717253 free_energy=-425.19880204717253 stress="0.00022315199612984088 -0.0002273369753087704 -1.1098291041807365e-05 -0.0002273369753087704 -0.0014641272581361314 -6.975504628361259e-06 -1.1098291041807365e-05 -6.975504628361259e-06 1.512914495050107e-06" pbc="T T T"
C        0.00029441      -0.00691354       3.85345271       0.00280966       0.00409904      -0.00966833
C       -1.24969717       2.13074555       4.00245443      -0.00294967      -0.00660084       0.00066146
C       -2.50280376       4.26780508       3.75152265       0.00454812       0.00519327       0.00411829
C       -3.72572139       6.40077482       3.58048715      -0.00578484       0.00498459      -0.00723000
C       -4.94258181       8.53843471       3.65345004       0.00277109       0.00179766      -0.00397729
C        2.47498011       0.00589379       3.75656500      -0.00898498      -0.00845138       0.00166704
C        1.24808897       2.07429427       4.27412426       0.00697043      -0.00939673      -0.00701217
C       -0.09744364       4.30547844       4.16032013      -0.00079848       0.00616085       0.00569020
C       -1.24492413       6.39253123       3.56125723       0.00264289       0.00672869       0.00448858
C       -2.47169514       8.53229848       3.54522104       0.00339398       0.00751843       0.00243104
C        4.92777135      -0.01759957       3.59902741       0.00318261       0.00125284      -0.00360604
C        3.73474491       2.10931795       3.79270063       0.00061503       0.00217891      -0.00385840
P        1.56744367       6.17704851       3.05941954      -0.00154559       0.00141652       0.01006348
C        0.00306293       8.53368863       3.44842346       0.00380865      -0.01349057      -0.00157219
C        7.39369548       0.00226717       3.60051054      -0.00878730       0.00240287      -0.00029795
C        6.15813588       2.12827607       3.60109516       0.00336104       0.00285406       0.00127286
C        4.92887185       4.23676328       3.59954378      -0.00211329      -0.00560417       0.00091047
C        3.62041980       6.41460074       3.79015545      -0.00358727      -0.00400372       0.00164923
C        2.47625865       8.58316219       3.56414563      -0.00291963       0.00335177      -0.00263596
C        9.86924405       0.00893891       3.75796685      -0.00205120      -0.00148473      -0.00499939
C        8.62457437       2.13562027       3.71220532      -0.00585239       0.00280131       0.00517478
C        7.37378762       4.27147113       3.59023066      -0.00138404      -0.00527517       0.00320660
C        6.11741607       6.38545793       3.58064244      -0.00281070      -0.00448977      -0.00170309
C        4.93536528       8.54708279       3.69715797       0.00768547       0.00199270      -0.00110778
C        0.00238029       1.41280249       4.05404641       0.00206814      -0.00434299       0.00222075
C       -1.29137370       3.55280944       3.98965336       0.00224817      -0.00564051       0.00137611
C       -2.49285995       5.69029185       3.62619674      -0.00028614       0.00993698      -0.00244297
C       -3.71315299       7.82542973       3.58169864       0.00336124       0.00591214      -0.00100543
C       -4.93308972       9.96642446       3.75572912      -0.00539347      -0.00331590       0.00122934
C        2.49142033       1.42937024       3.94503412       0.00403701      -0.01114296       0.00135269
P        1.14990309       3.59495563       5.16732101      -0.00431411       0.01214279       0.00163847
C       -0.03199796       5.64237958       3.67726352       0.00597870       0.00161517      -0.00481999
C       -1.23855480       7.81875773       3.47826476       0.00296232       0.00133177      -0.00427497
C       -2.47411383       9.96373987       3.61553983      -0.00187286       0.00595070       0.00165752
C        4.92932449       1.41303624       3.65231784       0.00368884       0.00726988      -0.00510643
O        3.77015296       3.48753672       3.73640972      -0.01145063       0.00215436      -0.01256314
C        1.26565529       7.87392780       3.38156158       0.00427665      -0.00584967       0.00129348
C       -0.00289316       9.96067653       3.53449156      -0.00024904      -0.01176934       0.00141520
C        7.38695030       1.42722681       3.63041052      -0.00341526       0.00309292      -0.00071389
C        6.14164512       3.55025378       3.57035256       0.00014256      -0.00443649       0.00393888
C        4.85081467       5.66067231       3.59877484      -0.00031252      -0.00706764       0.01218612
C        3.69695398       7.83473166       3.66165465       0.00017919       0.00034725       0.00240835
C        2.46762676       9.99565935       3.64314472      -0.00750344       0.00558402      -0.00578904
C        9.86370964       1.42714667       3.82461473      -0.00859846      -0.00160550      -0.00122086
C        8.60819109       3.55840978       3.67816967       0.00365354       0.00326926       0.00954138
C        7.36103364       5.69008232       3.57736560      -0.00668253      -0.00552473      -0.00059250
C        6.15544940       7.81901069       3.64893579       0.00676492      -0.00074464       0.00166929
C        4.93509716       9.97200013       3.76919314       0.00534037       0.00517862       0.00146906
Cd       2.75983284       5.45377846       5.62449568       0.01315722       0.00171806       0.00146714
