50
Lattice="12.336457 0.0 0.0 -6.168228499999997 10.683685154694365 0.0 0.0 0.0 15.0" Properties=species:S:1:pos:R:3:forces:R:3 energy=-435.3819793283118 free_energy=-435.3819793283118 stress="-0.00412211807350655 0.0029102619645295885 3.6568961472388495e-06 0.0029102619645295885 0.001690070116583652 -1.878790762049988e-05 3.6568961472388495e-06 -1.878790762049988e-05 4.394326778199894e-06" pbc="T T T"
C        0.03193054       0.00679191       3.71891211       0.00075368       0.00197858       0.00211409
C       -1.19663642       2.13628096       3.48903781      -0.00116395       0.00007958       0.00804629
C       -2.45089275       4.27717338       3.55121307      -0.00253705       0.01030072      -0.00187167
C       -3.68696117       6.41675449       3.73686324      -0.00217383      -0.00116501      -0.00077562
C       -4.90770700       8.56046784       3.84089679       0.00156902      -0.00199503      -0.00663216
C        2.50081532       0.02766671       3.81857494       0.00211644      -0.00189956       0.00363808
C        1.29597499       2.12266768       3.45388411       0.00936894      -0.00393321      -0.00854906
C       -0.02957750       4.33402417       3.21700890      -0.00168194      -0.00425707      -0.00084067
C       -1.25775717       6.44925378       3.48654932       0.00107581       0.00616372       0.00324142
C       -2.45629712       8.56708391       3.74314811      -0.00303465      -0.00148646       0.00065539
C        4.96869923       0.00375188       3.81180006       0.00281341      -0.00329662      -0.00573036
C        3.77229457       2.16495184       3.92878871      -0.00510409       0.00199495      -0.00306937
N        1.15545916       6.44318141       3.41982058      -0.00118859       0.00883986       0.00106886
C        0.00738754       8.54827998       3.65569472      -0.00159588       0.00138216      -0.00346660
C        7.44303698      -0.02631920       3.74699904       0.00821720      -0.00717661       0.00348417
C        6.22728588       2.11964627       3.86419722      -0.00522045      -0.00057911      -0.00095300
C        4.98280072       4.21527427       4.10745154       0.00105105      -0.00203877      -0.00579837
C        3.82573127       6.42504341       4.33339178       0.00047775       0.00601319       0.00549206
C        2.48054855       8.49487153       3.82178973      -0.00277131      -0.00394240       0.00402651
C        9.90288419      -0.02287049       3.72404697      -0.00059333      -0.00185194       0.00312445
C        8.68104963       2.12364931       3.68557375      -0.00199653      -0.00192275       0.01027653
C        7.44064139       4.26513268       3.82426549       0.01035488      -0.00190632       0.00058904
C        6.21094070       6.40871630       3.97012149      -0.00210664      -0.00189721      -0.00178537
C        4.96612739       8.53490343       3.91577098      -0.00418521       0.00270369       0.00160956
C        0.04033004       1.43078327       3.53835032       0.00512242       0.00327693       0.00631950
C       -1.21091434       3.57292175       3.39789049      -0.00795386       0.00318632      -0.00009547
C       -2.46710448       5.70762572       3.58236689      -0.00023248       0.00917361       0.00586278
C       -3.68523220       7.84534968       3.77774821      -0.00021062      -0.00433896       0.00336823
C       -4.90551621       9.98684878       3.79976507       0.00123796      -0.00069344      -0.00403426
C        2.51524229       1.44760172       3.75717776       0.00301642      -0.00300101       0.00293220
P        1.47616260       3.67701114       2.66749176       0.00460094      -0.01136912      -0.00612595
C       -0.02320599       5.77877842       3.32269195       0.00105590       0.00314934      -0.00270693
C       -1.23599349       7.85781733       3.62238042      -0.00290315       0.00306526       0.00787856
C       -2.44161770       9.98896968       3.81367211       0.00128295      -0.00269790       0.00293489
C        4.98978738       1.42332766       3.87892754      -0.00709400      -0.00098046      -0.00343574
N        3.82329445       3.50949148       4.14983840      -0.00386502       0.00258655       0.00361672
C        1.22523137       7.78975551       3.62149828      -0.00297170       0.00523796      -0.00219626
C        0.03291537       9.96136080       3.74719263       0.00642285      -0.00308829       0.00174366
C        7.45429381       1.40311682       3.76720824      -0.00339904      -0.00429238      -0.00207898
C        6.22412566       3.53857397       3.93338010       0.00635949       0.00046332      -0.00288292
C        4.96875849       5.69262608       4.15166803      -0.00451984      -0.00112924      -0.00485974
C        3.72545762       7.77549634       4.02474294      -0.00307009      -0.00054336      -0.00944993
C        2.49962825       9.91943214       3.75843851       0.00561077      -0.00806421      -0.00197402
C        9.91384799       1.41030951       3.62432131      -0.00227741      -0.00184859       0.00915400
C        8.67232085       3.55605798       3.68465380       0.00716676       0.00028051       0.00585039
C        7.42918963       5.69601297       3.84480900       0.00005090      -0.00256970      -0.00724860
C        6.19910432       7.83491822       3.91492592      -0.00232766       0.00093809      -0.00545226
C        4.96770162       9.95741751       3.78102057      -0.00205714       0.00203959      -0.00502338
Cd       2.36449438       5.12195086       5.23064086      -0.00578390      -0.00506133       0.00614322
O        0.68592096       4.68006685       6.16071380       0.00429378       0.01617218      -0.00613393
