49
Lattice="12.336457 0.0 0.0 -6.168228499999997 10.683685154694365 0.0 0.0 0.0 15.0" Properties=species:S:1:pos:R:3:forces:R:3 energy=-429.1274857122044 free_energy=-429.1274857122044 stress="-0.005168424564525546 -0.0035636912670372035 -8.964174511873765e-06 -0.0035636912670372035 -0.001440208413740375 -3.3429219282257022e-06 -8.964174511873765e-06 -3.3429219282257022e-06 -2.5325984351905227e-06" pbc="T T T"
C       -0.00508600      -0.00210446       3.84927616       0.00207415       0.00868730      -0.00320114
C       -1.26281867       2.11482737       3.87215168       0.00486966       0.00857616      -0.00624913
C       -2.48272070       4.25948926       3.78287732      -0.00229051      -0.00682620       0.00836909
C       -3.68480083       6.41125995       3.69710951      -0.00527723      -0.00762114       0.00699765
C       -4.91928007       8.55579823       3.74500569      -0.00162156      -0.00057553      -0.00677540
C        2.47052896      -0.00591697       3.84140192       0.00446880       0.00073878      -0.00456902
C        1.21441733       2.13643320       3.93570212      -0.00177743       0.00043747       0.01113100
C       -0.02220104       4.24185520       4.02757108      -0.00508652      -0.00538496       0.00362043
C       -1.25034048       6.41152098       3.90256968      -0.00469738      -0.00231021      -0.00531971
C       -2.45949946       8.54891022       3.81441679       0.00408404      -0.00133691       0.00612274
C        4.94005942      -0.00604981       3.73270567       0.00584697      -0.00573199      -0.00675888
C        3.66914065       2.09154189       3.49467261      -0.00394087      -0.01397459      -0.00243084
C        1.16156996       6.41038145       4.28338742       0.00247467       0.00223729       0.00409146
C        0.01165227       8.52551411       3.89377194       0.00672033       0.01140869      -0.00516186
C        7.40412464      -0.02282792       3.74458988      -0.00591219      -0.00355333      -0.01335889
C        6.15765714       2.14209705       3.52396812       0.00148112      -0.00382279      -0.00234941
C        4.97287377       4.36517017       3.23332452       0.00744908       0.01123568       0.00072165
O        3.83185905       6.49000223       3.40396034      -0.00341923      -0.00253925       0.01358427
C        2.50433548       8.48984569       3.81663700       0.00218072       0.00348141      -0.00046602
C        9.85803863      -0.02538203       3.78049278      -0.00589932       0.00512626      -0.00394672
C        8.61853184       2.12288130       3.70185942      -0.00169058       0.00291777      -0.00471632
C        7.40375026       4.27837924       3.54515167       0.00034825       0.00145091       0.00146151
C        6.22105367       6.45190384       3.46307988       0.00226117      -0.00302309       0.00320779
C        4.95998962       8.55511241       3.67888972      -0.00003014      -0.00931838      -0.00200995
C       -0.02626329       1.41182498       3.91217396       0.00401083       0.01078089       0.00573215
C       -1.26527949       3.53664657       3.88917516      -0.00225086      -0.00100350       0.00934149
C       -2.46790059       5.69149730       3.78929483      -0.00699375      -0.00756168       0.00412432
C       -3.68358963       7.83736614       3.75272220      -0.00185877      -0.00287671       0.00230752
C       -4.93004806       9.97416723       3.83703160       0.00156815       0.00457685      -0.00083351
C        2.45823492       1.40738657       3.79520397      -0.00353478       0.00100623       0.00808433
C        1.17785754       3.52600272       4.08240716      -0.00792853      -0.00498523       0.00366315
C       -0.01733776       5.70486755       4.07256239       0.00371890      -0.00348324      -0.00234865
C       -1.22808106       7.83133385       3.87198675       0.00721967       0.00429635       0.00022498
C       -2.45885796       9.96932532       3.80321614       0.00531714      -0.00179340      -0.00583370
C        4.93049519       1.41876012       3.57370311       0.00094596      -0.01121132      -0.00822241
P        3.41964709       3.67028965       2.77679744      -0.00776801       0.00618740       0.00117047
C        1.25180500       7.76418498       3.99813678       0.00259602       0.01144845      -0.00603645
C        0.00519135       9.95051841       3.78651175       0.00146173       0.00135742      -0.00873151
C        7.38633295       1.41227649       3.65179610      -0.00060675      -0.00578426      -0.00723287
C        6.16375639       3.58103102       3.41787639       0.00026953       0.00496565       0.00123040
C        5.02463795       5.77668631       3.29822626      -0.00014510       0.00732729      -0.00098001
C        3.75755509       7.85116649       3.64244181      -0.00056448      -0.00700078       0.00724998
C        2.47170272       9.92252401       3.77714228      -0.00775983       0.00130423      -0.00507311
C        9.84367623       1.40342208       3.78975704       0.00163501       0.01008889      -0.00241554
C        8.62424079       3.55268391       3.67424579      -0.00132854       0.00126213       0.00173154
C        7.43091423       5.70198631       3.55906174      -0.00030472      -0.00350164       0.00638445
C        6.20266870       7.86003100       3.62379798       0.00103844      -0.00891804      -0.00197359
C        4.93127537       9.96914241       3.78323119      -0.00002545      -0.00118184       0.00083514
Cd       2.56192419       4.91278509       5.03164683       0.00867221       0.00442055       0.00560714
