51
Lattice="12.336457 0.0 0.0 -6.168228499999997 10.683685154694365 0.0 0.0 0.0 15.0" Properties=species:S:1:pos:R:3:initial_magmoms:R:1:forces:R:3 energy=-439.2646488667195 free_energy=-439.2646488667195 stress="-0.0015160364214873417 -0.0035696550716958985 5.8755137972479205e-06 -0.0035696550716958985 -0.0016828702972721387 -7.664438526480828e-06 5.8755137972479205e-06 -7.664438526480828e-06 1.7468103815280326e-05" pbc="T T T"
C       -0.03403366      -0.01447477       3.80282809       0.00000000       0.00113842       0.00152164      -0.00075123
C       -1.27884732       2.11690082       3.73951163       0.00000000       0.00396231       0.00184907       0.00104171
C       -2.49132898       4.25093531       3.62584761       0.00000000       0.00423395       0.00426574      -0.00143323
C       -3.71282117       6.39580127       3.61566524       0.00000000      -0.00306397      -0.00423880       0.00089791
C       -4.95363773       8.53489852       3.72121424       0.00000000      -0.00240295      -0.00281558       0.00199751
C        2.43831171      -0.03778061       3.76310007       0.00000000       0.00603000       0.00092526      -0.00148216
C        1.19159737       2.10807880       3.79749250       0.00000000       0.00062879       0.00693063      -0.00430754
C        0.00645131       4.23956903       3.73762185       0.00000000      -0.00328568      -0.00024162       0.00005137
C       -1.26344787       6.39701372       3.69019980       0.00000000      -0.00155080      -0.00258254       0.00288683
C       -2.48725668       8.52970467       3.69996173       0.00000000       0.00086803      -0.00302442      -0.00294313
C        4.90365718      -0.01345832       3.65137378       0.00000000       0.00450061       0.00485373       0.00044477
C        3.61807848       2.08435581       3.47658155       0.00000000      -0.00198792       0.00587457      -0.00240481
C        1.11649041       6.40674229       4.16912868       0.00000000       0.00211777       0.01325456      -0.00326631
C       -0.01854362       8.52178431       3.78550102       0.00000000      -0.00216159      -0.00176082       0.00009066
C        7.36950596      -0.01920365       3.69361496       0.00000000       0.00194468      -0.00437778       0.00435328
C        6.11458213       2.14139376       3.51474936       0.00000000      -0.00342300      -0.00357745      -0.00351716
C        4.89508446       4.36047879       3.38120799       0.00000000      -0.00018036      -0.00338931       0.00194614
O        3.77980189       6.47177165       3.63377682       0.00000000       0.00342074       0.00104422       0.00232965
C        2.46740964       8.49958202       3.83705701       0.00000000      -0.00042631       0.00421816       0.00035535
C        9.82857306      -0.02248291       3.75233371       0.00000000       0.00253324      -0.00262801      -0.00311434
C        8.59009927       2.12157516       3.63030612       0.00000000       0.00227772       0.00304022       0.00395483
C        7.36416477       4.26839571       3.53559330       0.00000000      -0.00304641       0.00230910      -0.00351039
C        6.17348362       6.43066549       3.57400765       0.00000000      -0.00170181       0.00278540      -0.00607906
C        4.92296987       8.54416035       3.74395730       0.00000000      -0.00303053      -0.00110354       0.00089469
C       -0.04748292       1.40455255       3.81029669       0.00000000       0.00247315       0.00512956      -0.00116044
C       -1.25398077       3.53927505       3.68427362       0.00000000       0.00207077      -0.00024703      -0.00194285
C       -2.48493698       5.67927268       3.62396889       0.00000000      -0.00123691      -0.00164786       0.00642386
C       -3.71464900       7.81889276       3.67629279       0.00000000      -0.00233696      -0.00255446       0.00413399
C       -4.96437071       9.95263350       3.78563680       0.00000000       0.00040030       0.00266637       0.00245644
C        2.42119966       1.37141601       3.71468261       0.00000000       0.00036385       0.00278864      -0.00483384
C        1.23986370       3.51810294       3.80143225       0.00000000       0.00263093      -0.00599102      -0.00398510
C       -0.01821500       5.69455155       3.82805981       0.00000000      -0.00305276      -0.00322454      -0.00315701
C       -1.25273896       7.81661456       3.71800380       0.00000000      -0.00189089      -0.00535537      -0.00325019
C       -2.48885276       9.94853869       3.71037877       0.00000000       0.00741551      -0.00034456       0.00082729
C        4.88443320       1.41878341       3.53569648       0.00000000      -0.00255866       0.00301397      -0.00388801
P        3.26784485       3.72090061       2.95663006       0.00000000      -0.00159666      -0.00404482       0.00253136
C        1.21444796       7.76578520       3.93371062       0.00000000      -0.00139966      -0.00883068       0.00149145
C       -0.02866151       9.94968230       3.70594235       0.00000000       0.00192679      -0.00090446       0.00119713
C        7.35110482       1.41442112       3.60811820       0.00000000       0.00025378      -0.00135046       0.00287627
C        6.10543258       3.58171180       3.46476088       0.00000000      -0.00262127      -0.00168881      -0.00576688
C        4.96427289       5.75821411       3.49056204       0.00000000      -0.00112808      -0.00178811      -0.00169994
C        3.71806438       7.84565285       3.75088808       0.00000000      -0.00220421       0.00067201      -0.00244015
C        2.43855406       9.92947412       3.75963014       0.00000000       0.00222754       0.00094894       0.00031703
C        9.82093725       1.40699502       3.70946558       0.00000000       0.00431081      -0.00327404       0.00047062
C        8.60079824       3.54804864       3.59082708       0.00000000       0.00107708       0.00633915       0.00137670
C        7.39315122       5.68801290       3.56668486       0.00000000      -0.00317631      -0.00024705       0.00500278
C        6.16219624       7.84104793       3.68346310       0.00000000      -0.00441966      -0.00093750       0.00690131
C        4.89936872       9.96327246       3.77921187       0.00000000       0.00270283      -0.00307636       0.00363769
Cd       2.35257089       4.96852185       5.26588639       0.00000000      -0.00883889      -0.00152530       0.01736125
O        3.09000225       4.95401298       8.03029543       1.00000000      -0.00650647       0.00265887      -0.01492621
O        3.74910730       5.08505939       6.91168480       1.00000000       0.00771915      -0.00031751       0.00161009
