52
Lattice="12.336457 0.0 0.0 -6.168228499999997 10.683685154694365 0.0 0.0 0.0 15.0" Properties=species:S:1:pos:R:3:forces:R:3 energy=-436.35029195853565 free_energy=-436.35029195853565 stress="-0.0020957386708880255 -0.0009516303381831391 5.794194828293969e-05 -0.0009516303381831391 -0.0060976279812685295 1.8618961034816695e-05 5.794194828293969e-05 1.8618961034816695e-05 -3.601078242089104e-05" pbc="T T T"
C        0.13706411      -0.06319826       3.75273981      -0.00062563      -0.00509964       0.00346425
C       -1.10362967       2.07660179       3.55717676      -0.00730411       0.00093074      -0.00452809
C       -2.36027100       4.22013921       3.60354894       0.00374948       0.00711704      -0.00123069
C       -3.57162690       6.35723424       3.77086652       0.00447932       0.00110599      -0.00953490
C       -4.78694178       8.48872272       3.84131370       0.01023508       0.00119026      -0.01500402
C        2.60764124      -0.08654016       3.81640845      -0.00076666      -0.00802755      -0.00752945
C        1.39019195       1.99147795       3.46268681       0.00027270      -0.00526310       0.01777147
C        0.01099097       4.22953489       3.06453240       0.00739562      -0.00037272       0.01571420
C       -1.13131033       6.37108137       3.40124009       0.00486346      -0.00176208       0.00745224
C       -2.31220998       8.48274269       3.71454688      -0.00379217      -0.00159508       0.01803238
C        5.07470004      -0.05844451       3.92291863      -0.00618159       0.00219328      -0.00273912
C        3.80261045       2.02165479       4.18732571      -0.00134636       0.00877603      -0.00874084
S        1.54763651       6.35648819       2.71444492      -0.00689160       0.00344865       0.00427296
C        0.14491790       8.50992740       3.61997083      -0.00257093      -0.00422041      -0.00288343
C        7.53660474      -0.03815689       3.92619818       0.00693361      -0.00162795      -0.00943384
C        6.29944361       2.09196955       4.14398529      -0.00094212      -0.00027653      -0.00642655
C        5.13488069       4.27304966       4.48374449      -0.00451467      -0.00413527       0.01217414
C        3.90499159       6.44159520       4.50270407      -0.01547228       0.00053754      -0.02011445
C        2.61050024       8.51964233       3.89416029       0.00720804       0.00788852       0.00199747
C       10.01214802      -0.03833978       3.87815533       0.00427781       0.00388164       0.00173768
C        8.76690022       2.09374995       3.87314533       0.00111345       0.00059654      -0.00191088
C        7.53742208       4.22974147       3.99970992       0.00371019      -0.00430904       0.00588350
C        6.32804233       6.38211465       4.07852025      -0.00121207       0.00039123       0.00980485
C        5.08281719       8.50460651       3.99283778       0.00195605       0.00126313      -0.01010149
C        0.13275985       1.35794145       3.57196152      -0.00476429      -0.00338117       0.00920480
C       -1.13921319       3.49066059       3.40187993       0.00294588       0.00495104       0.01462794
C       -2.35589250       5.64373746       3.59041331       0.00410509       0.00547988      -0.00529991
C       -3.55717527       7.77670497       3.77148109       0.00423758      -0.00137333      -0.01023891
C       -4.79773322       9.90342037       3.78544598       0.00111033      -0.00300962       0.01277041
C        2.59900324       1.32606091       3.83835861       0.00181050      -0.01066246       0.00749088
S        1.55314747       3.51067251       2.69096787      -0.00268539      -0.00165605      -0.01383269
C        0.01342966       5.62760428       3.07815216       0.00264628       0.00343255      -0.01798775
C       -1.08554993       7.78738332       3.55491874      -0.00845891       0.00033221      -0.01358099
C       -2.31667456       9.90132420       3.83254985      -0.00451450      -0.00261263      -0.00931976
C        5.06630053       1.36367037       4.11416259      -0.00356322       0.00524176       0.00135784
P        3.68388733       3.51808360       5.08217905       0.00322047      -0.01056184       0.01217021
C        1.40587130       7.87445894       3.50913198       0.00465279       0.00058864       0.00098190
C        0.14078640       9.92665125       3.84562454      -0.00024132      -0.00009892      -0.00478972
C        7.53222575       1.38757361       3.99629623       0.00189555      -0.00123294      -0.01016611
C        6.31230122       3.52194566       4.21754803       0.00033375      -0.00310268       0.01135750
C        5.09058650       5.70821611       4.35994859      -0.01209727       0.00075902       0.01226434
C        3.84498433       7.77985938       4.12166234       0.00281395       0.00738435      -0.00619404
C        2.60615882       9.93848897       3.92306605       0.00976970       0.00311556      -0.00394654
C       10.00960661       1.38280500       3.77172887      -0.00265806      -0.00017761       0.00638357
C        8.75652917       3.51557911       3.82998514       0.00688028       0.00108242      -0.00309231
C        7.53877162       5.65369646       3.95014257       0.00444365      -0.00191324       0.00260450
C        6.31788579       7.79181318       3.96701262       0.00772082       0.00423919      -0.00316523
C        5.07347670       9.92063069       3.86744795       0.00031139       0.00139782      -0.00557088
Cd       2.28418464       5.55523425       5.65302800       0.00765973       0.00537577      -0.00254376
O        0.33078184       5.64839372       6.39325933      -0.00704462       0.00908236       0.01403579
O        0.65355388       5.94207281       7.81282533      -0.01818860      -0.05512491      -0.02395731
H        0.08158053       6.72511544       7.92750625      -0.00691614       0.03981358       0.03030883
