49
Lattice="12.336457 0.0 0.0 -6.168228499999997 10.683685154694365 0.0 0.0 0.0 15.0" Properties=species:S:1:pos:R:3:forces:R:3 energy=-426.58488321266253 free_energy=-426.58488321266253 stress="-0.0053247083151914095 0.002004086571544851 2.07513674052491e-06 0.002004086571544851 -0.0050171438413906585 1.069602454011036e-06 2.07513674052491e-06 1.069602454011036e-06 -1.4236384071528953e-06" pbc="T T T"
C       -0.00055544       0.01767671       3.66047716       0.00102456      -0.00305187      -0.00677453
C       -1.23790516       2.14295669       3.72558448       0.00331191      -0.00913626      -0.00611497
C       -2.46779223       4.27998185       3.69271465       0.00767212      -0.00174864      -0.00857290
C       -3.69845402       6.41904060       3.59312525      -0.00095878      -0.00382023      -0.00393037
C       -4.94512242       8.55688720       3.55024533      -0.00290564       0.00296050      -0.00356117
C        2.46288536       0.02642541       3.75745670      -0.00082160       0.00790943      -0.00293206
C        1.21678825       2.15829285       4.04064337      -0.00675507       0.00202064      -0.00427297
C       -0.04790401       4.23838175       4.20917271      -0.00007911      -0.00165700       0.00261868
C       -1.26546946       6.42056440       4.00888254      -0.00043392      -0.00242853       0.00446843
C       -2.47394455       8.55998863       3.75169574      -0.00302457      -0.00725709      -0.00541471
C        4.93552636       0.00950652       3.69392168       0.00516165       0.00052387      -0.00404975
C        3.72305932       2.16555501       3.82332669      -0.00202591       0.00322833      -0.00879882
P        1.22889748       6.50504947       5.14238232       0.00121894       0.00733590      -0.00082485
C       -0.00909566       8.57011160       3.92283204       0.00090087      -0.00125108      -0.00587486
C        7.40088794       0.01247751       3.63270103       0.00605599       0.00235705       0.00981033
C        6.18776599       2.12528002       3.54001471      -0.00542271       0.00834430      -0.00490475
C        4.96530722       4.23825042       3.51341846      -0.00562424      -0.00139658      -0.00054325
S        3.48556223       6.32822266       2.78369689      -0.00191877      -0.00157602       0.00147677
C        2.46550356       8.59101304       3.75248853      -0.00382060       0.00120685      -0.01696156
C        9.87464938       0.01652082       3.57509466       0.00364042      -0.00327701       0.00587554
C        8.64665356       2.14282117       3.53586646      -0.00243979      -0.00523808      -0.00573794
C        7.42579699       4.27491456       3.45497797       0.00250010      -0.00234487      -0.01490329
C        6.17112280       6.41409568       3.34635006       0.00467066      -0.00009473       0.00176724
C        4.92982524       8.55756082       3.44478544       0.00072813       0.00808362       0.00297976
C       -0.01322287       1.43122271       3.80113699      -0.00058345      -0.00839845       0.00601884
C       -1.25886786       3.55489961       3.84399996       0.00401061      -0.00835362       0.00330977
C       -2.47779558       5.70660056       3.75022667      -0.00128950      -0.00135727       0.01073259
C       -3.70622651       7.84642652       3.62875139      -0.00663267      -0.00439319       0.00081041
C       -4.93769154       9.98591266       3.66250039       0.00002381       0.00512918      -0.01163314
C        2.46791675       1.44361148       3.90521547      -0.00349566       0.00952202      -0.00226244
C        1.11782406       3.49995384       4.40521297      -0.00040839      -0.00127849       0.00118308
C       -0.10791536       5.67896502       4.36374803      -0.00281403       0.00083184      -0.00053248
C       -1.24821358       7.85131868       3.92354860      -0.00069047      -0.00373264       0.00348002
C       -2.47333240       9.98628321       3.72993025       0.00015541      -0.00110488       0.00466465
C        4.95628838       1.42375192       3.65299133      -0.00023211       0.00326049      -0.00298864
C        3.83775594       3.54380823       3.94184523      -0.00751989       0.00030897       0.00376039
C        1.24559343       7.91151103       4.09365971      -0.00184598       0.00697863       0.00520752
C       -0.00150351       9.98388819       3.71988681       0.00808098       0.00122061       0.00333547
C        7.41769037       1.42363251       3.54108396      -0.00693206       0.00322646       0.01381675
C        6.21275140       3.54045561       3.46445239      -0.00366433       0.00695211       0.00597682
C        4.99001777       5.65490378       3.26259788       0.00617878      -0.00282114       0.00526970
C        3.67230405       7.91153490       3.42470867       0.00140298       0.00980836      -0.00488772
C        2.47023944      10.00015760       3.64003049       0.00495303       0.00065078       0.01076367
C        9.87269175       1.43458405       3.58828677      -0.00068940      -0.00800603       0.00687497
C        8.65196282       3.56593417       3.53495371       0.00339786      -0.00305707       0.00261404
C        7.41681763       5.70197375       3.45391478       0.00318259      -0.00424201      -0.00112389
C        6.16011628       7.84289442       3.40801435      -0.00003086       0.00352140       0.00184844
C        4.93666738       9.98804792       3.55930930       0.00291825       0.00168260       0.00594994
Cd       2.70153634       4.49470138       5.50285861       0.00186984      -0.00604115       0.00298721
