50
Lattice="12.336457 0.0 0.0 -6.168228499999997 10.683685154694365 0.0 0.0 0.0 15.0" Properties=species:S:1:pos:R:3:forces:R:3 energy=-430.52055102762534 free_energy=-430.52055102762534 stress="-4.628761205097267e-05 0.003344675964124136 -2.5773591123574682e-06 0.003344675964124136 0.0006790701308446597 2.609857059290844e-06 -2.5773591123574682e-06 2.609857059290844e-06 1.0895347407891575e-07" pbc="T T T"
C       -0.00765596       0.00473957       3.69849307       0.00041217      -0.00377072       0.00242947
C       -1.22776415       2.14831512       3.73928584       0.00363562       0.00263419      -0.00006313
C       -2.45075600       4.28571021       3.71933713      -0.00082444       0.00376024      -0.00237349
C       -3.70583597       6.41426777       3.66580169      -0.00496482      -0.00073861       0.00541126
C       -4.96902739       8.54284802       3.64899794      -0.00214693      -0.00322038      -0.00584416
C        2.44782847       0.04993286       3.71653620      -0.01074030       0.00097045      -0.00255648
C        1.20339659       2.15675654       3.76395234      -0.00850977      -0.00146832       0.00265274
C       -0.00157290       4.25902779       3.82203244       0.00519955       0.00572817       0.00122565
C       -1.22945902       6.41077974       3.77741902       0.00034531       0.00431804       0.00042087
C       -2.49930560       8.55856711       3.73680584       0.00504962      -0.00121739      -0.00175370
C        4.90752012       0.01242377       3.77020247       0.00417740      -0.00026925       0.00373546
C        3.72756740       2.15201345       3.69785871       0.00328050       0.00054037      -0.00347568
C        1.21258737       6.45899647       4.05487394      -0.01147079       0.00146902      -0.00396638
C       -0.03458383       8.56162786       3.85036655       0.00338583      -0.00452499       0.00281005
C        7.38670596       0.01041946       3.81215476       0.00008414      -0.00388044      -0.00325856
C        6.17800184       2.12179977       3.72543168       0.00457356       0.00425108       0.00403674
C        4.99728695       4.19565179       3.56844934       0.00937650      -0.00095176      -0.00627133
S        3.35434496       6.19274795       3.30844389      -0.00604848      -0.00493708      -0.00322789
C        2.43354723       8.57711666       3.82314743      -0.00354027      -0.00381091       0.00186742
C        9.86611826       0.00703177       3.75156480       0.00170051       0.00138493       0.00536860
C        8.64537677       2.14285337       3.74162019      -0.00378540      -0.00220054       0.00389298
C        7.42304440       4.27307759       3.65488817      -0.00350363      -0.00348732       0.00177048
C        6.14231004       6.37979651       3.55879906      -0.00068525      -0.00216506       0.00397142
C        4.89703781       8.52609349       3.63116198       0.00191466       0.00928677       0.00212745
C        0.00771399       1.44450801       3.73267420      -0.00423715      -0.00746351      -0.00283408
C       -1.21238413       3.57044892       3.75325431       0.00604142       0.00704202       0.00059338
C       -2.45923336       5.70526484       3.71323976      -0.00113717       0.00545836       0.00439485
C       -3.72544368       7.83936683       3.67749286       0.00057235      -0.00086435       0.00269762
C       -4.94791207       9.98782236       3.68733611      -0.00534484      -0.00544548      -0.01350998
C        2.45958200       1.50026911       3.72819644      -0.00683117       0.00378121      -0.00185857
O        1.17085173       3.53612148       3.86616994       0.00067767      -0.00013287      -0.00243660
C        0.04075162       5.69544464       3.85995102      -0.00485839       0.00393486      -0.00076000
C       -1.26271712       7.84008751       3.79210798       0.00653901      -0.00054589       0.00503424
C       -2.49812511       9.99501549       3.74103468      -0.00289806       0.00230434       0.00070924
C        4.91971803       1.44064211       3.73761095       0.00638318       0.00366383      -0.00285789
O        3.78329569       3.52675967       3.61498107       0.01202910       0.00144737       0.00306590
C        1.20133964       7.84262208       3.90970927      -0.00528075      -0.00330298      -0.00198073
C       -0.02435332       9.98624418       3.81462551       0.00349727      -0.00658828      -0.00309750
C        7.40174051       1.42798001       3.76513690      -0.00247304      -0.00256390      -0.00396036
C        6.20166780       3.52942386       3.64981615       0.00503496      -0.00059155       0.00154441
C        4.96962901       5.58793688       3.48992828       0.00362813      -0.00312968      -0.00230363
C        3.63318415       7.87674451       3.64309782      -0.00010206       0.00514220      -0.00327410
C        2.45438901       9.99521378       3.80912049       0.00052256      -0.00297455       0.00817111
C        9.88176504       1.43734825       3.74470289       0.00108693       0.00198234       0.00800873
C        8.65680111       3.56635491       3.70501615      -0.00370635      -0.00172596      -0.00548071
C        7.40131851       5.68979785       3.62077796      -0.00368520      -0.00501952      -0.00502585
C        6.13269545       7.81618373       3.59499918      -0.00123291       0.00140360       0.00181800
C        4.92000505       9.96786680       3.69592158       0.00389755       0.00652294       0.00489824
Cd       2.48497912       5.50157186       5.56834801       0.00495632       0.00401377       0.00021946
O        3.03891285       4.89142448       7.31850217       0.00000538      -0.00404883      -0.00070499
