51
Lattice="12.336457 0.0 0.0 -6.168228499999997 10.683685154694365 0.0 0.0 0.0 15.0" Properties=species:S:1:pos:R:3:initial_magmoms:R:1:forces:R:3 energy=-438.095589194036 free_energy=-438.095589194036 stress="-0.00478793963452657 -0.004212737406649849 1.5675930647547227e-05 -0.004212737406649849 0.0010334499499804212 -1.1066471831578271e-05 1.5675930647547227e-05 -1.1066471831578271e-05 -2.6221139319768872e-05" pbc="T T T"
C       -0.02941300       0.02110525       3.73530097       0.00000000      -0.00195609       0.00080957      -0.00392994
C       -1.29298306       2.14339716       3.77752449       0.00000000      -0.00833410      -0.00293824       0.00527049
C       -2.49573245       4.29493669       3.70797494       0.00000000      -0.00092667       0.00194196       0.00259798
C       -3.69579300       6.44708847       3.61342492       0.00000000       0.00552755      -0.00072706      -0.00281154
C       -4.93417825       8.59420439       3.65394272       0.00000000       0.00671400       0.00178438       0.00351779
C        2.43372650       0.05352243       3.75414198       0.00000000       0.00099569      -0.00893669       0.00366203
C        1.14124150       2.14295262       3.85167874       0.00000000       0.00602594      -0.00039406      -0.00400049
C       -0.08258682       4.24601138       4.03132367       0.00000000       0.00200450       0.00287956      -0.00155961
C       -1.25898710       6.42507411       3.84195879       0.00000000       0.00139824       0.00453000      -0.00612665
C       -2.48380634       8.58350156       3.73793327       0.00000000      -0.00445528      -0.00500987      -0.00110929
C        4.90217664       0.03393561       3.66929428       0.00000000      -0.00224936      -0.00289270      -0.00012987
C        3.63204420       2.13641191       3.43189684       0.00000000      -0.00039532       0.00011991      -0.00718097
C        1.10777728       6.44654391       4.28242888       0.00000000       0.00360698      -0.00328237      -0.00338916
C       -0.02817970       8.56346555       3.84568432       0.00000000      -0.00454729      -0.00756031      -0.00341590
C        7.36879044       0.00653557       3.68808963       0.00000000      -0.00029658       0.00381375       0.00230572
C        6.12481306       2.17103389       3.45448680       0.00000000       0.00181958       0.00143062       0.00006392
C        4.99753626       4.38750811       3.21739893       0.00000000      -0.00217427      -0.00132717      -0.00441308
N        3.81405384       6.45376222       3.68127265       0.00000000      -0.00214910       0.00508474      -0.00841818
C        2.45775776       8.51971442       3.84697512       0.00000000      -0.00579828       0.00895203       0.00051189
C        9.82800285      -0.00185481       3.71266885       0.00000000       0.00272101       0.00180263      -0.00658829
C        8.59143364       2.15285670       3.62070221       0.00000000      -0.00066714      -0.00270255      -0.00188801
C        7.39996535       4.31173067       3.47055796       0.00000000       0.00060997      -0.00416676       0.01096711
C        6.21325647       6.48410021       3.44282600       0.00000000       0.00416346       0.00004482       0.01164688
C        4.93337720       8.57212311       3.64244855       0.00000000       0.00070605       0.00017027      -0.00212417
C       -0.05103742       1.44643513       3.79404271       0.00000000       0.00055706       0.00293410      -0.00489637
C       -1.27830715       3.56373189       3.83287474       0.00000000      -0.00091627      -0.00013777       0.00225630
C       -2.47582885       5.71985892       3.71222386       0.00000000       0.00464843       0.00405617      -0.00039752
C       -3.70400660       7.87283032       3.66703182       0.00000000       0.00196345      -0.00424765      -0.00450860
C       -4.95636454      10.01616453       3.73477292       0.00000000      -0.00054850      -0.00158819       0.00403595
C        2.40189458       1.48304817       3.72723902       0.00000000       0.00472827      -0.00831337       0.00380301
O        1.06183247       3.48450127       4.18985052       0.00000000       0.00771904       0.00395243       0.00760200
C       -0.02366471       5.69179018       4.05091719       0.00000000      -0.00209067       0.00474394       0.00499549
C       -1.25393402       7.85454883       3.80574001       0.00000000      -0.00744108       0.00004063       0.00339716
C       -2.49388237      10.01435055       3.72930305       0.00000000      -0.00126867      -0.00789338      -0.00141531
C        4.88315250       1.46958480       3.50909568       0.00000000      -0.00036567       0.00401106       0.00124031
S        3.46912323       3.74329217       2.82556470       0.00000000      -0.00560077      -0.00044572      -0.00170825
C        1.20588860       7.79966976       3.99557527       0.00000000      -0.00088043       0.00089218      -0.00000288
C       -0.03010030       9.98722547       3.72917906       0.00000000      -0.00138374      -0.00535031       0.00837280
C        7.35274309       1.44234247       3.57972262       0.00000000       0.00122143       0.00107997       0.00059160
C        6.15426665       3.60469108       3.36181665       0.00000000       0.00032458      -0.00152539      -0.00856682
C        4.98226284       5.80504470       3.38879556       0.00000000       0.00203309       0.00029646      -0.00123703
C        3.71974263       7.81437066       3.71803009       0.00000000      -0.00540386       0.00574339       0.00259969
C        2.43569909       9.94722981       3.74412888       0.00000000       0.00167672       0.01001929       0.00312262
C        9.82365493       1.43200725       3.70184556       0.00000000      -0.00519480      -0.00238725       0.00087101
C        8.61197282       3.58324126       3.59253195       0.00000000       0.00208866      -0.00354308      -0.00664273
C        7.42003664       5.73777104       3.48616997       0.00000000       0.00419880      -0.00180934       0.00243413
C        6.17972945       7.89295388       3.57012372       0.00000000       0.00609143       0.00464954      -0.00516553
C        4.90338634       9.98644879       3.70198158       0.00000000      -0.00023208      -0.00038317      -0.00181439
Cd       2.60332296       5.28542618       5.27721588       0.00000000       0.00269578      -0.00462074      -0.01188911
O        3.39644628       4.71394485       7.95656747       1.00000000      -0.00451994       0.00390890       0.00180589
O        3.24669390       3.99732492       6.87899593       1.00000000      -0.00644376       0.00249084       0.01765796
