51
Lattice="12.336457 0.0 0.0 -6.168228499999997 10.683685154694365 0.0 0.0 0.0 15.0" Properties=species:S:1:pos:R:3:initial_magmoms:R:1:forces:R:3 energy=-438.8987132778768 free_energy=-438.8987132778768 stress="-0.005408125809923403 0.0026504440008249986 5.002936415477628e-06 0.0026504440008249986 0.00013944997431801774 1.0036756647727762e-05 5.002936415477628e-06 1.0036756647727762e-05 -1.585803090396137e-05" pbc="T T T"
C       -0.01264572      -0.04058288       3.71658791       0.00000000      -0.01149282       0.00737351      -0.00581930
C       -1.24044373       2.09184482       3.77933532       0.00000000      -0.00236086       0.00859158      -0.00877615
C       -2.45822596       4.22874222       3.69610497       0.00000000      -0.00154100       0.00329263       0.00040172
C       -3.70336978       6.36764555       3.59468468       0.00000000       0.00959269      -0.00466107      -0.00539662
C       -4.94800501       8.51346177       3.57458435       0.00000000      -0.00579311      -0.00200387       0.00480041
C        2.45377365      -0.01253242       3.77023075       0.00000000      -0.00008926      -0.00187482       0.01434437
C        1.21533494       2.13769717       3.96534087       0.00000000       0.00608483       0.00534298       0.00088955
C        0.00504988       4.25338769       3.97332636       0.00000000      -0.00228774      -0.00864830       0.01376247
C       -1.25384693       6.38223221       3.80623934       0.00000000       0.00735911       0.00476767      -0.00960164
C       -2.48397630       8.51760245       3.71219398       0.00000000      -0.01248096      -0.00339484      -0.00485456
C        4.92755256      -0.03322377       3.74923562       0.00000000       0.00732485      -0.00177686      -0.00675905
C        3.71212401       2.12648186       3.81199129       0.00000000      -0.00653073       0.00488304      -0.00934163
O        1.09898416       6.44954415       4.10740634       0.00000000      -0.00997979      -0.00420754      -0.00278066
C       -0.02639883       8.50406827       3.77874898       0.00000000       0.00562232      -0.00305206       0.00464517
C        7.40086445      -0.06386108       3.73921442       0.00000000      -0.00005445      -0.00078335      -0.00103567
C        6.19081088       2.07100087       3.64413069       0.00000000      -0.00128259      -0.00395067       0.01272101
C        4.97406728       4.18084395       3.47984041       0.00000000       0.00000531       0.00271146      -0.00829061
P        3.52377794       6.24160836       2.58812751       0.00000000       0.00085564      -0.00541106       0.00298529
C        2.42806743       8.46370364       3.66228084       0.00000000       0.00721065       0.01151187      -0.00726727
C        9.85854664      -0.06425632       3.70139436       0.00000000      -0.00073916      -0.00334671       0.00793509
C        8.64408459       2.07862897       3.67587385       0.00000000       0.00047290      -0.00419039      -0.01401206
C        7.43066333       4.21522015       3.52643502       0.00000000      -0.00326964       0.01109369      -0.00155725
C        6.18845335       6.36372630       3.36065697       0.00000000       0.00151059       0.00554446      -0.00525422
C        4.91527603       8.49218396       3.46768360       0.00000000       0.00331082      -0.01191816      -0.00186974
C       -0.01767128       1.38115189       3.82213139       0.00000000      -0.00114355       0.01193462       0.01080525
C       -1.23707317       3.52275164       3.80229968       0.00000000      -0.00392024       0.00378668      -0.00354242
C       -2.47443578       5.65329294       3.69605590       0.00000000       0.01287666       0.00204992       0.00053357
C       -3.71571148       7.80001384       3.62225652       0.00000000      -0.00980096      -0.00986682       0.01012817
C       -4.94425802       9.93956661       3.68967570       0.00000000      -0.00801607       0.00277447       0.00576725
C        2.46047553       1.40639452       3.88291457       0.00000000      -0.00025294       0.00155328      -0.00574941
C        1.15313435       3.51029209       4.17532649       0.00000000       0.00719012       0.00133770       0.00151073
C       -0.05714516       5.69739374       3.96658170       0.00000000      -0.00320803      -0.00949575      -0.00361062
C       -1.26432020       7.80613233       3.77037609       0.00000000      -0.00418416       0.00595267      -0.00068764
C       -2.48338114       9.94792612       3.74373570       0.00000000       0.00230896      -0.00141217      -0.00136847
C        4.94939684       1.38018169       3.72690891       0.00000000      -0.00555376       0.00083612      -0.00009540
C        3.80505210       3.51114084       3.82223136       0.00000000       0.00658070       0.00259504       0.00797379
C        1.17197298       7.79994461       3.79906235       0.00000000       0.00670572      -0.00295971      -0.00808415
C       -0.00837046       9.92964145       3.75061634       0.00000000       0.00718737      -0.00455614      -0.00096510
C        7.41668222       1.35980489       3.68491656       0.00000000      -0.00033957      -0.00613891       0.00485206
C        6.21546326       3.48366075       3.52660911       0.00000000       0.00057719       0.00020878       0.01258874
C        4.99750569       5.61066888       3.24107203       0.00000000       0.00188323       0.00484010      -0.00583839
C        3.66447413       7.80211763       3.36560585       0.00000000       0.00235204      -0.00451807       0.01024900
C        2.45171154       9.89344813       3.72387197       0.00000000      -0.00016166       0.00851983      -0.00014357
C        9.86502244       1.36383507       3.72224990       0.00000000       0.00221113      -0.00182592      -0.00487136
C        8.65194663       3.50547527       3.62282015       0.00000000      -0.00584688       0.00395364       0.01768160
C        7.41976837       5.64665910       3.48862790       0.00000000       0.00155139       0.01181972      -0.00304778
C        6.16209749       7.79302043       3.43349735       0.00000000       0.00257917      -0.00267683      -0.00197346
C        4.92386539       9.91783593       3.63969940       0.00000000      -0.00603710      -0.00940673      -0.01115238
Cd       2.62617145       4.68053374       5.23551107       0.00000000       0.00676905      -0.01186424      -0.01175941
O        3.03578670       5.67536626       7.90493548       1.00000000      -0.00549141       0.00529877       0.01581418
O        2.65651177       6.22355144       6.79124227       1.00000000       0.00173598      -0.00863329      -0.00488342
