50
Lattice="12.336457 0.0 0.0 -6.168228499999997 10.683685154694365 0.0 0.0 0.0 15.0" Properties=species:S:1:pos:R:3:forces:R:3 energy=-433.6149342779171 free_energy=-433.6149342779171 stress="0.0018876121361488586 0.0020784855358976667 -4.523310263757941e-06 0.0020784855358976667 -0.0017765346515479727 -2.5466706255543634e-05 -4.523310263757941e-06 -2.5466706255543634e-05 -1.3944388442502216e-06" pbc="T T T"
C       -0.00528442      -0.00388547       3.65348020       0.00482814      -0.00298108       0.00281595
C       -1.22284359       2.14087648       3.65223755      -0.00821289       0.00229183      -0.00583624
C       -2.48470346       4.26291193       3.65489853      -0.01122079      -0.00103613       0.00117913
C       -3.74211643       6.38732468       3.63250864      -0.00302777       0.00249987      -0.00175953
C       -4.96810467       8.51692748       3.62891812       0.00412126      -0.00898807       0.00185906
C        2.46013234      -0.05657422       3.61588611      -0.00701858       0.00112657       0.00921477
C        1.28675264       2.08836810       3.60741763      -0.00192367      -0.00393908       0.00134556
C        0.00112726       4.32811372       3.74271587      -0.00055504       0.00126660       0.00287368
C       -1.29303567       6.42171413       3.80514470      -0.00178146      -0.00459935      -0.00411420
C       -2.49351311       8.52675220       3.69000234       0.00464853       0.00768380      -0.00575606
C        4.93284784      -0.02895967       3.66631978       0.00373990       0.00180134      -0.00064751
C        3.70396533       2.09166044       3.55851641       0.00866661       0.00255517       0.01129838
C        1.10372018       6.44778687       4.31535384       0.00784705      -0.00615721      -0.00828869
C       -0.01496142       8.53303606       3.86337101       0.00309618      -0.00261520      -0.00767330
C        7.40097407      -0.01612055       3.74990747       0.00947297       0.00593419      -0.00261579
C        6.15433680       2.13001476       3.61394530       0.00150644       0.00869648       0.00436637
C        4.81914811       4.27918832       3.55528558       0.00353007      -0.00184414       0.00720940
O        3.74967847       6.45381022       3.79395484      -0.00910153      -0.00912675       0.00507705
C        2.48262816       8.51524188       3.91287448       0.00236605      -0.00511182      -0.00511557
C        9.86399311      -0.00856162       3.72927574       0.00645021      -0.00277414      -0.01087753
C        8.62932603       2.12834409       3.65616465      -0.00321196      -0.00736940      -0.00153619
C        7.34950325       4.25434404       3.59230576       0.00236451      -0.00030023       0.01289847
C        6.11948626       6.38714631       3.59547743      -0.00954196       0.00182068      -0.00190044
C        4.92042701       8.53504627       3.71383786      -0.00373912       0.00709762      -0.00127133
C        0.01464705       1.42982230       3.64027892      -0.00468045      -0.00176190      -0.00238417
C       -1.21794890       3.57150499       3.66760399      -0.00839455       0.00544264      -0.00080863
C       -2.50547999       5.68740119       3.68332112      -0.00786813      -0.00135540       0.00913082
C       -3.72972587       7.81006914       3.64391227       0.00871914       0.00163947      -0.00200924
C       -4.95473978       9.94210873       3.63337897      -0.00054246      -0.01064626      -0.00300096
C        2.48405268       1.34790661       3.58705787       0.00534705       0.00178660       0.00948160
P        1.69958635       3.78372250       3.52823638      -0.00519674      -0.00258239       0.00667814
C       -0.05089181       5.75022738       3.95544982       0.00218835      -0.00012218       0.00125345
C       -1.26316470       7.83327078       3.79143776       0.00110649      -0.00237968      -0.00862368
C       -2.47230914       9.93659611       3.65249657      -0.00402396       0.00852112       0.00421134
C        4.94190081       1.39322449       3.60677524       0.00832871       0.00191522      -0.00586153
C        3.59042699       3.49771183       3.52949875       0.00283628       0.00336411       0.00607814
C        1.21755250       7.79379012       4.04120745       0.00142941      -0.00299739       0.00685668
C       -0.00388843       9.94828455       3.75714279       0.00838246       0.00205083      -0.00205852
C        7.39612495       1.41218575       3.67038987      -0.00269486       0.00610492      -0.00439205
C        6.09769751       3.56242256       3.57855857       0.00435277       0.00429428      -0.00288076
C        4.90158609       5.70490919       3.61722863      -0.00723760      -0.00397177      -0.01015222
C        3.71656805       7.84049741       3.81798557      -0.00252698      -0.00526348      -0.01617133
C        2.47000245       9.94158126       3.79941315       0.00926115      -0.00175744      -0.00027975
C        9.87371292       1.42518590       3.67863800      -0.00360308      -0.00610430      -0.00932089
C        8.61297601       3.55231580       3.62311008      -0.00476538      -0.00922900       0.01169093
C        7.35891159       5.67129304       3.59166764      -0.00459962       0.00200098      -0.00328283
C        6.14121061       7.81314088       3.63511607      -0.00535350       0.00318870       0.01137436
C        4.92515698       9.96921349       3.70411410       0.00672598       0.00502406      -0.00454181
Cd       2.26793418       5.34751696       5.75439367      -0.00120455       0.00273968       0.00330477
O        2.98996709       4.74620503       7.45725942       0.00071094       0.01416704       0.00296269
