53
Lattice="12.336457 0.0 0.0 -6.168228499999997 10.683685154694365 0.0 0.0 0.0 15.0" Properties=species:S:1:pos:R:3:forces:R:3 energy=-456.0459447705619 free_energy=-456.0459447705619 stress="-0.0021479584003135676 0.005338647070206338 1.73670939977528e-05 0.005338647070206338 -0.0013106775998270005 -9.278791610746358e-06 1.73670939977528e-05 -9.278791610746358e-06 -1.8291604857736148e-05" pbc="T T T"
C       -0.02112311       0.01377599       3.71279961      -0.00236803      -0.00173770      -0.00510763
C       -1.22041624       2.16429887       3.79801074      -0.00004282      -0.00539668       0.00426219
C       -2.45057641       4.29082589       3.81330817      -0.00426222       0.00597629       0.00451432
C       -3.72529553       6.41800241       3.71539874       0.00274763      -0.00385452       0.00213776
C       -4.98030619       8.54711570       3.65116753       0.00269613       0.00636420      -0.00554891
C        2.43691490       0.00936107       3.71178904       0.00611107      -0.00643530       0.00791517
C        1.23963739       2.18313264       3.69859035       0.00866455       0.00044663       0.00608005
C        0.02865862       4.33314393       3.87882058      -0.00135586      -0.00164191       0.01090201
C       -1.27233123       6.44377691       3.93227310       0.00147198       0.00338651      -0.01845231
C       -2.51235530       8.56265752       3.81346684      -0.00864291       0.00079083      -0.00599213
C        4.91312757       0.00618828       3.81120620       0.00298933       0.00432425      -0.00231631
C        3.70598258       2.11360865       3.63798206      -0.00945639      -0.00039060      -0.00210261
C        2.56605011       4.31275210       3.66329127       0.00037105       0.00426590      -0.00049474
N        1.06111901       6.52402912       4.39953909       0.00301901       0.00346608       0.00734257
C       -0.05618317       8.57366932       3.98544137      -0.00234442      -0.00850303      -0.01051791
C        7.39239282       0.00427064       3.91766369      -0.00516785       0.00118572      -0.00749876
C        6.18647119       2.11770023       3.73488563       0.00210322      -0.00041126       0.00184657
C        4.99158417       4.21580133       3.47187436       0.00113769      -0.00548538      -0.00457190
P        3.36153336       6.17685932       2.92426957      -0.01699603       0.00891746      -0.00014972
C        2.42015540       8.54512603       3.92362796       0.00616609       0.00964471      -0.00271681
C        9.86061050       0.00659790       3.83727135      -0.00409934      -0.00200317       0.00560781
C        8.64942921       2.14165840       3.82684580       0.00477657       0.00685598      -0.00764276
C        7.42900912       4.26778649       3.66436495      -0.00228360      -0.00295220      -0.00128540
C        6.15362796       6.39704791       3.48445304       0.00941785      -0.00404119       0.00210453
C        4.87853374       8.53090922       3.62553792       0.00222077      -0.00766150       0.01103505
C        0.00546264       1.45399172       3.74055676       0.00571847       0.00049722      -0.00212556
C       -1.20108367       3.60030407       3.83315993      -0.00542117      -0.00147721       0.01341398
C       -2.48362248       5.71462058       3.81577349       0.00257388       0.00230955       0.00133536
C       -3.74232937       7.84326737       3.72112524      -0.00341004      -0.00327580      -0.00599591
C       -4.96659065       9.97760589       3.68771308       0.00268777       0.00267816      -0.00053529
C        2.45353514       1.43437730       3.68191554      -0.00033261      -0.00961870       0.00179196
C        1.28209870       3.64020766       3.72148856       0.00504458       0.00251331       0.00584236
C       -0.03296482       5.76529195       4.06344007       0.00312779       0.00373987      -0.00511793
C       -1.28371061       7.86026305       3.92891460      -0.01014648       0.00044851      -0.00619799
C       -2.50041118       9.98546353       3.77760798       0.00555989       0.00088060       0.00152454
C        4.93812916       1.41499123       3.72454938      -0.00478548       0.00747552       0.00344891
C        3.73726200       3.52689682       3.53775349      -0.00498764      -0.00075052      -0.00532714
C        1.15057181       7.85800684       4.09541078       0.00850893       0.00319383      -0.00330257
C       -0.02505414       9.98878272       3.91079056      -0.00305403      -0.00728160       0.00006707
C        7.41219735       1.42141977       3.83861170       0.00585736       0.00239780      -0.00882581
C        6.21328606       3.53066899       3.61923492       0.00201674      -0.00558113       0.00014712
C        4.96596101       5.62419926       3.34710718       0.00293684      -0.00529428      -0.01259538
C        3.61514122       7.83202542       3.63752929       0.00082441      -0.00595725       0.01009094
C        2.45058166       9.97220402       3.92396207      -0.00339532       0.00768184       0.00941500
C        9.88064812       1.43744817       3.83342654      -0.00119473      -0.00248104      -0.00253032
C        8.65854494       3.56638780       3.77159181      -0.00359406       0.00765379      -0.00239195
C        7.39641397       5.69434934       3.61164695       0.00531385      -0.00599153       0.00519072
C        6.12535117       7.82734740       3.56075802       0.00605080       0.00206734       0.00432518
C        4.91128212       9.96999132       3.73241365      -0.00509342      -0.00602584       0.00791141
Cd       2.71661185       5.57838220       5.53042254       0.00087015       0.00230195      -0.00780150
O        3.79938349       5.46137599       7.27007354       0.00188654       0.00757863      -0.00619031
O        2.73125445       5.07147792       8.22484046      -0.00032452      -0.00843217       0.00810143
H        2.90566505       5.74752603       8.90941812      -0.01011195       0.00363901       0.00698153
