49
Lattice="12.336457 0.0 0.0 -6.168228499999997 10.683685154694365 0.0 0.0 0.0 15.0" Properties=species:S:1:pos:R:3:forces:R:3 energy=-428.85988923845866 free_energy=-428.85988923845866 stress="-0.007017695761402185 0.0033259962124892435 -1.038702180953383e-05 0.0033259962124892435 -0.00027047100186229243 5.8903389118250605e-06 -1.038702180953383e-05 5.8903389118250605e-06 4.489638940217037e-06" pbc="T T T"
C       -0.01123384       0.00533128       3.79877944       0.00602341      -0.00159546       0.00200255
C       -1.23694230       2.13781577       3.89445816      -0.00617087      -0.00351582      -0.00192069
C       -2.45701426       4.27637898       3.80553779      -0.00282844      -0.00493287       0.00230906
C       -3.70067493       6.41512199       3.66575218       0.00118642       0.00301276      -0.01345529
C       -4.94732787       8.56105932       3.63984753       0.00457411       0.00122090      -0.00542828
C        2.45677373       0.03919776       3.81229692       0.00181155       0.00014274      -0.00574305
C        1.22161168       2.18632659       4.03014318      -0.00196976       0.00372617      -0.00881405
C       -0.00749641       4.30403093       4.13290977      -0.00041831       0.00016873       0.00150470
C       -1.26460662       6.43632812       3.94977542      -0.00248367      -0.00210477      -0.00236807
C       -2.48699931       8.56809091       3.79386659       0.00884321       0.00036576       0.00236555
C        4.93340325       0.01310959       3.76394291      -0.00974315      -0.00055519       0.00215608
C        3.72351262       2.17031705       3.73191442       0.00572574       0.00217132       0.00259308
O        1.07573666       6.51337699       4.26989904      -0.01091630       0.00428565       0.00705327
C       -0.03025107       8.55527136       3.87561902       0.00533219      -0.00575581       0.00045584
C        7.40667377      -0.01963375       3.78960242      -0.00626074      -0.00237307       0.00173102
C        6.20575971       2.10896053       3.59094609       0.00024003       0.00395591       0.01424734
C        5.01607070       4.21368429       3.31209830      -0.00443921       0.00739264       0.00219585
P        3.49287787       6.29016054       2.64819946       0.00130145       0.00329991       0.00601148
C        2.42885601       8.50949993       3.75873373       0.00341415       0.00169497       0.01793904
C        9.86335775      -0.02153448       3.78924377       0.00494674      -0.00010366       0.00228610
C        8.65356498       2.12186610       3.72634008      -0.00056742       0.00046248       0.00300849
C        7.45124732       4.25854622       3.50712882      -0.00989146      -0.00089819      -0.00341160
C        6.20709179       6.41254019       3.33044809      -0.00184519      -0.00195239       0.00455533
C        4.91804266       8.53457519       3.53826367      -0.00026356       0.00047334      -0.00502542
C       -0.01488751       1.42719670       3.91858336      -0.00348942      -0.00157883       0.00288177
C       -1.24181234       3.56779067       3.94157438      -0.00128794      -0.00544419       0.00590573
C       -2.47733409       5.70201168       3.80994465      -0.00100650      -0.00298095      -0.01189755
C       -3.71670611       7.84790185       3.69996268       0.00776629       0.00437888      -0.00818558
C       -4.94262778       9.98840307       3.75871514       0.00592872      -0.00021456      -0.00102813
C        2.46799264       1.46307450       3.88554938       0.00008259       0.00121681      -0.00615018
C        1.15100533       3.55767179       4.26702413       0.00293836       0.00477033      -0.00125293
C       -0.07686374       5.74806977       4.13870317      -0.00603813       0.00038958       0.00301932
C       -1.27024988       7.85953447       3.88113073       0.00697333      -0.00287726      -0.00150294
C       -2.48140321       9.99852922       3.78902004      -0.00309496      -0.00242825      -0.01206597
C        4.96110851       1.42247309       3.67658022       0.00254652       0.00257610       0.00143464
C        3.84161086       3.55298003       3.66577709       0.00828757      -0.00286106       0.00698048
C        1.16688181       7.85418969       3.91492929       0.00260401      -0.00470845      -0.00421127
C       -0.00447404       9.97713831       3.80292823      -0.01035564      -0.00331468      -0.00792008
C        7.42708462       1.40118508       3.70057118       0.00137283      -0.00057914      -0.00044454
C        6.24644998       3.51637333       3.42609131      -0.01135142       0.00283089       0.00022517
C        5.03280800       5.65346052       3.13270016       0.00064151       0.00275036      -0.00041889
C        3.66404607       7.84691018       3.44369450      -0.00272020       0.00251902       0.00894591
C        2.45611599       9.93804057       3.80519006       0.00144102       0.00275257       0.01292188
C        9.87116187       1.40726618       3.81203759      -0.00245734      -0.00163604      -0.00138204
C        8.66291949       3.54982123       3.67289315      -0.00655610      -0.00106957       0.00838310
C        7.43340591       5.69256128       3.49237764      -0.00261130      -0.00088249      -0.00952187
C        6.16775420       7.83998544       3.47473773       0.00058394       0.00027702      -0.00288887
C        4.92675602       9.95921624       3.72492801       0.00641462      -0.00037378      -0.00691397
Cd       2.71461685       4.81634284       4.96332893       0.01778672      -0.00209839      -0.00116150
