49
Lattice="12.336457 0.0 0.0 -6.168228499999997 10.683685154694365 0.0 0.0 0.0 15.0" Properties=species:S:1:pos:R:3:forces:R:3 energy=-421.82598337572307 free_energy=-421.82598337572307 stress="0.0020691159476877823 0.003579998964825009 2.5332283950341396e-06 0.003579998964825009 -0.003498027547592282 2.0812343057650612e-05 2.5332283950341396e-06 2.0812343057650612e-05 -5.326713453803892e-06" pbc="T T T"
C       -0.02123327      -0.02779617       3.73808878      -0.00308241      -0.00045144      -0.01284098
C       -1.21725754       2.15186431       3.65074762       0.00205199      -0.01410142       0.00640395
C       -2.46479111       4.28420055       3.84181979       0.00679375      -0.00235586      -0.00398646
C       -3.72055268       6.39804429       3.90448485      -0.00632608      -0.00564518      -0.00419190
C       -4.97943555       8.51289537       3.87877424       0.00547892       0.00660463       0.00287461
C        2.44558020      -0.04942020       3.60696755      -0.00091158       0.00235487      -0.00210690
C        1.22041633       2.02603276       3.22247458      -0.00108351       0.00678476      -0.00308888
C       -0.04368680       4.33768277       3.59363296      -0.00671494       0.00109993       0.00702617
C       -1.21882124       6.41699826       3.96105951      -0.00203821      -0.00299117       0.00420917
C       -2.49604406       8.53189301       3.88814223      -0.00244188       0.00398811      -0.00331600
C        4.91564959      -0.01597474       3.66926067       0.01046323      -0.00167659      -0.00469624
C        3.71221006       2.00139121       3.03501135      -0.00086962       0.00675116       0.00034663
C        1.31496467       6.46670418       3.94679043      -0.00218558       0.00722814      -0.00065608
C       -0.03237201       8.56348167       3.91403515      -0.00291877      -0.01176258      -0.00820697
C        7.38152063       0.02351886       3.78916871      -0.00524670       0.00420913      -0.00257356
C        6.16764805       2.12774855       3.45485078      -0.00202134      -0.00045801       0.00914574
C        5.02163950       4.28577031       3.17280938       0.01192325       0.00797623      -0.01177200
P        3.22188129       6.14201890       4.30208202      -0.00203016      -0.00171062      -0.00152171
C        2.43114285       8.61437687       4.00104004       0.00765634       0.00292081      -0.01122505
C        9.86649835       0.02189473       3.85092488      -0.00663016      -0.00107821      -0.01405466
C        8.63851408       2.14947503       3.72947258      -0.00082485       0.00940914       0.00402021
C        7.40542697       4.26909999       3.69106863      -0.00531013      -0.00813259      -0.00069172
C        6.11035347       6.37370887       3.79980154       0.00036983      -0.00272848       0.00711416
C        4.88378566       8.52442950       3.98497844       0.01183606      -0.00119892      -0.00439320
C       -0.00382914       1.40494539       3.54986349       0.00394977      -0.00321406      -0.00255944
C       -1.22460279       3.57702439       3.71566895       0.00293063      -0.01356668       0.00746231
C       -2.46202455       5.70313925       3.92006161      -0.00008194      -0.00261071      -0.00379174
C       -3.73243852       7.81729158       3.90587297      -0.00148341       0.00010235       0.00394960
C       -4.96342870       9.93635283       3.75893071      -0.00224033       0.00613677       0.00237799
C        2.46143919       1.34087740       3.25874979      -0.00229032       0.00216333      -0.00332642
S        1.23809384       3.66548473       2.70051450      -0.00936198       0.00637240       0.01137276
C        0.05937058       5.73359890       3.88891069       0.00047113       0.00381742       0.00593154
C       -1.25467072       7.83725891       3.94453620      -0.00707941      -0.00495169      -0.00193081
C       -2.48738704       9.94562111       3.73660379       0.00570722       0.00536150      -0.00551904
C        4.93024077       1.39298716       3.39584686      -0.00010641       0.00303933       0.00799113
S        3.86495420       3.49448102       2.15169337       0.00254363       0.00695243      -0.00211230
C        1.20840743       7.86779408       3.96027845       0.00388585       0.00376575       0.00371724
C       -0.02005146       9.98132054       3.80850492       0.00403404      -0.01100666       0.00399342
C        7.38967623       1.43841097       3.66572423      -0.00130804       0.00780947       0.01000060
C        6.19648529       3.54473837       3.43088442      -0.00229203      -0.00425222       0.00428832
C        4.88170295       5.62364834       3.61522809      -0.00135819      -0.00210839       0.01238839
C        3.61832977       7.86950125       4.10087607       0.00796446      -0.00327021      -0.00946205
C        2.45077883      10.02077575       3.89685316      -0.00626571       0.00452551      -0.01210876
C        9.88406296       1.44651852       3.75837811      -0.00551728      -0.00320843      -0.00929382
C        8.64095631       3.56658905       3.76654005       0.00113581       0.00674146       0.00569742
C        7.37546944       5.68749741       3.80153705      -0.00670448      -0.01055066       0.00508337
C        6.11706451       7.80117459       3.91818901       0.01292171      -0.00030979       0.00822466
C        4.90988576       9.95901653       3.88021482      -0.00153666       0.00005740      -0.00381750
Cd       3.25587076       5.39246218       6.79677154      -0.00385556      -0.00283142       0.00962479
