49
Lattice="12.336457 0.0 0.0 -6.168228499999997 10.683685154694365 0.0 0.0 0.0 15.0" Properties=species:S:1:pos:R:3:forces:R:3 energy=-431.3904957168353 free_energy=-431.3904957168353 stress="-0.007307067173132086 -0.0017277300955380755 -5.727045730561789e-06 -0.0017277300955380755 0.0018223984496974677 3.823481721406351e-06 -5.727045730561789e-06 3.823481721406351e-06 8.570471308063129e-07" pbc="T T T"
C       -0.00816880       0.00106867       3.86873775      -0.00404760       0.00020112      -0.00223423
C       -1.25979731       2.11817571       3.91875783      -0.00289129      -0.01124485      -0.00065376
C       -2.47718517       4.26605865       3.80639679       0.01359706       0.00211174       0.00770459
C       -3.68091978       6.42122184       3.68332257       0.00293795       0.00015549      -0.00078159
C       -4.91568606       8.57158284       3.74083758      -0.00342499      -0.00171963       0.01006975
C        2.45861633       0.03602081       3.84225158       0.00355277      -0.00206120       0.00165479
C        1.18607929       2.16980074       3.97506788       0.00049842       0.00545454      -0.01279861
C       -0.04530103       4.24448752       4.11823958       0.00021221       0.00235769      -0.00959856
C       -1.25647883       6.41517238       3.94124783       0.00385760       0.00677177       0.00152222
C       -2.46856266       8.56739227       3.82936383      -0.00376276      -0.00803969      -0.00412862
C        4.92898975       0.01259415       3.72844131      -0.00038269       0.00080355      -0.00392247
C        3.66850949       2.11884772       3.44379135       0.00458076       0.00555279      -0.00386465
N        1.09884653       6.44039286       4.24548458       0.00118896       0.00001813      -0.00611892
C       -0.01763593       8.54053117       3.91141639      -0.00512737      -0.00841414       0.00559773
C        7.39768128      -0.02730386       3.75688271       0.00098777      -0.01028511       0.00442640
C        6.17724120       2.12158694       3.45376217      -0.00117314       0.00660998      -0.00801636
C        5.04637170       4.30571005       3.07703168      -0.01601955      -0.00105442       0.00178272
C        3.85412413       6.40098165       3.64443881       0.01100598       0.00046754      -0.00828105
C        2.44978950       8.48167105       3.88869720       0.00022120       0.00652329       0.00666601
C        9.85441076      -0.03750451       3.82737568       0.00410842       0.00746445      -0.01103435
C        8.62835235       2.11534919       3.69638604      -0.00686684      -0.00268429      -0.00043255
C        7.43857378       4.27177000       3.47393179      -0.00145623       0.00476966       0.00611966
C        6.24635096       6.45047438       3.43189422      -0.00365768       0.00027759      -0.00732061
C        4.95304693       8.53674552       3.72915631      -0.00619618       0.00232877      -0.00129490
C       -0.02614673       1.42485853       3.93933157      -0.00009885      -0.00165026      -0.00541348
C       -1.26295919       3.54441996       3.95451049       0.00887928      -0.01022761      -0.00822517
C       -2.47072793       5.69378016       3.80710805       0.00862537       0.00486519       0.00607693
C       -3.69039194       7.85090508       3.74967028      -0.00308572      -0.00480479       0.00540821
C       -4.93301354       9.99153710       3.84196326      -0.00100739      -0.00001605       0.00516249
C        2.44414677       1.46202598       3.78886371       0.00303467       0.00099594      -0.00407871
N        1.11364703       3.51992643       4.20788236      -0.00123896       0.00162055       0.01330155
C       -0.04477503       5.71365355       4.11654918       0.00056549       0.00388978      -0.01001175
C       -1.24460033       7.84254016       3.89835721      -0.00531072      -0.00050576       0.01122464
C       -2.47302074       9.99732376       3.80755033       0.00269657      -0.00671242       0.00732452
C        4.92824167       1.43071446       3.53272863       0.00304892       0.00691572      -0.00893211
P        3.53495644       3.62171059       2.53265164       0.00856575      -0.00269735       0.00002092
C        1.19295097       7.78615563       4.01456335       0.00011956       0.00200798       0.00654909
C       -0.00806938       9.96488029       3.79639303      -0.00349802      -0.00979580       0.00070696
C        7.39764058       1.40199664       3.62794470      -0.00599196      -0.00716772       0.00920103
C        6.21446733       3.55082098       3.29875641      -0.00522716       0.00761122       0.00056970
C        5.02286782       5.74778842       3.28425210       0.00222115      -0.00258144      -0.00349678
C        3.71554643       7.77163716       3.75633855      -0.00411987       0.00069127      -0.00364716
C        2.45313445       9.91027925       3.82764092       0.00966068       0.00513773       0.00179723
C        9.85103413       1.39415968       3.82203259      -0.00614387      -0.00021006      -0.00042202
C        8.63851649       3.54840060       3.65338210       0.00435708       0.00286233       0.00813881
C        7.44824927       5.70841827       3.50522326      -0.00349558       0.00358251       0.00422124
C        6.20042086       7.85599368       3.62976443      -0.00702335       0.00059749       0.00509705
C        4.93063353       9.95093839       3.82224136      -0.00413655       0.00300108      -0.00446906
Cd       2.68739594       4.95085664       4.70610663       0.00686074      -0.00377431      -0.00116674
