49
Lattice="12.336457 0.0 0.0 -6.168228499999997 10.683685154694365 0.0 0.0 0.0 15.0" Properties=species:S:1:pos:R:3:forces:R:3 energy=-424.71547351982974 free_energy=-424.71547351982974 stress="0.0005966383790729002 -0.004272102233124661 -6.619768477150745e-06 -0.004272102233124661 -0.003977755671403595 -6.780152493757188e-06 -6.619768477150745e-06 -6.780152493757188e-06 2.240204568660242e-06" pbc="T T T"
C       -0.00129081      -0.01606081       3.87269678       0.00014678      -0.00979373      -0.00181714
C       -1.26336311       2.11046055       3.87967091       0.00063470       0.00038316      -0.00342046
C       -2.49091622       4.25865058       3.82107363      -0.01181524       0.00602054      -0.00382162
C       -3.69988474       6.39388409       3.78990057       0.00009009       0.00187942       0.00040714
C       -4.92445834       8.53156742       3.85423218       0.00033485       0.00104449       0.00612825
C        2.45510211      -0.00649376       3.73612152      -0.00799840       0.00904751      -0.00289677
C        1.17613462       2.09956268       3.74461460      -0.00056169      -0.00382058      -0.00380069
C       -0.05445601       4.18018968       3.82937206       0.00526514       0.00204311       0.00270014
C       -1.19734848       6.35481739       3.72380366      -0.00110970       0.00096765      -0.00339846
C       -2.44919056       8.51748564       3.73080831       0.00474537      -0.00148628      -0.00071783
C        4.92425059      -0.01746555       3.61083403      -0.00098688       0.00173437       0.00019465
C        3.65581625       2.09322893       3.33195278       0.00595536      -0.00326237       0.00011590
P        1.65980159       6.18395095       3.32098496      -0.00412846      -0.00522227       0.00505601
C        0.01522388       8.52364894       3.63820680       0.00471622      -0.00519939      -0.00184363
C        7.38104147       0.01002673       3.70050555       0.00302282       0.00434136       0.00332312
C        6.13499784       2.14294859       3.51960603       0.00164043       0.00812517      -0.00012895
C        4.93846630       4.32038594       3.38779970       0.00703451      -0.00523754       0.00156685
C        3.63451624       6.42464764       4.02238675       0.00348438       0.00889063       0.00161791
C        2.48513154       8.59445926       3.78103753      -0.00413148      -0.00491335      -0.00785791
C        9.85916269       0.00717507       3.86313018       0.00129868      -0.00601957      -0.00164187
C        8.60281890       2.13571350       3.76844379      -0.00298838      -0.00315549      -0.00256491
C        7.37770183       4.27362863       3.69590170      -0.00142438      -0.00311511       0.00283305
C        6.14918898       6.40974388       3.79490060       0.00144046       0.00072282      -0.00941520
C        4.94466326       8.55372321       3.91282929      -0.00444488       0.00603827       0.00057961
C       -0.02013978       1.40687221       3.84790846       0.00100885      -0.01136040      -0.00228280
C       -1.26910677       3.51904279       3.87284456      -0.00217815       0.00834659       0.00322448
C       -2.45839867       5.67485455       3.78130992      -0.00294405       0.00682861       0.00161779
C       -3.68964074       7.81642897       3.79764199       0.00353480      -0.00001469       0.00296089
C       -4.93291858       9.95930208       3.84084226      -0.00004493      -0.00173671      -0.00034814
C        2.42449421       1.41961369       3.61251003      -0.00074877       0.00625439       0.00264405
O        1.13829906       3.46870681       3.87246887       0.00801388      -0.00433041       0.01550034
C        0.01753599       5.57365014       3.70058207      -0.00323718       0.00185136      -0.00177816
C       -1.20933426       7.79318610       3.68067302       0.00729359      -0.00421172       0.00318357
C       -2.47075310       9.95013405       3.69112779      -0.00687121       0.00396102       0.00209222
C        4.90345026       1.41643645       3.47597720       0.00571283       0.00646621      -0.00122635
P        3.62197995       3.61967166       2.48193799      -0.00347978      -0.00718957       0.00239163
C        1.28473924       7.86407945       3.60769437      -0.00179826      -0.00733540      -0.00685055
C       -0.00726929       9.95853133       3.64793036       0.00305394       0.00133332      -0.00285283
C        7.36747340       1.43249789       3.66790041      -0.00363518       0.00562979      -0.00204302
C        6.14506029       3.56870642       3.52861543       0.00486858       0.00044175       0.00347894
C        4.88910073       5.71850812       3.69905560      -0.00173912      -0.00246853      -0.00952732
C        3.70701057       7.86232045       3.89120601      -0.00292841       0.00690278       0.00163138
C        2.45605620      10.00464691       3.79944496       0.00120518      -0.00578193       0.00192711
C        9.84580578       1.42309944       3.84998316      -0.00012262      -0.00357278       0.00428208
C        8.60476583       3.55765640       3.76918009      -0.00723043      -0.00355631       0.00067747
C        7.38799522       5.69608714       3.76394890       0.00084948      -0.00208391      -0.00144026
C        6.17769244       7.83008777       3.88475739      -0.00441246       0.00537506       0.00169155
C        4.93107396       9.97204369       3.89990706      -0.00132341       0.00021084       0.00095658
Cd       2.71931156       5.59250546       5.95845775       0.00693254       0.00002781      -0.00110784
