49
Lattice="12.336457 0.0 0.0 -6.168228499999997 10.683685154694365 0.0 0.0 0.0 15.0" Properties=species:S:1:pos:R:3:forces:R:3 energy=-431.6368915890512 free_energy=-431.6368915890512 stress="-0.006264968074063914 -0.001705319152246648 -5.557609436099238e-06 -0.001705319152246648 -0.0038932429365040495 1.2950594438043186e-06 -5.557609436099238e-06 1.2950594438043186e-06 4.3803961052221685e-06" pbc="T T T"
C        0.00165933      -0.00594396       3.86846180      -0.01125259       0.00439798      -0.01167557
C       -1.24133493       2.12013093       3.76857811      -0.00643260       0.00386425      -0.00072677
C       -2.45779212       4.26090354       3.63520355      -0.00550366       0.00238625       0.00082856
C       -3.68475956       6.40780206       3.64709117       0.01079647       0.01091773       0.00935182
C       -4.91676892       8.55084962       3.80095501       0.00471618       0.00126477      -0.00856269
C        2.47056510      -0.01414858       3.76540640       0.00004013       0.00073175       0.00511333
C        1.22971696       2.13494927       3.79677418       0.00418859       0.00296063      -0.00119703
C        0.02282385       4.24748818       3.75253222      -0.00053651       0.00570584       0.00823131
C       -1.24245228       6.41647049       3.68978625      -0.00375964      -0.00545988       0.00586952
C       -2.46689492       8.54736909       3.71018385       0.00987187      -0.00172315       0.00347051
C        4.93482127      -0.00423960       3.64830106      -0.00082985       0.00477152       0.00364602
C        3.67282484       2.08298460       3.42514712       0.00461679       0.00631413      -0.00968262
C        1.13163774       6.43569517       4.12879122      -0.00481563      -0.00875909      -0.00142416
C       -0.01322242       8.54743314       3.81898553      -0.00786210      -0.00533745       0.00046658
C        7.40238750      -0.01238109       3.74825834       0.00953155       0.00745700       0.01057300
C        6.16973448       2.12720682       3.49411471      -0.00862566       0.00200581       0.00800773
C        4.97278569       4.31482572       3.42713252      -0.01178196      -0.00817207      -0.00516947
C        3.80741872       6.41854677       4.06009509       0.00660437      -0.00429410      -0.00582026
C        2.46887333       8.53243433       4.01289843      -0.00282498      -0.00474239       0.00080323
C        9.86549544      -0.01489864       3.85790744       0.00695356      -0.00418303      -0.00289265
C        8.63373890       2.12304110       3.65882631       0.00624007      -0.01164864      -0.00052247
C        7.41802022       4.27037826       3.55922491      -0.00123497      -0.00054343       0.00278139
C        6.21525154       6.43037230       3.72036779      -0.00265933       0.00267565       0.00165797
C        4.95928771       8.54525020       3.93019577      -0.00226918       0.00708762       0.00115627
C       -0.01053721       1.41264521       3.83536316      -0.00621061       0.00369734       0.00146417
C       -1.23024242       3.54209976       3.69398403      -0.00398772       0.00745987       0.00765164
C       -2.45932618       5.69241088       3.63075210       0.00064806       0.00260260       0.00357168
C       -3.69100858       7.83285749       3.71514900       0.01345498       0.00581225      -0.00412429
C       -4.92861081       9.96611041       3.83647398      -0.00746455       0.00051874      -0.00728865
C        2.46274607       1.39607557       3.69214857       0.00857968       0.00325542       0.00507562
C        1.23408551       3.53482622       3.83600791       0.00225425       0.00174102       0.00895932
C       -0.00288187       5.71124599       3.81422013      -0.00902047       0.00050171       0.00613900
C       -1.23534852       7.83646989       3.72442486      -0.00279860      -0.01008730       0.00727197
C       -2.46277187       9.96591883       3.71126478       0.00271707      -0.00119023      -0.00116507
C        4.93287748       1.41669301       3.50670175      -0.00344569       0.00760167       0.00346805
P        3.42425449       3.70499051       2.81260786       0.00035748      -0.00920980      -0.01517623
C        1.22050052       7.81160717       3.99654931      -0.00668922      -0.01241848      -0.00549611
C       -0.00277164       9.96425108       3.73844986       0.00402323       0.00234476      -0.00611398
C        7.39805473       1.41154541       3.62613226      -0.00068657       0.00532701       0.00653644
C        6.17394974       3.56188693       3.46458893      -0.00570734      -0.00438499       0.00387329
C        4.97275612       5.73460947       3.71458535      -0.00033198      -0.00945018      -0.00166420
C        3.71926917       7.80302653       4.02458557       0.00195347      -0.00424524      -0.00756029
C        2.46435169       9.94647213       3.87879610       0.01020523      -0.00007978       0.00012313
C        9.85944723       1.40600285       3.76305677       0.00511219      -0.00907758       0.00019336
C        8.64171998       3.55267757       3.60673778      -0.00102819      -0.00903337      -0.00638747
C        7.42644189       5.69830032       3.62697147       0.00487294       0.00981691       0.00190700
C        6.19230981       7.84271969       3.83149099      -0.00336352       0.00795189      -0.00309047
C        4.93874429       9.95972974       3.90108665      -0.00466130       0.00446204      -0.00267494
Cd       2.48556623       5.01085675       5.04737161       0.00804624      -0.00159396      -0.00977650
