49
Lattice="12.336457 0.0 0.0 -6.168228499999997 10.683685154694365 0.0 0.0 0.0 15.0" Properties=species:S:1:pos:R:3:forces:R:3 energy=-425.8511403137988 free_energy=-425.8511403137988 stress="0.00029274955478037715 0.0018901593035492747 1.167878182222394e-05 0.0018901593035492747 0.0029794603996044786 -2.2048745176379675e-06 1.167878182222394e-05 -2.2048745176379675e-06 -2.8913066369941394e-06" pbc="T T T"
C        0.00662346      -0.00157669       3.66244480       0.00355428      -0.00027570      -0.00088612
C       -1.22282922       2.13146532       3.80733916      -0.01145521       0.00460184       0.00007656
C       -2.44922214       4.27136087       3.81023015       0.00214323      -0.00549933       0.00257554
C       -3.69373097       6.40470031       3.66673269      -0.00601261       0.00796746       0.00283480
C       -4.95076299       8.53750774       3.56853656       0.00219428      -0.01090768       0.01077466
C        2.46159240       0.04725288       3.67244161       0.00329064      -0.00603116      -0.00085827
C        1.20848698       2.14959355       3.78254182       0.00420635       0.00903099       0.01152015
C       -0.00832312       4.24331888       3.99981895      -0.00162934       0.00208234      -0.00012923
C       -1.23051969       6.39977643       3.87011163      -0.00050405      -0.00498693      -0.00469057
C       -2.48466948       8.54955745       3.73279800       0.00328965       0.00594155      -0.00585360
C        4.92176806      -0.00052432       3.76258918      -0.00312360      -0.00360350      -0.00466492
C        3.74018052       2.14841706       3.63425294       0.00812516      -0.00594215      -0.00021475
C        1.16750915       6.44171861       4.37350544      -0.00514657       0.00709104      -0.00484015
C       -0.01840812       8.54026234       3.89257939       0.00076279       0.00651363      -0.00015092
C        7.40213756      -0.01341556       3.83873362      -0.00628199       0.00244939       0.00359342
C        6.18523654       2.11205449       3.72612812       0.00885861      -0.00198620      -0.00736509
C        5.01274291       4.18956299       3.42575860      -0.00866536       0.00872952      -0.00265814
S        3.48950420       6.26523147       2.81274594       0.01078469      -0.00282577       0.00140164
C        2.45703420       8.53510243       3.79592532       0.00408776      -0.00085995      -0.00070511
C        9.87553301      -0.01350605       3.75505817      -0.00893493      -0.01165193      -0.00303526
C        8.64976100       2.12662429       3.79486317       0.00718748      -0.01441803      -0.00221694
C        7.42861093       4.26217996       3.65687617       0.01181483       0.00016989      -0.00555013
C        6.17308177       6.37411829       3.42631149      -0.01094395       0.00425059      -0.00196311
C        4.92215265       8.53008445       3.50015254       0.00841592       0.00074549      -0.00761123
C        0.01525499       1.43327719       3.74779835      -0.00234096       0.01102651       0.00432404
C       -1.21490999       3.55214606       3.87648813       0.00122266       0.00223851       0.00089546
C       -2.45416734       5.69356993       3.77985057      -0.00510020      -0.00173187      -0.00099346
C       -3.70934151       7.83087631       3.64644067       0.00385515       0.00316316       0.00418645
C       -4.93233316       9.98363472       3.62470520       0.00286302      -0.01260288       0.01138699
C        2.46931279       1.49849642       3.69267537       0.00621512      -0.00008143      -0.00268236
O        1.16645256       3.51374488       3.99685082      -0.00451597       0.00581246      -0.00508972
C        0.03084501       5.67930054       4.06130517      -0.00082956      -0.00343956       0.00069896
C       -1.25005047       7.82792267       3.83850017       0.00302895       0.00178189      -0.01044512
C       -2.48391090       9.98685339       3.71697028      -0.00062872       0.00047200       0.00122941
C        4.92992951       1.43011840       3.71311057       0.00740079      -0.00387025       0.00006219
O        3.80158160       3.51958892       3.47899523      -0.00837525       0.00022260      -0.01154690
C        1.21823399       7.79693202       4.00218880       0.00431136      -0.00434070       0.01172179
C       -0.00945838       9.96373613       3.82904826      -0.00575012       0.00740186       0.00714822
C        7.40867485       1.40974915       3.79562533       0.00577674      -0.00353971       0.00741485
C        6.20770545       3.52221733       3.62027004      -0.00214502       0.00496078      -0.00643127
C        5.01052825       5.58406935       3.25121219      -0.01167160       0.00840150       0.00658114
C        3.65827277       7.87554374       3.43068334       0.00797740       0.01701324       0.00503458
C        2.46982051       9.95963000       3.81846115      -0.00953482      -0.00204596       0.00010159
C        9.88671880       1.41876266       3.79382744      -0.00220468      -0.01240770      -0.00207141
C        8.65908775       3.55312108       3.75953051       0.01200844      -0.01481293       0.00590101
C        7.41716090       5.67965096       3.58367270      -0.00896813       0.00860660      -0.00544884
C        6.15388825       7.81191453       3.46313152       0.00017733      -0.00404351       0.00015287
C        4.93511592       9.96031592       3.64824568      -0.00126278      -0.00285656      -0.00500206
Cd       2.44949155       5.46250966       5.81665659      -0.00752722       0.00408653       0.00348837
