52
Lattice="12.336457 0.0 0.0 -6.168228499999997 10.683685154694365 0.0 0.0 0.0 15.0" Properties=species:S:1:pos:R:3:forces:R:3 energy=-440.02253942325063 free_energy=-440.02253942325063 stress="-0.005101397469584666 -0.0020030903520712176 -1.348861647418062e-05 -0.0020030903520712176 0.0020349854940231132 4.767571817756321e-05 -1.348861647418062e-05 4.767571817756321e-05 7.68834284210536e-06" pbc="T T T"
C        0.01638084       0.01061517       3.85884570       0.00298422       0.01233906       0.00610538
C       -1.23341478       2.14115303       3.82276609      -0.01008919       0.00622530      -0.00595175
C       -2.44055587       4.28463179       3.74965586      -0.00160129       0.00168844       0.00244789
C       -3.65680658       6.43039818       3.74861873       0.00216861      -0.00714707      -0.00784000
C       -4.89565628       8.57735991       3.82744937       0.00402238      -0.00660229      -0.00481375
C        2.47836451       0.04090441       3.82763925      -0.00689983       0.00255856       0.00410380
C        1.20136880       2.15273983       3.87444008       0.00034186       0.00138549      -0.00748303
C       -0.01969737       4.28046489       3.89576852      -0.00286172       0.00046642       0.00201185
C       -1.20985532       6.41177101       3.81146817      -0.00169384       0.00055136      -0.01131275
C       -2.43659354       8.56484923       3.80628376      -0.00074470      -0.00551754       0.01131016
C        4.94980310       0.01695501       3.74449334      -0.00567538      -0.00563477      -0.00825779
C        3.69599372       2.11480744       3.48439700       0.00273146       0.00447173       0.01404793
O        1.15470030       6.44239953       3.99734789       0.00521710       0.00398272      -0.00537761
C        0.01470361       8.54409435       3.85699188       0.01098114      -0.00546982      -0.00361346
C        7.41758400      -0.01220428       3.77530954      -0.00296666      -0.00565701       0.00784918
C        6.18391530       2.14796667       3.56992825       0.00516892       0.00050985       0.00391963
C        5.03964029       4.34177022       3.47555681      -0.00072762       0.00557298      -0.00519547
C        3.85530924       6.41847075       4.14584685      -0.00175128      -0.00087248       0.00962400
C        2.45985430       8.49909757       3.96108033       0.00214983       0.01686686      -0.00373510
C        9.87296075      -0.01675680       3.84480917       0.00542629      -0.00465814      -0.00408385
C        8.64760438       2.13594593       3.71766151      -0.00236344      -0.00721656       0.00625838
C        7.44976481       4.28881370       3.65316631       0.00552119       0.00634265      -0.00802185
C        6.24971665       6.45082369       3.74536777       0.00395189       0.00353072       0.00014348
C        4.96415630       8.54888430       3.89593559      -0.00793519      -0.00258357       0.00990092
C        0.00704353       1.44385592       3.86026616      -0.00578338       0.01234932      -0.00763872
C       -1.21798816       3.56876224       3.80789614      -0.00532311       0.00443646      -0.00342857
C       -2.43518104       5.70114353       3.76017592      -0.00142397      -0.00030291      -0.00323506
C       -3.66876736       7.85784598       3.79299485       0.00315691      -0.01291022       0.00608581
C       -4.91341354      10.00151924       3.85659379      -0.00250480      -0.00059178       0.00348947
C        2.45311535       1.47370522       3.76479654       0.00295035       0.00251886       0.00156951
O        1.14212096       3.52573952       4.07369392      -0.00498322      -0.00681482      -0.01249810
C       -0.01844463       5.69559999       3.88524864      -0.00246169       0.00295700       0.00502969
C       -1.21695449       7.84339801       3.81908132       0.00428687      -0.00092384       0.00645396
C       -2.45142801      10.00158187       3.80108279      -0.00992955      -0.00235206       0.00110924
C        4.93955555       1.44874928       3.59799154       0.00406865      -0.00145849      -0.01107859
S        3.60497045       3.70034368       2.80432658      -0.00116854      -0.00017777      -0.01023792
C        1.21700779       7.82892368       3.94190085       0.01279754       0.00539417      -0.00625373
C        0.01871456       9.97555192       3.79508294      -0.00097748      -0.00634857      -0.00039980
C        7.40971555       1.42653265       3.68161544      -0.00146033      -0.00885599       0.01235152
C        6.21173564       3.57519106       3.54857571       0.00373735       0.00523366       0.00326499
C        5.01053927       5.74951094       3.76834055       0.00254392       0.00565964       0.00593294
C        3.73418337       7.78409812       4.00554476      -0.01418588       0.00136280      -0.00085961
C        2.47111165       9.93274180       3.85970147       0.00191785       0.01093020       0.00567507
C        9.88138119       1.41920756       3.79224103      -0.00307208      -0.00758613       0.01262673
C        8.66369558       3.56451008       3.69990617       0.00202659      -0.00129499       0.00096255
C        7.45835040       5.71783639       3.70154512       0.00282409       0.00452721      -0.00632921
C        6.21469131       7.86655533       3.82903557      -0.00211054       0.00213943      -0.00230711
C        4.94904678       9.96910399       3.87014262       0.00655977       0.00057605       0.00817689
Cd       2.75025116       5.11541736       5.41258757      -0.01081128       0.00040098      -0.00518983
O        2.34795858       4.35406067       7.28878795       0.01208034      -0.01210050      -0.00780158
O        2.40342701       5.59455788       8.09838979       0.00295675      -0.00821822      -0.00214453
H        3.06092147       5.30396757       8.75957541      -0.00106590      -0.00368237       0.00463782
