50
Lattice="12.336457 0.0 0.0 -6.168228499999997 10.683685154694365 0.0 0.0 0.0 15.0" Properties=species:S:1:pos:R:3:forces:R:3 energy=-431.01135559585884 free_energy=-431.01135559585884 stress="0.0014400397448777044 0.004605537398181244 -5.206066118507722e-06 0.004605537398181244 -0.007463974950489496 1.9186265928602793e-05 -5.206066118507722e-06 1.9186265928602793e-05 6.780576713671699e-06" pbc="T T T"
C        0.01428516      -0.01261867       3.70454078       0.00398989       0.01009082      -0.00776305
C       -1.17266464       2.16583799       3.51064652      -0.01157051      -0.00079439       0.00609952
C       -2.42241690       4.29860023       3.58610561       0.00758525      -0.00546653       0.00366436
C       -3.68936043       6.40854159       3.70488089       0.00234383      -0.00295384      -0.00718100
C       -4.94771682       8.52232102       3.76853605       0.00370033       0.00593455       0.01287866
C        2.47564829      -0.02586888       3.86638236       0.00123786       0.00239015      -0.00212989
C        1.29980880       2.04743448       3.45985433      -0.00548858      -0.00461671      -0.00432624
C        0.00879918       4.34582634       3.26172082      -0.00132868      -0.00160357       0.00275092
C       -1.18846596       6.43619864       3.59224413      -0.00140129      -0.00339482      -0.00200710
C       -2.46429144       8.54448118       3.78284057      -0.00631474      -0.00602117       0.00123492
C        4.95019814       0.00562464       3.87032672      -0.00938633      -0.00483854      -0.00349365
C        3.72689901       2.13318969       4.02685367      -0.00376664       0.00545368      -0.01693085
C        1.33630774       6.50264518       3.48604749      -0.00255510       0.00493536       0.00852102
C       -0.00693628       8.58847606       3.67987993       0.00215371      -0.01068579       0.01323769
C        7.41973340       0.04125564       3.75702894      -0.00280146      -0.00861334      -0.01294064
C        6.21028628       2.13293949       3.88060335       0.00891818      -0.01113566       0.00691085
C        4.96609554       4.20812673       3.97354648      -0.00299862      -0.00201618      -0.01239884
P        3.20662699       6.19884383       3.65600157       0.00542444      -0.00796660       0.00349447
C        2.45263161       8.63934801       3.67941503       0.01044060       0.00999686       0.00863546
C        9.90486678       0.03894075       3.68929887       0.00338545       0.00497498      -0.00199925
C        8.68280047       2.16408011       3.69434572       0.00244277       0.00246624       0.00429903
C        7.43726443       4.27531702       3.75301770       0.00242369       0.00430164       0.00220479
C        6.13759464       6.38284178       3.73043976      -0.00190184       0.01004459       0.00289220
C        4.91593919       8.53500184       3.73458785       0.00398188       0.00898813      -0.00097234
C        0.03815966       1.41875467       3.55657936      -0.00920625       0.00708786      -0.00167248
C       -1.17608223       3.59349199       3.44745877       0.00023028      -0.00674782       0.00061086
C       -2.42828408       5.71837348       3.62950774       0.00242130      -0.00626406      -0.01256128
C       -3.70162079       7.82723066       3.75794102      -0.00233083      -0.00331872      -0.00388142
C       -4.93165996       9.94803512       3.78742075       0.00384221       0.00741665      -0.00018450
C        2.49115903       1.39048885       3.84062397      -0.00349431       0.00277976       0.00013024
S        1.44622777       3.58431444       2.69068147      -0.00979126      -0.00064384       0.01386825
C        0.08503998       5.75636069       3.44469942       0.00181307       0.00018326       0.00156332
C       -1.22538648       7.85337152       3.69259362      -0.00451260      -0.00486427      -0.00435772
C       -2.45387601       9.95938392       3.86946127      -0.00695801      -0.00588856      -0.01045275
C        4.96742554       1.41894983       3.94496359      -0.00215449      -0.00227672      -0.00580759
C        3.79224429       3.49626752       4.27292629       0.00111642      -0.00005490       0.00182730
C        1.23199633       7.90637047       3.59903892       0.01153059       0.00237384       0.00810544
C        0.01339491      10.00165292       3.77362619      -0.00749740      -0.01029878       0.00557820
C        7.44454248       1.44836807       3.78219649       0.00893991      -0.00960373      -0.00144480
C        6.22245720       3.54295539       3.87035867       0.00287793      -0.00583301      -0.00319483
C        4.91370879       5.62668211       3.76762255      -0.00811078       0.00897010       0.01244999
C        3.64078997       7.88732740       3.72218684       0.00327973       0.00589321       0.00174569
C        2.48673670      10.04052884       3.71189844       0.00469622       0.00810478      -0.00663837
C        9.92691970       1.46355484       3.63298855      -0.00666523       0.00001033      -0.00668056
C        8.68147669       3.58173524       3.67948195       0.00413769       0.00340548      -0.00229270
C        7.40714155       5.69598548       3.72613275      -0.00120986       0.00665812      -0.00540027
C        6.14563465       7.81182944       3.73587663       0.00469651       0.00819769       0.00481853
C        4.94377320       9.97080578       3.71031345       0.00591884       0.00887172       0.00609805
Cd       2.56917842       4.57509584       5.69726252      -0.00488192      -0.00604836      -0.00221259
O        1.45399681       5.02689161       7.22165964       0.00279812      -0.00757991       0.00530497
