50
Lattice="12.336457 0.0 0.0 -6.168228499999997 10.683685154694365 0.0 0.0 0.0 15.0" Properties=species:S:1:pos:R:3:forces:R:3 energy=-430.1851076552179 free_energy=-430.1851076552179 stress="-0.0008955415698785443 0.0037633598348086332 -5.39053537675713e-07 0.0037633598348086332 0.0039668362365522045 1.8784697799241395e-05 -5.39053537675713e-07 1.8784697799241395e-05 3.337556934014917e-06" pbc="T T T"
C        0.03848753       0.01473258       3.71723679      -0.00874456       0.00273704      -0.01050047
C       -1.18096856       2.16335293       3.51430806       0.00482472      -0.00463151      -0.01583185
C       -2.44242806       4.29512563       3.61341543      -0.00078400      -0.00464042       0.00050428
C       -3.68969863       6.42566777       3.78491978       0.00789465      -0.00436848      -0.00315763
C       -4.90919342       8.56498048       3.84877113      -0.00247189       0.00001574      -0.00320318
C        2.50783787       0.04019237       3.80103945      -0.00903586      -0.00032670       0.00474930
C        1.30300330       2.11475933       3.38078701       0.00249516       0.00074845      -0.00358202
C       -0.04696837       4.38702773       3.22189741       0.00142363       0.00442799       0.00093265
C       -1.24944236       6.45662308       3.57434502       0.00118410      -0.00165578      -0.01005323
C       -2.44861865       8.56991836       3.79425717       0.00600842      -0.00287084      -0.01666800
C        4.97153145       0.00848195       3.81515826       0.00163767       0.00220984       0.00096356
C        3.79161378       2.13890109       3.85253736      -0.00064384      -0.00139839      -0.00492099
O        1.14931782       6.47516451       3.40581655      -0.01083272       0.00945971      -0.00637424
C        0.01898500       8.55161860       3.72207584       0.00547208      -0.00371193      -0.00354737
C        7.44988166      -0.01672043       3.77867014      -0.00231118       0.00309440      -0.01515650
C        6.23046636       2.13239708       3.86403653       0.00268950       0.00371334       0.00339987
C        5.00889437       4.23475700       4.10288435       0.00183722      -0.00126823       0.00502821
C        3.81425402       6.43062159       4.38962744       0.00612503       0.00848895      -0.00658276
C        2.47269076       8.49251750       3.83969072       0.00106144       0.00229129      -0.00123865
C        9.90796087      -0.00965567       3.74208019      -0.00308347      -0.00647216      -0.00621406
C        8.68855112       2.13954554       3.72649927       0.00260606       0.00598872      -0.00940513
C        7.44092554       4.27857616       3.84997168      -0.01130414       0.00841669      -0.00274608
C        6.19497012       6.40641910       3.96255161      -0.00552792      -0.00058308       0.00061635
C        4.95996813       8.53880047       3.91341769      -0.00244466      -0.00274689      -0.01522643
C        0.05620147       1.44752650       3.52889703       0.00222165       0.00198318       0.00387827
C       -1.20270015       3.59891248       3.44172286       0.00550594      -0.00102807       0.00752906
C       -2.46734623       5.71570325       3.65701888       0.00816153      -0.00650502      -0.00034786
C       -3.68579099       7.85291732       3.81657969       0.00342195      -0.00226500      -0.00810882
C       -4.89988223       9.99600093       3.79315856      -0.01172688       0.00325015       0.01546191
C        2.53553827       1.47017088       3.71178972      -0.00500007      -0.00005337       0.00573245
S        1.41119680       3.68147394       2.65277709       0.00773486      -0.00022239       0.01455005
C       -0.05664602       5.78881822       3.36014591      -0.00039969       0.00301791       0.00186928
C       -1.23111267       7.86892075       3.70307458       0.00869081      -0.00684809       0.00287329
C       -2.43690003      10.00053033       3.82657730      -0.00152108       0.00019928       0.00182992
C        4.98581178       1.43828879       3.84820273       0.00151598       0.00311289       0.01463297
O        3.84222393       3.49240568       4.13287512       0.00606649      -0.00572007       0.01445049
C        1.21983773       7.83779813       3.67820427       0.00232319       0.00209286       0.00127545
C        0.04141035       9.97483687       3.78449630       0.00100205      -0.00355835       0.00331887
C        7.45291265       1.42162039       3.79275902       0.00326906       0.00593935       0.00115207
C        6.21359311       3.55249044       3.94018321      -0.00014541       0.00061720       0.00853778
C        4.95113685       5.68005467       4.14907272      -0.00284245      -0.00179508       0.00891084
C        3.72743110       7.77327761       4.04244156      -0.00113635       0.00392277       0.00005241
C        2.50238033       9.92976317       3.78061385      -0.00491763      -0.00017359       0.00356728
C        9.92799817       1.43118966       3.65741660       0.00406736      -0.00380687       0.00654886
C        8.67263445       3.56843767       3.73168331      -0.00973817       0.00765106       0.00687480
C        7.41930466       5.70195861       3.86187175      -0.00145421       0.00580231       0.01077461
C        6.19397606       7.83568023       3.91132529      -0.00341410      -0.00173593      -0.00760397
C        4.96971188       9.96690780       3.78442107      -0.00424487      -0.00352926       0.00048634
Cd       2.43963975       5.33927904       5.56200600       0.00115166      -0.00665324       0.00125941
O        0.80779793       4.46707172       6.18150475       0.00333297      -0.01061238      -0.00129138
