49
Lattice="12.336457 0.0 0.0 -6.168228499999997 10.683685154694365 0.0 0.0 0.0 15.0" Properties=species:S:1:pos:R:3:forces:R:3 energy=-426.465247665012 free_energy=-426.465247665012 stress="-0.006683861508408077 0.001764215875158709 1.4766721286045428e-05 0.001764215875158709 -0.005948354977378394 3.8034043495414204e-06 1.4766721286045428e-05 3.8034043495414204e-06 1.287934433196332e-06" pbc="T T T"
C        0.00345444      -0.00495528       3.73353326       0.00264204      -0.00185637      -0.00035990
C       -1.22173321       2.13896121       3.57059950       0.00019840       0.00672108       0.00234752
C       -2.46587206       4.28126524       3.71191557       0.00074969      -0.00297133      -0.00468226
C       -3.70480830       6.41492008       3.81777293      -0.00561857      -0.00379670      -0.00147881
C       -4.94005677       8.54439362       3.79711307      -0.00448769      -0.00951023      -0.00100283
C        2.46473944       0.00348091       3.86817900       0.00428606      -0.00304532      -0.00228178
C        1.25406441       2.04433671       3.36008471       0.00189643       0.01413914       0.00512635
C       -0.07637600       4.31615863       3.25995334       0.00308457      -0.00353352      -0.00184812
C       -1.25688451       6.43466252       3.73223033       0.00394507       0.00108861      -0.00355624
C       -2.47815035       8.55874354       3.92063307      -0.01139352      -0.00421060       0.00139350
C        4.93897846       0.00606778       3.99328927       0.00022039      -0.00628373      -0.00187296
C        3.70951088       2.15833682       3.92625396       0.00147853      -0.00315840       0.00602100
C        1.19162994       6.43270694       3.77565707       0.01332527      -0.00724134      -0.00267893
C       -0.01385142       8.55852421       3.93139637       0.00219030       0.00678988      -0.00599550
C        7.41414167       0.00223036       3.97022988      -0.00186588      -0.00118104      -0.00351744
C        6.19468026       2.12479996       3.97668851       0.00258873      -0.00585754       0.00040391
C        4.96890190       4.23465253       3.84294209      -0.00406379       0.00373343       0.00811786
P        3.54204011       6.31846099       2.77212131       0.01215784      -0.00021434       0.00264193
C        2.46603394       8.56820336       3.78994298      -0.00308724      -0.00374891      -0.00898773
C        9.88187597       0.00598066       3.81127790      -0.00640870       0.00212022      -0.00187157
C        8.65677658       2.13708924       3.85354247      -0.00435841      -0.00029670       0.00521760
C        7.42626970       4.26771902       3.84934585       0.00265809       0.00911118       0.00143973
C        6.17898710       6.40262101       3.67179665       0.00619527       0.01284074       0.00323529
C        4.93906234       8.55070018       3.65683063       0.00202747      -0.00383725       0.00173757
C        0.00235214       1.41357176       3.56372697       0.00346498       0.00843875       0.01398892
C       -1.23931224       3.56694510       3.50872437       0.00009098       0.00060128      -0.00764118
C       -2.47249051       5.70802251       3.76035119      -0.00096991      -0.00098138      -0.00161658
C       -3.70611311       7.84038994       3.85275817      -0.00950506      -0.01108988      -0.00078117
C       -4.93395676       9.97055129       3.80581865       0.00529870      -0.01033336      -0.00052714
C        2.46729598       1.42173244       3.75044122       0.00254332       0.00003749       0.00224403
S        1.24016556       3.51374417       2.43814398      -0.00922816      -0.00033297      -0.00597443
C       -0.01311072       5.73141620       3.55785301       0.01064316      -0.00382959      -0.00780907
C       -1.24620784       7.84990691       3.88709508      -0.00161225       0.00875213      -0.00014158
C       -2.46923821       9.97798705       3.95747480      -0.00032010      -0.00517104      -0.00460143
C        4.95307373       1.42208015       3.98647065       0.00148837      -0.00706059       0.00004840
C        3.77288395       3.53596426       4.05804370      -0.01218672       0.00279269       0.00974303
C        1.22480956       7.83094441       3.84273555       0.00139520      -0.00519064      -0.01055959
C        0.00362221       9.97439692       3.98848332       0.00066468       0.00416776      -0.00486956
C        7.42803797       1.41898487       3.95583301      -0.00046661      -0.00660966       0.00262297
C        6.21386468       3.53896127       3.90411238       0.00496215       0.00001289       0.00495842
C        4.98277427       5.65191407       3.56175716       0.01531728       0.00732869       0.00181618
C        3.68412386       7.89369967       3.52154277       0.00366294      -0.00151346       0.00644711
C        2.47793945       9.98179645       3.89223885      -0.00651410      -0.00193308      -0.00296714
C        9.89352467       1.43280124       3.76059989      -0.00286156       0.00761309       0.00869042
C        8.65533772       3.56000743       3.82169393       0.00021712       0.00093869       0.00265623
C        7.41446389       5.69413307       3.79203816      -0.00546775       0.01014520       0.00298544
C        6.17040524       7.83290213       3.67906630      -0.00244185       0.00213604       0.00656022
C        4.93809929       9.97199385       3.75446032      -0.00310862      -0.00034097      -0.00771536
Cd       2.36163401       4.94364170       4.75992642      -0.01342654       0.00562094      -0.00510531
