50
Lattice="12.336457 0.0 0.0 -6.168228499999997 10.683685154694365 0.0 0.0 0.0 15.0" Properties=species:S:1:pos:R:3:forces:R:3 energy=-436.92370146750653 free_energy=-436.92370146750653 stress="-0.0038966609593300314 0.0010903961931887727 -1.322813343450733e-05 0.0010903961931887727 0.0022731920970245167 -8.393388502404955e-06 -1.322813343450733e-05 -8.393388502404955e-06 7.601798429209447e-06" pbc="T T T"
C       -0.01676365       0.03286682       3.71659046      -0.00591866      -0.01374764      -0.00232847
C       -1.26449643       2.14365286       3.73219526       0.00477735      -0.00493054       0.00435034
C       -2.50113937       4.28603202       3.64734630      -0.00210701       0.00846918       0.00742144
C       -3.73052890       6.43396462       3.57667057      -0.00541890       0.00273859      -0.00408405
C       -4.95298147       8.58387793       3.61922326       0.00625039      -0.00469800       0.00340691
C        2.45424125       0.06686455       3.69028889      -0.00574311       0.00120650       0.00000943
C        1.21838649       2.22045939       3.90333137       0.00218364       0.00529677      -0.00559234
C       -0.04586445       4.26782694       3.96690220      -0.00224526      -0.00489618      -0.00706115
C       -1.28662828       6.44092088       3.75994009       0.00457836      -0.00236410       0.00164706
C       -2.50381569       8.58132122       3.65251543      -0.00404787       0.00441057       0.00421689
C        4.91149106       0.01463375       3.67608485       0.00430854      -0.00420672      -0.00272666
C        3.72357363       2.14964591       3.64772722      -0.00194930       0.00253617      -0.00567176
C        1.10790271       6.45318303       4.18147173       0.00677023       0.00067604      -0.00818042
C       -0.04157847       8.55776922       3.81302230      -0.00583368      -0.00528850       0.00036038
C        7.38481620      -0.00955855       3.72288664       0.00320045       0.00156649      -0.00029429
C        6.16261924       2.13471508       3.59207624      -0.00256144      -0.00343193       0.00124159
C        4.94153064       4.24365619       3.57254684       0.00295484       0.00010030      -0.00442141
C        3.75484103       6.41191698       3.97058258       0.00481621       0.00114046      -0.00213203
C        2.44714078       8.53160460       3.90667958       0.00189402       0.00060285       0.00495124
C        9.84733706      -0.00548130       3.72957311      -0.00797981       0.00686474       0.00486251
C        8.61600519       2.13790624       3.63031570       0.00100495       0.00226030      -0.00352148
C        7.38257251       4.28888503       3.54671330       0.00228902      -0.00421074       0.00094888
C        6.14297519       6.42035893       3.57478474      -0.00119799       0.00403858       0.00833078
C        4.92647260       8.55441830       3.72785920       0.00033798       0.00047765       0.00344205
C       -0.02049625       1.45595335       3.78160334       0.00508176      -0.01000471       0.00517354
C       -1.28317678       3.56487706       3.75687399      -0.00531833      -0.00164003       0.00609047
C       -2.50519543       5.72016112       3.64392496      -0.00230374       0.00850404       0.00313209
C       -3.72956195       7.86450524       3.60180322       0.00277820      -0.00042168       0.00037559
C       -4.94848306      10.01368183       3.67850944      -0.00210275      -0.00871454      -0.00556451
C        2.47627310       1.49529424       3.75651055      -0.00072299       0.00279782       0.00327447
C        1.10437955       3.55535106       4.19245749       0.00276724       0.00683769      -0.00281178
C       -0.04963449       5.73825488       3.96946330       0.00741979      -0.00555514       0.00183972
C       -1.27574079       7.86227590       3.73387527      -0.00730643      -0.00219356      -0.00620189
C       -2.49469410      10.01045550       3.66471387      -0.00244285       0.00434170       0.00653532
C        4.92761848       1.43735397       3.63399232      -0.00287465      -0.00274039      -0.00446264
O        3.77861110       3.51453669       3.49111949      -0.00342130       0.00580413       0.01665136
C        1.19591134       7.81716062       3.97417262      -0.00051634       0.00225247       0.00404321
C       -0.02362341       9.97213333       3.73134568       0.00553557      -0.00577912       0.00530065
C        7.38285827       1.41998075       3.63919978       0.00061316       0.00166124      -0.00406221
C        6.15278899       3.56176520       3.54814139       0.00097107      -0.00448934      -0.00750925
C        4.88489216       5.68751745       3.66295638       0.00320732       0.00038158       0.00168362
C        3.69066880       7.79275292       3.86681221       0.00198281      -0.00128462      -0.00359088
C        2.44784883       9.94833216       3.78349540      -0.00049275       0.00094121      -0.01239083
C        9.84085655       1.41867032       3.68484704      -0.00012452       0.00452646       0.00150095
C        8.60934247       3.57041131       3.58877324       0.00379506       0.00113804       0.00200364
C        7.37192230       5.71484707       3.54149133      -0.00458660      -0.00159215      -0.00086386
C        6.15003276       7.84964227       3.62901091       0.00349161       0.00473726      -0.00835967
C        4.91852952       9.97778054       3.72236190      -0.01325203      -0.00161562       0.00326254
Cd       2.44366212       5.08579979       5.26006967       0.00287621       0.00350076      -0.00440736
O        3.63657386       4.23950586       6.61093694       0.00458252       0.00399565       0.00018228
