51
Lattice="12.336457 0.0 0.0 -6.168228499999997 10.683685154694365 0.0 0.0 0.0 15.0" Properties=species:S:1:pos:R:3:initial_magmoms:R:1:forces:R:3 energy=-435.8702163579832 free_energy=-435.8702163579832 stress="-0.001872795899024965 0.004441794051574905 1.4135241237923034e-05 0.004441794051574905 0.0031797962696882083 -2.25181512959881e-05 1.4135241237923034e-05 -2.25181512959881e-05 -3.027136236525686e-05" pbc="T T T"
C        0.04294946       0.02720458       3.67153999       0.00000000      -0.00073935       0.00231309       0.00728263
C       -1.17199702       2.17584270       3.45112307       0.00000000      -0.00396005       0.00527855       0.01535518
C       -2.44128642       4.31044940       3.52382029       0.00000000      -0.00615764      -0.00093113       0.01277626
C       -3.69036027       6.43964070       3.71652236       0.00000000      -0.00168454      -0.00336453      -0.00842762
C       -4.90905378       8.57654610       3.80042572       0.00000000       0.00910930       0.00028168       0.00746052
C        2.51204369       0.04954118       3.79557552       0.00000000      -0.00140480      -0.00334127       0.01766836
C        1.31909101       2.13482307       3.42584283       0.00000000       0.00158301      -0.01186172       0.00201577
C       -0.04595883       4.40984140       3.17093042       0.00000000      -0.00807312      -0.00925515       0.00186754
C       -1.25840997       6.47869125       3.48485672       0.00000000      -0.00370492      -0.00245099      -0.00259460
C       -2.44873502       8.58452099       3.73624205       0.00000000       0.00133093       0.01270173      -0.00135012
C        4.97756354       0.01980592       3.78935581       0.00000000      -0.00145410      -0.00218967      -0.01009613
C        3.80483415       2.14553062       3.89020625       0.00000000      -0.00455790      -0.00667970       0.01296516
O        1.14730866       6.48102885       3.43950353       0.00000000       0.01045534      -0.00183842       0.00839188
C        0.01999857       8.56813813       3.65477263       0.00000000      -0.00486377      -0.00348830       0.00067075
C        7.45562984      -0.00426422       3.71533341       0.00000000       0.00871330      -0.00490485       0.01393944
C        6.24256390       2.14229390       3.84086225       0.00000000      -0.00132822       0.00062386       0.00258837
C        5.02656051       4.24441950       4.10550133       0.00000000      -0.00316351      -0.00024171      -0.00751404
C        3.80706451       6.43521204       4.31374866       0.00000000       0.00338499       0.00100430      -0.00784068
C        2.47677210       8.50627385       3.77556203       0.00000000      -0.00185122      -0.00152171       0.00624520
C        9.91270685       0.00233237       3.66818317       0.00000000       0.00669464       0.00668435       0.00575978
C        8.69597270       2.15176082       3.65382128       0.00000000       0.00704612       0.00532963       0.00117010
C        7.44797397       4.28969104       3.79859607       0.00000000       0.00452871       0.00098553      -0.00224390
C        6.19968393       6.41631319       3.91706258       0.00000000      -0.00274233       0.00347696      -0.00682407
C        4.96172055       8.55011365       3.84546768       0.00000000      -0.00356064       0.00356056       0.00200681
C        0.06663221       1.46506546       3.50065187       0.00000000      -0.00319138       0.00179475       0.00679069
C       -1.19907489       3.61262598       3.36554619       0.00000000      -0.01377022      -0.00056421       0.00349311
C       -2.46906226       5.73081470       3.56798911       0.00000000      -0.00513396      -0.00536731      -0.00166651
C       -3.68580625       7.86595665       3.75891501       0.00000000       0.00915468       0.00095866      -0.01236668
C       -4.89802882      10.00832854       3.76460690       0.00000000       0.00180555       0.00040219      -0.01079052
C        2.54544114       1.48035716       3.74880297       0.00000000       0.00094084      -0.01202803      -0.00514118
S        1.49023233       3.74119947       2.81289162       0.00000000       0.00948088      -0.00040733      -0.00633839
C       -0.06823790       5.80768466       3.29725852       0.00000000       0.00110539      -0.00609424       0.01001198
C       -1.23259594       7.88826313       3.62979832       0.00000000      -0.00769870       0.00469373      -0.01701327
C       -2.43292370      10.01241520       3.79812879       0.00000000      -0.00148118       0.00754182       0.00397986
C        4.99796975       1.44716856       3.84936375       0.00000000      -0.00445798      -0.00320525      -0.01023808
O        3.87363101       3.48700295       4.22977357       0.00000000      -0.00419217      -0.00263243      -0.00155973
C        1.22252776       7.85666839       3.63070847       0.00000000       0.00029321       0.00034573       0.00101074
C        0.04605738       9.98858138       3.72981209       0.00000000       0.00163129      -0.00460510       0.00215112
C        7.46187334       1.43328874       3.73837350       0.00000000       0.00546393       0.00262744      -0.00855223
C        6.22709443       3.56119666       3.91739368       0.00000000       0.00068808       0.00383310      -0.00630227
C        4.96004791       5.68714693       4.11538804       0.00000000      -0.00061308       0.00007832      -0.00380434
C        3.72913916       7.78476658       3.97370165       0.00000000      -0.00146314       0.00227657       0.00770378
C        2.50715012       9.94378295       3.71153665       0.00000000       0.01040222      -0.00214484      -0.00744776
C        9.93463747       1.44299359       3.58184188       0.00000000       0.00471198       0.00533918      -0.00475807
C        8.67721664       3.58057242       3.65743517       0.00000000       0.00143180       0.00181577      -0.00502653
C        7.42336138       5.71335727       3.81230544       0.00000000      -0.00338053      -0.00025695      -0.01655604
C        6.19527106       7.84600695       3.85578075       0.00000000      -0.00053076       0.00433847      -0.00678987
C        4.97362076       9.97882503       3.71832930       0.00000000       0.00054747       0.00338996      -0.00272495
Cd       2.41914252       5.32640696       5.46043834       0.00000000      -0.00046389      -0.00500048       0.00160858
O        1.73439003       4.84889972       8.04946018       1.00000000      -0.00789673       0.00129522       0.01447833
O        1.24158865       4.37373849       6.92892378       1.00000000       0.00301621       0.01140417       0.00457562
