50
Lattice="12.336457 0.0 0.0 -6.168228499999997 10.683685154694365 0.0 0.0 0.0 15.0" Properties=species:S:1:pos:R:3:forces:R:3 energy=-429.4347770356386 free_energy=-429.4347770356386 stress="0.00034258970311977277 -0.004058846597842106 2.396784404300782e-05 -0.004058846597842106 -0.003816021514371758 2.6394134872782127e-05 2.396784404300782e-05 2.6394134872782127e-05 1.8280156886180855e-06" pbc="T T T"
C        0.02311810       0.00374831       3.95886836       0.00501373       0.00959906      -0.00225702
C       -1.23985303       2.13040482       3.98702731      -0.00437135       0.00321427      -0.00921152
C       -2.46791097       4.27739002       3.87585415       0.00093303       0.00188571       0.00133674
C       -3.67474155       6.41408643       3.80609106      -0.00262423      -0.01064330       0.00281480
C       -4.89837929       8.55273408       3.88480146      -0.00086444      -0.00126632      -0.00263115
C        2.48062119       0.01377555       3.81065820      -0.00107293       0.00171398      -0.01435420
C        1.20112202       2.11887404       3.83605692       0.00338425      -0.00574695       0.00152742
C       -0.03020474       4.20603869       3.85832236      -0.00130377       0.00167961       0.01526448
C       -1.17585191       6.37291443       3.71363169      -0.00307183       0.00804577       0.00891280
C       -2.42453574       8.53698260       3.75537704      -0.00106682       0.00093034       0.00612588
C        4.94898901      -0.00006602       3.65940426       0.00196015       0.00424317       0.00730402
C        3.67903944       2.10826767       3.38694128       0.00137517       0.00601331       0.00201549
P        1.64333086       6.21462799       3.11439041       0.00276986       0.01605182       0.00203858
C        0.04113373       8.53976985       3.63242242       0.00476114       0.00024140       0.00218887
C        7.40525624       0.02718695       3.75302746      -0.00305345      -0.00248710       0.01127453
C        6.16184813       2.15824972       3.56708930       0.00496786       0.00341767      -0.00147090
C        4.97330129       4.32957900       3.35328113       0.00488603       0.00282540       0.00598164
C        3.68052836       6.46031065       3.80655364       0.00876558      -0.00219331      -0.00496480
C        2.50482124       8.60836500       3.77221663      -0.00588940       0.00706624      -0.00499000
C        9.88139941       0.02423173       3.93635843       0.01003244      -0.00905787      -0.00516094
C        8.62649507       2.15388394       3.84590410       0.00011790      -0.00425358      -0.00432348
C        7.40409994       4.29271962       3.72189171       0.00282268      -0.00435729       0.00148724
C        6.17756404       6.43273236       3.76140102       0.00745878      -0.00076674      -0.00449835
C        4.97037919       8.57352016       3.90905233      -0.00866005      -0.01033269       0.00540087
C        0.00478044       1.42655845       3.96122488      -0.00413608       0.00846038      -0.01077185
C       -1.24306956       3.54071081       3.94717740      -0.00523679       0.00033277      -0.00260867
C       -2.43649611       5.69317820       3.80428547      -0.00167593      -0.00074975      -0.00309002
C       -3.66465806       7.83694902       3.82000170      -0.00134956      -0.00865988       0.00160274
C       -4.90796521       9.97950928       3.90729434      -0.00043765       0.00421663      -0.00237655
C        2.45013938       1.44054601       3.69620612       0.00366490      -0.00178423      -0.00767612
O        1.16370785       3.49319406       3.90719935      -0.01192696      -0.01230497      -0.00144906
C        0.03378823       5.59387532       3.67395988      -0.00944041       0.00096696      -0.00748540
C       -1.18672583       7.81221457       3.67868080       0.00249061       0.00873366      -0.00062033
C       -2.44646040       9.96965301       3.74116407      -0.00078400       0.00345580      -0.00304591
C        4.92925652       1.43313863       3.52977601       0.00385788       0.00710159       0.00088030
P        3.63848956       3.60945879       2.49317252      -0.00236451       0.00782238       0.01110594
C        1.30770707       7.88254217       3.56795274       0.00169105       0.00687050      -0.00457092
C        0.01771576       9.97636787       3.68145382       0.00089063      -0.00352412      -0.00178751
C        7.39261357       1.45002107       3.73151194       0.00002934      -0.00300528       0.00209205
C        6.17258548       3.58495257       3.54382097       0.00647545       0.00181632      -0.00737369
C        4.92756249       5.74346628       3.61217370       0.00689453       0.00177401       0.00571984
C        3.73578152       7.87910386       3.83736029      -0.01485965      -0.00579172       0.01106982
C        2.47905819      10.01743109       3.84483046       0.00117915       0.00361526      -0.00315071
C        9.86902477       1.44161908       3.94626857       0.00150491      -0.00657727      -0.00337500
C        8.62834538       3.57604287       3.82788735       0.00330033      -0.00268015       0.00061511
C        7.41498270       5.71584072       3.76876421       0.00039423      -0.00711340      -0.01314282
C        6.20210861       7.85151094       3.87691980      -0.00161568      -0.00408693       0.01270854
C        4.95479724       9.99146652       3.95681975       0.01118080      -0.00738220       0.00578292
Cd       2.57585845       5.56331250       5.52390140      -0.01062751      -0.00382293      -0.00866567
O        1.69220680       4.71806335       7.02674709      -0.00636942      -0.00350606       0.00980196
