51
Lattice="12.336457 0.0 0.0 -6.168228499999997 10.683685154694365 0.0 0.0 0.0 15.0" Properties=species:S:1:pos:R:3:initial_magmoms:R:1:forces:R:3 energy=-441.2507315023556 free_energy=-441.2507315023556 stress="-0.007119141030796283 -0.0017240991245416318 1.3350762820475507e-05 -0.0017240991245416318 0.0013200174717508907 -8.50947812186893e-06 1.3350762820475507e-05 -8.50947812186893e-06 -3.566094754463579e-05" pbc="T T T"
C       -0.01644839       0.04563916       3.79447307       0.00000000       0.00638833       0.00239625      -0.00033932
C       -1.26513589       2.16382511       3.81031402       0.00000000      -0.00492614      -0.00569137       0.00866153
C       -2.47837650       4.31075071       3.72189292       0.00000000       0.00776054       0.00037508       0.00515695
C       -3.68797263       6.46438378       3.64095799       0.00000000      -0.00758589      -0.00462677       0.00306111
C       -4.92486356       8.61431911       3.70782771       0.00000000       0.00060604      -0.00169397       0.00377982
C        2.45061334       0.07755910       3.75017630       0.00000000       0.00199633      -0.00776932      -0.00308559
C        1.18367909       2.21872546       3.83897780       0.00000000       0.00625699       0.00400789       0.00398733
C       -0.03097879       4.28622008       3.96243454       0.00000000      -0.00032646       0.00058979      -0.00113875
C       -1.25514224       6.45798567       3.83106416       0.00000000      -0.00704417       0.00341384       0.00121031
C       -2.47655178       8.60931038       3.75117748       0.00000000       0.00154209       0.00209268       0.00005553
C        4.92015734       0.05462826       3.64902025       0.00000000       0.00066373       0.00381875       0.00028648
C        3.66214123       2.16160700       3.36852435       0.00000000       0.00048839       0.00230121       0.00135072
N        1.10076353       6.48233468       4.16385344       0.00000000      -0.00289500      -0.00289362       0.01304778
C       -0.02595733       8.58507392       3.83745315       0.00000000       0.00400172      -0.00463117       0.00016076
C        7.38883783       0.01821955       3.70639542       0.00000000      -0.00243070       0.00258175       0.00731003
C        6.16717222       2.16781509       3.41822276       0.00000000       0.00426242      -0.00040893       0.00722911
C        5.02300036       4.35494224       3.14773306       0.00000000      -0.00640615      -0.00173100      -0.00477333
C        3.83531582       6.44339640       3.73628031       0.00000000       0.00266204      -0.00070476       0.00034262
C        2.44107313       8.53294013       3.87275133       0.00000000      -0.00091886       0.00843631      -0.00175322
C        9.84576990       0.00944938       3.77687129       0.00000000       0.00706267       0.00028379       0.00558738
C        8.61900026       2.16107138       3.64644290       0.00000000       0.00232204       0.00225826      -0.00714063
C        7.42591417       4.31691570       3.46864532       0.00000000      -0.00126744      -0.00688151       0.00583053
C        6.22993181       6.49008908       3.47739218       0.00000000      -0.00135250       0.00406186       0.00837959
C        4.94175517       8.58053801       3.73237993       0.00000000      -0.00659319      -0.00156792       0.00310956
C       -0.03230408       1.46932082       3.82561412       0.00000000       0.00224057       0.00431427       0.00157217
C       -1.26175863       3.59009053       3.82998335       0.00000000       0.00395122      -0.00545494       0.00040796
C       -2.47180210       5.73819204       3.72482729       0.00000000      -0.00390195       0.00019698      -0.00598504
C       -3.69913094       7.89338407       3.69936816       0.00000000       0.00075242      -0.00222879      -0.00007740
C       -4.94138805      10.03513986       3.77455508       0.00000000       0.00272057      -0.00381571       0.00167396
C        2.43863819       1.50174745       3.67709963       0.00000000       0.00415985      -0.00635491       0.00074964
N        1.12579833       3.56850981       4.03797225       0.00000000       0.00593853       0.00677193       0.00797034
C       -0.03370681       5.76080522       3.98638532       0.00000000      -0.00653284       0.00219647      -0.00509872
C       -1.25111066       7.88568232       3.80840430       0.00000000       0.00003754       0.00158344      -0.00748615
C       -2.48111928      10.03853640       3.72385702       0.00000000       0.00265592       0.00072517       0.00361585
C        4.91906202       1.47466364       3.46343136       0.00000000       0.00352375       0.00327278      -0.00225168
P        3.51001114       3.72023974       2.56894370       0.00000000      -0.01057631       0.00249727      -0.00997662
C        1.18560537       7.82897471       3.96192239       0.00000000       0.00482128      -0.00363120      -0.00211973
C       -0.01642671      10.00866872       3.72959493       0.00000000      -0.00231490      -0.00252639      -0.00080240
C        7.38791978       1.44722020       3.58515248       0.00000000       0.00345837       0.00104292      -0.00142982
C        6.19911719       3.59828590       3.31234702       0.00000000      -0.00328091      -0.00367031      -0.00142965
C        4.99901414       5.78779109       3.38006757       0.00000000       0.00219983      -0.00027161       0.00514791
C        3.70369040       7.81466624       3.78426226       0.00000000      -0.00853883      -0.00116439      -0.00753110
C        2.44451693       9.95820388       3.79095124       0.00000000       0.00269381       0.00932675      -0.00903345
C        9.84307079       1.44015677       3.75169543       0.00000000      -0.00283767      -0.00293188      -0.00748485
C        8.63087134       3.59357661       3.60847775       0.00000000       0.00822352       0.00168256      -0.00574078
C        7.43486897       5.75170820       3.50968244       0.00000000      -0.00572413      -0.00472275      -0.01142323
C        6.18901884       7.89843735       3.64084083       0.00000000      -0.00387943       0.00583624      -0.00878245
C        4.92048502       9.99610190       3.78039501       0.00000000       0.00682470      -0.00106156      -0.00256221
Cd       2.68108248       5.00478362       4.88982623       0.00000000      -0.00165828      -0.00694779      -0.01464654
O        3.12572951       3.98775850       7.72918874       1.00000000      -0.01291174       0.00208109       0.00475751
O        2.58729793       3.57561238       6.63192804       1.00000000       0.00368827       0.00523724       0.01765015
