52
Lattice="12.336457 0.0 0.0 -6.168228499999997 10.683685154694365 0.0 0.0 0.0 15.0" Properties=species:S:1:pos:R:3:forces:R:3 energy=-436.1117013840056 free_energy=-436.1117013840056 stress="0.0017620147295814201 0.003638041460777867 5.4543275005513644e-05 0.003638041460777867 -0.00377172518682676 -2.0422032225561536e-05 5.4543275005513644e-05 -2.0422032225561536e-05 7.492700706645968e-05" pbc="T T T"
C       -0.02736030      -0.03162092       3.73375010       0.00356844      -0.00196914       0.00006480
C       -1.22415636       2.14764480       3.66228696       0.00347754      -0.00264367       0.00719932
C       -2.47127068       4.27860795       3.88336837       0.00329722      -0.00327270      -0.00072123
C       -3.72666823       6.39360908       3.94862473       0.00014403      -0.00151857      -0.01649898
C       -4.98413260       8.51041649       3.89780830      -0.00165359       0.00284046       0.00095358
C        2.43945546      -0.05214570       3.61595235       0.00402337       0.00110917      -0.00376435
C        1.21510190       2.02568767       3.23803140      -0.00255749      -0.00462517      -0.00656223
C       -0.05132492       4.33383415       3.62822137       0.00228890      -0.00155995       0.00482667
C       -1.22658238       6.41264887       3.99522150       0.00012279       0.00113223      -0.00452069
C       -2.50282281       8.52839793       3.90265420       0.00361086       0.00047315       0.00700202
C        4.90931540      -0.02006552       3.67793466      -0.00393940      -0.00309733      -0.01576682
C        3.70672501       2.00137221       3.05319960      -0.00639578      -0.00082585       0.00303675
C        1.30589932       6.46291385       3.97065773      -0.00129767       0.01275114      -0.00313637
C       -0.03964966       8.55789588       3.91350467       0.00329685       0.00595555       0.00229661
C        7.37414790       0.01882458       3.78338530       0.00118198      -0.00846553       0.00418830
C        6.16039408       2.12509044       3.48120905       0.00549332      -0.00612162      -0.00208914
C        5.01973417       4.28312148       3.19936162       0.00510873       0.00561406       0.00014193
P        3.21382930       6.14340308       4.29571485       0.00657784      -0.00342392      -0.00456432
C        2.42503694       8.61015934       3.98267997       0.00071962      -0.00038370       0.00003527
C        9.85970652       0.01653339       3.83133443      -0.00325091       0.00278400       0.01357061
C        8.63159530       2.14492044       3.75137521       0.00094447       0.00949201      -0.00819987
C        7.39891513       4.26370474       3.73656928       0.00103325       0.00017442      -0.00193363
C        6.10655871       6.36939138       3.83622776      -0.00301080      -0.00189197      -0.00198196
C        4.87854164       8.52105304       3.98079501      -0.01041826      -0.00611793       0.00153342
C       -0.01042390       1.40187715       3.55458818       0.00142086      -0.00178331       0.00115249
C       -1.23181514       3.57184692       3.74604805       0.00447882      -0.00509275       0.00593670
C       -2.46896389       5.69777502       3.96483773       0.00028464      -0.00321860      -0.01486815
C       -3.73824664       7.81359427       3.93359498      -0.00080549       0.00315127       0.00064576
C       -4.96927116       9.93330071       3.76539185       0.00473272       0.00410769      -0.00047503
C        2.45568869       1.33970077       3.27165209      -0.00227646      -0.00087170       0.00005708
S        1.23233202       3.66916818       2.73229147       0.00588752      -0.00054846       0.00501019
C        0.05174079       5.72912415       3.92273947       0.00271626       0.00308787       0.01035023
C       -1.26229282       7.83272498       3.95882735       0.00486072       0.00161782       0.01541135
C       -2.49375677       9.94201793       3.74509332      -0.00041158      -0.00135833      -0.00055422
C        4.92365129       1.39070836       3.41360131      -0.00289610      -0.00045823       0.00824463
S        3.86152118       3.49699310       2.17497767       0.00522088      -0.00394757      -0.00032756
C        1.20142105       7.86291798       3.95916911       0.00210872       0.01150815       0.01211125
C       -0.02651632       9.97564452       3.80597753      -0.00289728       0.00236446       0.01024593
C        7.38241493       1.43499313       3.68244022       0.00705267      -0.00558577      -0.00518632
C        6.19069097       3.54144273       3.46548333       0.00224007      -0.00040856       0.00152212
C        4.88256630       5.61822814       3.64392289      -0.01173055       0.00517161       0.00756531
C        3.61235720       7.86841868       4.09093621      -0.00671721      -0.00572236       0.00210210
C        2.44385758      10.01622619       3.87506498       0.00080339      -0.00433420       0.00449372
C        9.87701765       1.44168760       3.75974414      -0.00184203       0.00410963      -0.00131892
C        8.63435968       3.56117945       3.80793840       0.00102203       0.00748537      -0.00747768
C        7.37019225       5.68202049       3.84889247       0.00130847      -0.00266642      -0.00218397
C        6.11326520       7.79839464       3.93849971      -0.00555045      -0.00422617      -0.00349026
C        4.90364488       9.95489093       3.86662126      -0.00140942      -0.00249499       0.00138758
Cd       3.27972674       5.50950876       6.77977514      -0.00581472       0.00013005      -0.00501888
O        4.04584352       5.16132055       8.67440574      -0.01145284      -0.00628196      -0.00353177
O        3.09294101       5.55163673       9.73163640       0.00544373       0.00725618      -0.00602662
H        3.66327961       5.41479132      10.51378650      -0.00814272       0.00260016      -0.01088676
