51
Lattice="12.336457 0.0 0.0 -6.168228499999997 10.683685154694365 0.0 0.0 0.0 15.0" Properties=species:S:1:pos:R:3:initial_magmoms:R:1:forces:R:3 energy=-435.613604068119 free_energy=-435.613604068119 stress="-0.004758720078875835 -0.001910065347681509 2.0727561227180926e-05 -0.001910065347681509 0.002415489592409461 4.3901570567694043e-07 2.0727561227180926e-05 4.3901570567694043e-07 -3.0285127855971235e-05" pbc="T T T"
C        0.01287373       0.04734382       3.79952296       0.00000000       0.00494995       0.00148429      -0.00216017
C       -1.23667323       2.17770358       3.76385524       0.00000000       0.00238626       0.00313412       0.00256319
C       -2.44469644       4.32025315       3.70281413       0.00000000      -0.00081391       0.00151565      -0.00378399
C       -3.66112081       6.46575218       3.70033344       0.00000000       0.00215477      -0.00124022      -0.00273096
C       -4.89908106       8.61313193       3.77580295       0.00000000      -0.00386832      -0.00228805      -0.00186724
C        2.47515519       0.07840057       3.75149807       0.00000000      -0.00250038       0.00289133      -0.00534791
C        1.19961770       2.19037097       3.77266933       0.00000000      -0.00126071      -0.00220937      -0.00136742
C       -0.02091293       4.31593765       3.81973822       0.00000000       0.00383280       0.00223223      -0.00449157
C       -1.21299256       6.44662210       3.75491610       0.00000000       0.00187253       0.00289539      -0.00407861
C       -2.44025812       8.60029853       3.75294287       0.00000000      -0.00207786      -0.00331953      -0.00143697
C        4.94630860       0.05158378       3.66925068       0.00000000      -0.00261257       0.00148164       0.00202337
C        3.69510262       2.14813328       3.37406667       0.00000000       0.00441214       0.00156923      -0.00465369
O        1.15194585       6.47763454       3.92872621       0.00000000      -0.00426955      -0.00229154      -0.00350126
C        0.01158200       8.57912726       3.79626976       0.00000000       0.00367549      -0.00048226       0.00025296
C        7.41388444       0.02314503       3.72246371       0.00000000      -0.00428703       0.00131902       0.00224364
C        6.18095946       2.18314567       3.49675281       0.00000000       0.00205799      -0.00036110      -0.00374926
C        5.03508593       4.37586065       3.37732772       0.00000000       0.00031832       0.00060393       0.00445622
C        3.85485074       6.45242307       4.08838003       0.00000000      -0.00692421      -0.00592327       0.00456130
C        2.45660339       8.53481590       3.91008254       0.00000000       0.00161247       0.00139686      -0.00014588
C        9.86967904       0.01939171       3.79943392       0.00000000       0.00441960      -0.00391384      -0.00315893
C        8.64321220       2.17161646       3.67290140       0.00000000       0.00212121      -0.00571404       0.00063029
C        7.44543364       4.32442049       3.59512672       0.00000000      -0.00460089       0.00038252      -0.00305986
C        6.24413752       6.48538472       3.68381005       0.00000000       0.00017965       0.00388881      -0.00041990
C        4.96061887       8.58421680       3.84873842       0.00000000      -0.00045543       0.00453774      -0.00047021
C        0.00390037       1.48062555       3.78505376       0.00000000      -0.00082917      -0.00061768       0.00067861
C       -1.22131139       3.60519873       3.74944264       0.00000000       0.00266347       0.00561343       0.00164737
C       -2.43921583       5.73662655       3.71141140       0.00000000       0.00349368       0.00185423      -0.00221646
C       -3.67242949       7.89307448       3.74507838       0.00000000      -0.00338343      -0.00316286      -0.00747679
C       -4.91674916      10.03816220       3.79570311       0.00000000       0.00052957      -0.00222496       0.00415054
C        2.45170830       1.51060624       3.66198049       0.00000000       0.00179621       0.00476798       0.00179199
O        1.14427797       3.56183416       3.96955792       0.00000000      -0.00332169      -0.00495532       0.00257663
C       -0.02088494       5.73080164       3.81639008       0.00000000      -0.00101405       0.00192238      -0.00541984
C       -1.22025430       7.87857937       3.76342622       0.00000000       0.00265561       0.00080204       0.00005726
C       -2.45525623      10.03725211       3.73271544       0.00000000      -0.00360075      -0.00038683       0.00107010
C        4.93714802       1.48223586       3.50920017       0.00000000       0.00339543       0.00213918       0.00069099
S        3.62233961       3.72308547       2.66414148       0.00000000       0.00433293      -0.00329700      -0.00061568
C        1.21416651       7.86339792       3.88147319       0.00000000       0.00159381      -0.00264535       0.00288797
C        0.01530820      10.01025914       3.73221235       0.00000000      -0.00290627       0.00014276       0.00213739
C        7.40562658       1.46196137       3.62892347       0.00000000      -0.00006188      -0.00143891      -0.00230170
C        6.20812467       3.61113296       3.47156091       0.00000000      -0.00343817      -0.00186598       0.01036238
C        5.00289249       5.78244306       3.69325180       0.00000000       0.00163617       0.00014167       0.00695680
C        3.73024940       7.81893351       3.95610235       0.00000000       0.00092330      -0.00118090       0.00108986
C        2.46763102       9.96888657       3.81247305       0.00000000      -0.00167749       0.00240610       0.00462357
C        9.87729594       1.45529450       3.74707534       0.00000000       0.00520527      -0.00463433       0.00019524
C        8.65920451       3.60009964       3.65309776       0.00000000      -0.00373061      -0.00259164      -0.00203768
C        7.45380768       5.75348684       3.64588051       0.00000000      -0.00005044       0.00265679      -0.00444621
C        6.21091226       7.90138757       3.77722714       0.00000000      -0.00424009       0.00333866       0.00144369
C        4.94577298      10.00504031       3.82223836       0.00000000       0.00693235       0.00304576       0.00479047
Cd       2.76537908       5.14628975       5.36511317       0.00000000       0.00166975      -0.00464502      -0.01102528
O        2.46374152       4.29289764       7.94878653       1.00000000      -0.00727561      -0.00250977       0.01826495
O        1.95192166       3.84185806       6.82918641       1.00000000      -0.00162019       0.00573602      -0.00018330
