51
Lattice="12.336457 0.0 0.0 -6.168228499999997 10.683685154694365 0.0 0.0 0.0 15.0" Properties=species:S:1:pos:R:3:initial_magmoms:R:1:forces:R:3 energy=-437.2483514301819 free_energy=-437.2483514301819 stress="-0.003493732510608826 -0.0035415180479209237 8.772071385765148e-06 -0.0035415180479209237 -0.00408320479568955 5.900544138739081e-06 8.772071385765148e-06 5.900544138739081e-06 -9.434700445463285e-06" pbc="T T T"
C       -0.05144565      -0.00462215       3.94818017       0.00000000       0.00065473       0.00072051      -0.00231494
C       -1.30875692       2.11912445       3.94642911       0.00000000      -0.00551791       0.00265488      -0.00122886
C       -2.53104767       4.26494844       3.78827335       0.00000000       0.00144103      -0.00154796       0.00488974
C       -3.73316546       6.40977909       3.71861712       0.00000000      -0.00035037       0.00209224       0.00057463
C       -4.96291547       8.55192932       3.83446012       0.00000000      -0.00716843       0.00170460      -0.00296549
C        2.41781007       0.00528529       3.84722520       0.00000000       0.00398579       0.00061290      -0.00333078
C        1.14518682       2.14463794       3.95820695       0.00000000      -0.00604125      -0.00259470       0.00767548
C       -0.08038363       4.20533846       3.86516820       0.00000000       0.00305049       0.00398401      -0.00086331
C       -1.25469783       6.38240189       3.64922595       0.00000000       0.00266096       0.00034464      -0.00658530
C       -2.49539402       8.53967374       3.72530489       0.00000000      -0.00442191       0.00436696       0.00398645
C        4.88183650       0.00146446       3.65951961       0.00000000       0.00263000       0.00118002       0.00002956
C        3.60892649       2.09800787       3.43946873       0.00000000       0.00265123      -0.00123625       0.00193196
P        1.44483252       6.25626424       2.83455934       0.00000000      -0.00099890      -0.00663273      -0.00382018
C       -0.03769909       8.54439118       3.57478078       0.00000000       0.00058725       0.00151107       0.00106767
C        7.34155513       0.01148888       3.71267881       0.00000000      -0.00454366      -0.00010646       0.00279143
C        6.10491741       2.14540111       3.51029443       0.00000000       0.00611039      -0.00606759      -0.00313580
C        4.94327811       4.32185259       3.22266808       0.00000000       0.00125621       0.00095831      -0.00789901
C        3.66542183       6.43682660       3.61353778       0.00000000       0.00018094      -0.00428662      -0.00202598
C        2.42848130       8.57793346       3.68320648       0.00000000       0.00515760       0.00550415       0.00261201
C        9.81104422       0.00177450       3.88605879       0.00000000       0.00140319      -0.00442612      -0.00469324
C        8.56497501       2.13866305       3.77108218       0.00000000       0.00358068      -0.00168384      -0.00386444
C        7.35634450       4.28335475       3.59421867       0.00000000      -0.00385927       0.00106548      -0.00115464
C        6.14383340       6.43896758       3.60004157       0.00000000      -0.00228789       0.00273029       0.00047105
C        4.90163206       8.55492982       3.82189654       0.00000000      -0.00002628      -0.00404395      -0.00357801
C       -0.07114611       1.41489682       3.97182753       0.00000000      -0.00812430       0.00180410      -0.00042055
C       -1.31697523       3.52948104       3.88342265       0.00000000       0.00356428       0.00320076       0.00205819
C       -2.50734775       5.68774389       3.72863224       0.00000000       0.00247365      -0.00102922       0.00306796
C       -3.73138175       7.83503251       3.76580802       0.00000000      -0.00631786       0.00392479       0.00160050
C       -4.97656978       9.97185504       3.90865328       0.00000000       0.00169136       0.00150622      -0.00928710
C        2.39711811       1.42897779       3.77901723       0.00000000       0.00040364       0.00080970       0.00795547
N        1.07732240       3.50578959       4.12129387       0.00000000       0.00221506       0.00063024      -0.00485556
C       -0.05124908       5.61997094       3.59458687       0.00000000       0.00692233       0.00297638      -0.00418180
C       -1.26369047       7.82097081       3.62239580       0.00000000      -0.00328846       0.00136654      -0.00252402
C       -2.51250042       9.96964091       3.74721889       0.00000000       0.00407671       0.00342664       0.00660267
C        4.86917832       1.42867596       3.53065294       0.00000000       0.00519991      -0.00268881      -0.00054100
P        3.47720695       3.61913697       2.57532145       0.00000000      -0.00335231       0.00290289       0.00086117
C        1.21840759       7.88372399       3.45468536       0.00000000       0.00633373       0.00513253       0.00494124
C       -0.05149523       9.97530231       3.65373386       0.00000000      -0.00286207       0.00001217       0.00054617
C        7.33120166       1.43540337       3.67430206       0.00000000       0.00508203      -0.00316388      -0.00003761
C        6.12651965       3.57344442       3.42265681       0.00000000      -0.00208640      -0.00426771      -0.00236404
C        4.90019577       5.74979522       3.42924182       0.00000000       0.00095124       0.00055709       0.00209263
C        3.66612986       7.83838995       3.71478550       0.00000000       0.00186892      -0.00373956       0.00141842
C        2.41117867       9.98835454       3.78889208       0.00000000      -0.00295962       0.00464662       0.00348952
C        9.79620376       1.41996265       3.88984313       0.00000000      -0.00039489      -0.00401312       0.00216682
C        8.56953482       3.56215697       3.72898969       0.00000000      -0.00139397       0.00012778       0.00049252
C        7.36632785       5.70976047       3.63631001       0.00000000      -0.00283286       0.00371831       0.00270512
C        6.14039391       7.84829079       3.77228950       0.00000000      -0.00439044      -0.00133161       0.00729164
C        4.88325720       9.96977520       3.90816940       0.00000000       0.00299836      -0.00487970       0.00230011
Cd       2.57621243       4.95620900       4.91765524       0.00000000      -0.00181099      -0.00810682      -0.01759637
O        3.45711080       5.15082653       7.63656919       1.00000000      -0.00074870      -0.00367674      -0.00298106
O        3.99472024       4.63601515       6.55984587       1.00000000      -0.00335301       0.00335058       0.01662895
