50
Lattice="12.336457 0.0 0.0 -6.168228499999997 10.683685154694365 0.0 0.0 0.0 15.0" Properties=species:S:1:pos:R:3:forces:R:3 energy=-431.0468713028303 free_energy=-431.0468713028303 stress="-0.0014332010247082871 0.000597178079237867 -2.032525442722762e-06 0.000597178079237867 -0.0036403436581635682 -1.6017290261559143e-06 -2.032525442722762e-06 -1.6017290261559143e-06 -1.082197343882194e-05" pbc="T T T"
C       -0.03287902       0.00892949       3.86862444      -0.00091716      -0.00495909       0.00165188
C       -1.26342686       2.14492857       3.90729062       0.00913238      -0.00524087      -0.00507708
C       -2.48368661       4.28056640       3.82667634      -0.00384612       0.00044067       0.00202228
C       -3.72343978       6.41222863       3.76109905      -0.00216977       0.00089899      -0.00079477
C       -4.97621492       8.54531585       3.77282536       0.00216843      -0.00164709       0.00290602
C        2.43398069      -0.00353289       3.86688855       0.00395439      -0.00211357       0.00867633
C        1.21448304       2.17249729       3.91198117       0.01636978      -0.00500303       0.00256890
C        0.00057632       4.25916998       3.95202712      -0.00566860       0.00009505       0.00565390
C       -1.24961376       6.41857889       3.89828832      -0.01319382       0.00538078       0.00093622
C       -2.50492955       8.54554013       3.90430442      -0.00235999       0.00449911       0.00234061
C        4.90413415      -0.00289066       3.85522288      -0.00995559       0.00497380       0.00236972
C        3.66336360       2.02889177       3.39142813      -0.00214813       0.00915873      -0.00347824
C        1.21970328       6.43416654       3.93891726       0.00510837      -0.00460990       0.01602837
C       -0.03602033       8.55233598       3.98826159      -0.00207633       0.00497358      -0.00901818
C        7.36332589       0.01854222       3.91666692       0.00505358       0.00463064       0.00040595
C        6.14140209       2.13316551       3.58785578      -0.01273280      -0.00051275       0.00189774
C        5.02879989       4.27202390       3.05333913      -0.00931528      -0.00835809       0.00914673
P        3.35370267       6.34374414       2.78470660       0.00585795       0.00103806      -0.00121532
C        2.43004410       8.58898467       3.84487582       0.00782037      -0.00827030      -0.00540714
C        9.83982965       0.01734428       3.88865735      -0.00497561       0.00186069      -0.00314495
C        8.60520741       2.14914440       3.82358204       0.00819484       0.00324402      -0.00199823
C        7.39602849       4.27768704       3.60230302       0.00014756      -0.00524232      -0.00860102
C        6.15272517       6.42040548       3.44708913      -0.00235353      -0.00081019      -0.00733444
C        4.89699355       8.56136910       3.64306794      -0.00186958       0.00880865       0.00427192
C       -0.02954311       1.43509978       3.91767595       0.01264347      -0.00536370      -0.01228385
C       -1.25976543       3.56358554       3.89116864      -0.00497848      -0.00339897      -0.00555001
C       -2.48246021       5.70692336       3.82933046      -0.00881812       0.00018557      -0.00200069
C       -3.73526941       7.83574781       3.81663827       0.00303764       0.00094122      -0.00061540
C       -4.97247541       9.96815638       3.85877549       0.00261594      -0.00257606       0.00733530
C        2.44234487       1.41294436       3.76643150       0.00996721      -0.00545600      -0.01014324
C        1.17624886       3.54510674       4.08741224       0.00610542       0.00087313       0.00238832
C        0.01222346       5.71964625       3.92093130      -0.01000242       0.00589837       0.00792079
C       -1.26585397       7.83817623       3.94310429      -0.00654746       0.00645873       0.00095601
C       -2.49977358       9.96816099       3.88864142      -0.00284675       0.00058255      -0.00372200
C        4.91235850       1.40737265       3.62375189      -0.01441002       0.00282076       0.00317964
S        3.61206889       3.46624447       2.44431726       0.00942370      -0.00075454      -0.00297924
C        1.20448660       7.83832039       3.94897761       0.00394990      -0.00196680       0.00319117
C       -0.03195023       9.97557597       3.94292896      -0.00347027       0.00855442      -0.00651402
C        7.36150796       1.43888320       3.79661450       0.00095992       0.00791770      -0.00086194
C        6.17493514       3.54415140       3.41516530      -0.00491561      -0.00624767      -0.00832504
C        4.97307851       5.67931715       3.13467581      -0.00121933      -0.00530353      -0.00179978
C        3.63452693       7.90987312       3.52683490       0.01016072      -0.00290620      -0.00241519
C        2.43247695      10.00014903       3.92313341       0.00330911      -0.00771183       0.00512807
C        9.83460298       1.43644315       3.89096317       0.00654622       0.00049679       0.00073110
C        8.61734891       3.57061905       3.76291398       0.00319115       0.00048255      -0.00360764
C        7.38680601       5.70464538       3.60423614      -0.00012843      -0.00374524       0.00071867
C        6.13326363       7.84112510       3.60805986      -0.00404913       0.00368999       0.00251975
C        4.90157859       9.98085856       3.81973864      -0.00812340       0.00608481       0.00326987
Cd       2.54375867       4.96977612       5.10800022       0.01066056       0.00040977       0.00805984
O        4.15663332       4.82458495       6.20647178      -0.00328685      -0.00320136       0.00061229
