52
Lattice="12.336457 0.0 0.0 -6.168228499999997 10.683685154694365 0.0 0.0 0.0 15.0" Properties=species:S:1:pos:R:3:forces:R:3 energy=-447.3986663864411 free_energy=-447.3986663864411 stress="-0.004858058519291047 0.0009807541967393877 -4.394581153290979e-05 0.0009807541967393877 0.0019265540650567554 2.6195498854113307e-05 -4.394581153290979e-05 2.6195498854113307e-05 1.9617189426949856e-05" pbc="T T T"
C       -0.00499430       0.02821660       3.74228489       0.00720101       0.00479794      -0.00701350
C       -1.25244022       2.13916033       3.74464607       0.00614345      -0.00151524       0.00007886
C       -2.48840445       4.28231447       3.64277214      -0.00412165      -0.00082253      -0.00273012
C       -3.71753840       6.43143000       3.56937651      -0.00309157      -0.00465739       0.00658260
C       -4.93966400       8.58160830       3.63619622       0.00656745       0.00410222      -0.00912194
C        2.46552860       0.06264935       3.71692358       0.00539701       0.01266092      -0.00111343
C        1.22665035       2.21613805       3.94236521       0.00021548      -0.00447949      -0.00774592
C       -0.03767817       4.26391747       3.97335142      -0.00470813      -0.00329278      -0.00296010
C       -1.27789270       6.43838082       3.74378376      -0.00950771      -0.00265714      -0.01142194
C       -2.49218065       8.57964509       3.64824719       0.00191721      -0.00291962      -0.00091416
C        4.92408906       0.01129113       3.67481676      -0.00772239       0.00115092       0.01037308
C        3.73569978       2.14296000       3.70098117      -0.00470922       0.00062003      -0.00455066
C        1.10746233       6.45288664       4.16280402       0.00866199       0.00128733       0.00143840
C       -0.03039711       8.55459564       3.79491531       0.00572662       0.00920481       0.00061912
C        7.39845481      -0.01528566       3.71714574       0.00612632      -0.00570047      -0.00446283
C        6.17773905       2.12905019       3.59989747      -0.00668870       0.00341616      -0.00130730
C        4.96634062       4.24586646       3.62765240       0.00122934       0.00411406      -0.00760428
C        3.78166624       6.40969641       4.02465908      -0.01735962      -0.00031859       0.00834878
C        2.46123040       8.52585663       3.91472838      -0.00035130      -0.00481699       0.00364763
C        9.85972294      -0.00962072       3.74040893      -0.00746611      -0.00843977      -0.00370546
C        8.62990859       2.13288852       3.62693995       0.00029269       0.00712458      -0.00294211
C        7.39818760       4.28471050       3.54835074       0.00209069       0.00401667      -0.00608916
C        6.16342605       6.42058393       3.59911184       0.00355053      -0.00649379       0.00190003
C        4.94061406       8.55196817       3.75627213      -0.00401028      -0.00108288      -0.00284819
C       -0.00910895       1.45132098       3.80705510       0.00881693       0.00189213       0.01050741
C       -1.27203099       3.56038635       3.76079667      -0.00544918      -0.00325707       0.00110127
C       -2.49387333       5.71668144       3.63321837      -0.01040788      -0.00460332      -0.00164863
C       -3.71694574       7.86213086       3.60313351       0.00168394      -0.00347559      -0.00309359
C       -4.93636175      10.01032009       3.70187610       0.00823700       0.01176767       0.00483715
C        2.48756487       1.49203644       3.80272658      -0.00078404       0.00808615       0.00153791
C        1.11488142       3.55743882       4.21755173      -0.01315274      -0.01061275      -0.00735116
C       -0.04458860       5.73401318       3.95666100      -0.00026238       0.00312136      -0.00578564
C       -1.26454887       7.85963070       3.71611143       0.00247698      -0.00129453       0.00413535
C       -2.48310628      10.00896563       3.67274169      -0.00449020       0.00060815       0.00115413
C        4.94124712       1.43416325       3.64941570      -0.00946968       0.00160662      -0.00182767
O        3.79474737       3.51848636       3.61532499       0.01015086      -0.00687719       0.00844999
C        1.20616804       7.81394790       3.96223117       0.00321743       0.00563630      -0.00146179
C       -0.01097621       9.96814118       3.71995759       0.00049444       0.01117587       0.00775000
C        7.39742627       1.41406749       3.63514887      -0.00137505       0.00093992      -0.00547753
C        6.17063724       3.55588955       3.56563941       0.00450228       0.00453378      -0.00079924
C        4.91270925       5.68777602       3.71299639      -0.00922697       0.00404930       0.00274343
C        3.70748440       7.78861487       3.90165277      -0.00724529       0.00269828      -0.00050775
C        2.46118242       9.94266576       3.78566578      -0.00145739      -0.01319331      -0.00156278
C        9.85392836       1.41431340       3.68882542       0.00174033      -0.00415942       0.01286761
C        8.62407089       3.56543338       3.58340492      -0.00279548       0.00816957       0.00551577
C        7.38726190       5.71103593       3.54405500       0.00779677      -0.00292471       0.01337923
C        6.16517895       7.84933504       3.65226559       0.00380205      -0.00428114      -0.00620568
C        4.93066760       9.97430927       3.74314174       0.00118764       0.00151099       0.01126096
Cd       2.46417634       5.06738518       5.20309623       0.00831232      -0.01013107       0.00741635
O        3.28837505       4.30300083       7.03068215       0.00303223       0.00562055      -0.01093565
O        2.37562953       4.82637565       8.06772185      -0.00010278      -0.01494917      -0.00572595
H        3.04191421       5.28704747       8.60897271       0.01538475       0.00304367       0.00326911
