50
Lattice="12.336457 0.0 0.0 -6.168228499999997 10.683685154694365 0.0 0.0 0.0 15.0" Properties=species:S:1:pos:R:3:forces:R:3 energy=-433.86927632967996 free_energy=-433.86927632967996 stress="-0.004309214195055857 0.0016609880961983238 9.625019885905986e-08 0.0016609880961983238 -0.0097899236010121 -1.956348621287539e-05 9.625019885905986e-08 -1.956348621287539e-05 9.502907701785278e-06" pbc="T T T"
C        0.01856322      -0.01701182       3.58115493      -0.00185481      -0.00945118      -0.00192973
C       -1.21442998       2.11544760       3.60878195       0.00484403       0.00488913      -0.00785203
C       -2.44473903       4.25618860       3.64301135       0.00131057      -0.00086179      -0.00126473
C       -3.68123651       6.38799186       3.64892903       0.00126682       0.00424117       0.01126737
C       -4.93110058       8.51599189       3.58728262       0.00231436       0.00122512      -0.00188206
C        2.47874399      -0.02055630       3.78849091       0.00729839       0.00111570       0.00297271
C        1.22728665       2.10272798       4.03236106      -0.00138762       0.00669764      -0.00151137
C       -0.00447298       4.19234970       4.04871397      -0.00037158       0.00106153       0.00641179
C       -1.20226679       6.38301823       3.85988072      -0.00115263      -0.00966347       0.00713223
C       -2.44648414       8.52248144       3.72837994      -0.00446766       0.00043315       0.00164662
C        4.94620572      -0.01051428       3.72741087       0.00425846       0.00140282       0.00055148
C        3.73516635       2.11384942       4.06109836      -0.00368739      -0.00062847      -0.01062770
P        1.47667555       6.38397179       4.56089624      -0.00629713      -0.00257178      -0.00401123
C        0.01792270       8.56421536       3.81281551      -0.00419925      -0.00465130      -0.01173101
C        7.40893904       0.01881349       3.54333441      -0.00143352       0.00149702      -0.00152873
C        6.19611759       2.11174056       3.71861231      -0.00056322       0.00183358      -0.01077547
C        4.98025210       4.20272435       3.98924508      -0.00131986       0.00489372      -0.00483234
S        3.42137158       6.19924183       3.22099868      -0.00046128      -0.00084309       0.00043594
C        2.48464908       8.62748848       3.58681391       0.00446965      -0.00628649      -0.00815178
C        9.89943887       0.01495309       3.42211391      -0.00894932       0.00121015      -0.00211287
C        8.65850874       2.13366621       3.51050349       0.00430749      -0.00196387       0.00573224
C        7.43074050       4.25387050       3.65651020       0.00689926       0.00418618      -0.00766117
C        6.15916102       6.37447379       3.60950674      -0.00312924       0.00562260      -0.00072037
C        4.94299089       8.52912908       3.42900200      -0.00152609      -0.00591769      -0.00042545
C        0.00609568       1.39416921       3.70946300      -0.00237695      -0.00617556       0.01461741
C       -1.23220716       3.52274258       3.72384687       0.00270080       0.00453992       0.00309023
C       -2.44603906       5.67882261       3.70797983      -0.00129489      -0.00352894       0.00882417
C       -3.68643506       7.81131169       3.65502595      -0.00241240       0.00293422       0.01104241
C       -4.92130651       9.94486694       3.64883462       0.00700499      -0.00227902       0.00303090
C        2.48046970       1.38734745       3.99636967      -0.00360834      -0.00052147       0.01446135
C        1.12789242       3.44294011       4.39360014       0.00353709       0.00544822       0.00137185
C       -0.02207186       5.62294601       4.07498315       0.00236814      -0.00538372      -0.00076551
C       -1.20858774       7.81801768       3.82161117      -0.00801290      -0.00775905       0.00210499
C       -2.45472771       9.94850182       3.74944940       0.00647034       0.00096643       0.00221335
C        4.96734379       1.39947053       3.80828060      -0.00181432       0.00088926      -0.00444686
C        3.84507106       3.46680785       4.36032484       0.00069885      -0.00058288      -0.00906795
C        1.28334570       7.96448872       3.90274116      -0.00024117      -0.00205458      -0.00599284
C        0.01193857       9.98423288       3.66373607       0.00041178      -0.00052546      -0.00146089
C        7.42390222       1.42526691       3.55729454       0.00175137       0.00124309       0.00121498
C        6.22139620       3.52270034       3.78715686       0.00505487       0.00422736      -0.00254662
C        4.97628407       5.60975501       3.71541911      -0.00503747       0.00637022      -0.01013246
C        3.68551461       7.90408961       3.43330743       0.00451725      -0.01042881      -0.00856827
C        2.48573370      10.02761647       3.46800872      -0.00513874      -0.00347093      -0.00059821
C        9.89078017       1.42585093       3.47217977       0.00344449       0.00265064       0.00041495
C        8.66145349       3.54931912       3.57858878       0.00497832      -0.00226430      -0.00490631
C        7.41977014       5.67457282       3.64143697       0.00116125       0.00701878       0.01113528
C        6.16797820       7.80133094       3.51163409      -0.00009758       0.00316302       0.00689866
C        4.95540284       9.96864527       3.44636553      -0.01093452      -0.00574412       0.01263550
Cd       2.51661722       4.16004519       5.89048656      -0.00860371      -0.00088203      -0.00475606
O        1.86531139       6.26113897       6.06360518       0.00930503       0.01467932       0.00105361
