49
Lattice="12.336457 0.0 0.0 -6.168228499999997 10.683685154694365 0.0 0.0 0.0 15.0" Properties=species:S:1:pos:R:3:forces:R:3 energy=-427.94681141111363 free_energy=-427.94681141111363 stress="-0.0058123931277201234 -0.00443656284211467 -5.745988486684336e-06 -0.00443656284211467 0.0004708426473122954 -5.388128968978006e-06 -5.745988486684336e-06 -5.388128968978006e-06 4.1565380615908045e-06" pbc="T T T"
C       -0.00525284      -0.01105012       3.76375917       0.01031289      -0.00268657       0.00615536
C       -1.27254986       2.10662807       3.85197949      -0.00255917       0.00485402      -0.00587058
C       -2.47741665       4.26076619       3.78720246      -0.00752077      -0.00985958      -0.00111568
C       -3.67017054       6.41415901       3.64546790       0.00481297      -0.00573543       0.00768034
C       -4.90901795       8.56169377       3.66264883      -0.00033452       0.00166643       0.00582389
C        2.45709754       0.01862696       3.79490224       0.00485447       0.00518217       0.00349521
C        1.16269527       2.10910835       3.89261492      -0.00043123      -0.00930305       0.00157988
C       -0.07426901       4.21230609       4.12971225       0.00356294      -0.00727351       0.00047183
C       -1.24141419       6.39258197       3.92457863      -0.00154171      -0.00192873       0.00347697
C       -2.45988076       8.54909561       3.78637469      -0.00671613       0.00853451       0.00509038
C        4.92657969      -0.00099454       3.72306783      -0.00171443      -0.00566023       0.00196228
C        3.65737793       2.09516126       3.45945437       0.00029842      -0.00325499       0.00453525
C        1.12586717       6.41374138       4.37776603       0.00414411      -0.00511481       0.00060243
C       -0.00624619       8.52858074       3.91203444       0.00973854       0.00612155       0.00299539
C        7.39340363      -0.03006136       3.74230652      -0.00277631       0.00905919       0.00109137
C        6.15084115       2.13488149       3.49090064      -0.00141081      -0.00295326       0.00421260
C        5.03162480       4.35294308       3.19904605       0.00500798      -0.00136474      -0.00069640
N        3.86603703       6.42332087       3.69389279      -0.01030827       0.00796783       0.01168444
C        2.48594430       8.48065892       3.88608491       0.00099079      -0.00587230       0.00387945
C        9.85255686      -0.03689972       3.75103777      -0.00780421      -0.00173861       0.00181843
C        8.61433072       2.11698635       3.68022999      -0.00302108       0.00730630      -0.00299974
C        7.42679608       4.27674238       3.49893927       0.01028250       0.00266244      -0.00462720
C        6.24770522       6.45380486       3.41355079       0.00034227      -0.00137709      -0.00083293
C        4.96036563       8.54205598       3.63503600       0.00136080       0.00076266       0.00369818
C       -0.02871996       1.41344868       3.84613406      -0.00228705      -0.00334370      -0.01137968
C       -1.26337379       3.52626705       3.93032507      -0.00347333       0.00217742      -0.00964949
C       -2.45540492       5.68613205       3.77946993      -0.00096508      -0.01114897       0.00173409
C       -3.67884351       7.83982600       3.69396282      -0.00286460      -0.00014792       0.00308349
C       -4.93278274       9.98285044       3.76027836       0.01156611       0.00219305      -0.00033600
C        2.42474614       1.44770162       3.76916188       0.00133636      -0.00245787      -0.00032827
O        1.08437251       3.45455994       4.21422686       0.00070388      -0.01141427       0.00896463
C       -0.01332747       5.65552292       4.15344466       0.00552284      -0.00657183      -0.00071329
C       -1.23119405       7.81973178       3.87588450       0.00142327       0.00891513      -0.00155639
C       -2.47008821       9.97952830       3.77620967      -0.00382603       0.00548119       0.00859893
C        4.90919103       1.43290667       3.55272575      -0.00291493      -0.01099237      -0.00392120
S        3.50360390       3.69113880       2.80864308      -0.01405455      -0.00036759       0.00212661
C        1.22918853       7.76806067       4.05864048       0.00655954      -0.00592638      -0.00537788
C       -0.00675070       9.95189300       3.78990330       0.00309427       0.00588384      -0.01090536
C        7.37679603       1.40622421       3.63130652      -0.00144545       0.00741855      -0.01260691
C        6.18379641       3.56808785       3.37483985       0.00825479       0.00097342       0.00346462
C        5.02605896       5.76901162       3.35304904      -0.00827468       0.00455336      -0.00609285
C        3.75093807       7.79090737       3.73135516      -0.00262575       0.00649984      -0.00871129
C        2.46119128       9.91165820       3.78685823      -0.00946041      -0.00440323       0.01041491
C        9.84607089       1.39643997       3.76197955      -0.00574353       0.00614551      -0.00157773
C        8.63440983       3.54797693       3.65095637       0.00008580      -0.00040866      -0.00803669
C        7.45089991       5.70420773       3.49489326       0.00844551       0.00014842      -0.00283213
C        6.20767813       7.86185836       3.55395447       0.00076163      -0.00126078      -0.00003044
C        4.92940254       9.95516845       3.72020401       0.00352947       0.00077104      -0.00153202
Cd       2.69652948       5.25260296       5.18372475      -0.00291813       0.01728859      -0.00691080
