50
Lattice="12.336457 0.0 0.0 -6.168228499999997 10.683685154694365 0.0 0.0 0.0 15.0" Properties=species:S:1:pos:R:3:forces:R:3 energy=-426.1580898857385 free_energy=-426.1580898857385 stress="0.001541908692926089 0.0038455674965548864 -2.0418927434471953e-05 0.0038455674965548864 -0.004012280049595868 1.3255163523774587e-05 -2.0418927434471953e-05 1.3255163523774587e-05 1.74881087077225e-05" pbc="T T T"
C       -0.02154107      -0.03179274       3.72905550       0.00041991       0.00289129      -0.00044961
C       -1.21634278       2.14810049       3.65277441       0.00070176       0.00062070       0.00314692
C       -2.46355771       4.28025367       3.85085248       0.00174496       0.00055034      -0.00803095
C       -3.72097566       6.39406064       3.91374269       0.00143768       0.00387838      -0.00301704
C       -4.97945285       8.50989017       3.88053420      -0.00260465       0.00014234       0.00486546
C        2.44525654      -0.05255689       3.60409186      -0.00149596       0.00294450      -0.00244952
C        1.22178638       2.02298673       3.22406718       0.00211631       0.00030251      -0.00057523
C       -0.04368316       4.33596784       3.60282377       0.00034444      -0.00518050       0.00837054
C       -1.22187824       6.41512798       3.96571645      -0.00435966       0.00457484      -0.00026906
C       -2.49812497       8.52966109       3.89255242      -0.00051756       0.00484501      -0.00238346
C        4.91427694      -0.01685653       3.67573873      -0.00117126      -0.00497076      -0.00057533
C        3.71381413       1.99798633       3.02982663       0.00405129       0.00106987       0.00384971
C        1.30673013       6.47010153       3.93870530      -0.00916026      -0.00236042      -0.00171777
C       -0.03647906       8.56370577       3.92030907       0.00286773       0.00033884       0.00386622
C        7.37959716       0.02269411       3.79900894      -0.00142433       0.00066873      -0.00642061
C        6.16853963       2.12438361       3.45915240       0.00320231      -0.00307142       0.00691835
C        5.03163545       4.28049294       3.14768146      -0.00395431      -0.01028031       0.00723701
P        3.21556904       6.13995125       4.21403825      -0.00004333      -0.00212553       0.00985846
C        2.42902636       8.61408058       3.99177851      -0.00323298       0.00554523      -0.00490770
C        9.86623293       0.01918395       3.84439904       0.00017855       0.00177073       0.00186914
C        8.63898031       2.14680216       3.73807336       0.00414777      -0.00197119      -0.00205716
C        7.40727107       4.26473655       3.69496156       0.00437216      -0.00014225       0.00831286
C        6.11177982       6.36860330       3.79887052       0.00105186      -0.00580525       0.00425018
C        4.88318658       8.51972832       3.96932615      -0.00070297       0.00162471       0.00036091
C       -0.00358677       1.40129452       3.54645156       0.00079407       0.00272969      -0.00129085
C       -1.22347059       3.57301736       3.72286038       0.00040686      -0.00136863       0.00488025
C       -2.46287157       5.69932397       3.92761370      -0.00091733       0.00140177       0.00367252
C       -3.73341153       7.81382766       3.91327937      -0.00017791       0.00398307      -0.00961936
C       -4.96375878       9.93299200       3.75494152      -0.00097951       0.00111381      -0.00218408
C        2.46224241       1.33748202       3.25522633       0.00326899       0.00255903       0.00000113
S        1.25052341       3.66777065       2.72680417      -0.00028160       0.00027094       0.00329536
C        0.05664623       5.73310070       3.88926831      -0.00692460      -0.00263717       0.00132673
C       -1.25780605       7.83528874       3.94835239       0.00014065       0.00578030       0.01303341
C       -2.48824063       9.94332072       3.73802521      -0.00394251       0.00290182       0.00328886
C        4.92999465       1.39136572       3.39990140       0.00267784      -0.00480062      -0.00012095
S        3.87699528       3.48021884       2.12851761      -0.01654939       0.00403705       0.00161837
C        1.20458758       7.86998886       3.95962701       0.00019059      -0.00289306      -0.00142111
C       -0.02233150       9.98114473       3.81893384      -0.00030728      -0.00237739      -0.00674827
C        7.38925851       1.43671595       3.67674067       0.00358162      -0.00017611      -0.00133303
C        6.20106556       3.54033592       3.42289005       0.00067170      -0.00262818       0.01133995
C        4.89208826       5.61545328       3.59214511       0.00740136      -0.00520769      -0.00528349
C        3.61629211       7.86709834       4.07529400      -0.00324682       0.00677487      -0.00913930
C        2.44932066      10.02044454       3.89618001      -0.00139831       0.00490717      -0.00289372
C        9.88426411       1.44356889       3.75898462       0.00249566      -0.00007934      -0.00380983
C        8.64236362       3.56315098       3.77633036       0.00457202      -0.00148134      -0.00293396
C        7.37649918       5.68248700       3.80959270       0.00536915       0.00076471      -0.01089800
C        6.11715313       7.79673155       3.91602371      -0.00325741      -0.00306680      -0.00763434
C        4.90959014       9.95571230       3.86961713       0.00063913       0.00103494      -0.00873973
Cd       3.23081397       5.62178741       6.73601685       0.00650808      -0.00131215       0.01068945
O        3.26739573       5.30009581       8.65379219       0.00129550      -0.00609107      -0.00914833
