50
Lattice="12.336457 0.0 0.0 -6.168228499999997 10.683685154694365 0.0 0.0 0.0 15.0" Properties=species:S:1:pos:R:3:forces:R:3 energy=-433.58077023024924 free_energy=-433.58077023024924 stress="0.0008734464863808602 -0.00395138723394617 7.172352272686566e-06 -0.00395138723394617 -0.002541845498421085 1.2463901453628175e-05 7.172352272686566e-06 1.2463901453628175e-05 1.0520784120452572e-05" pbc="T T T"
C       -0.01354069      -0.01765126       3.80155314      -0.00327217       0.00759159      -0.00112396
C       -1.25092408       2.12446017       3.73274536      -0.01315959       0.00912829       0.00759045
C       -2.45645405       4.25427551       3.65828549      -0.00504069       0.00242903       0.00780561
C       -3.68727241       6.39396570       3.66644587       0.00479223      -0.00736304       0.00523393
C       -4.93255184       8.53078293       3.75215351       0.00758246      -0.00939182       0.00995691
C        2.45990004      -0.04924214       3.75481750      -0.00812696      -0.00112751      -0.00134724
C        1.21038186       2.09052052       3.73043601       0.00666365      -0.00899640      -0.01062002
C        0.06422440       4.24085554       3.71404877      -0.00175460      -0.00849903       0.00456575
C       -1.22568556       6.39282370       3.72017300       0.00039373       0.00222559       0.00325575
C       -2.46080277       8.52438984       3.72047581      -0.00453173       0.00860987       0.00150870
C        4.92368406      -0.00798928       3.67262782      -0.00783934       0.00263072      -0.00414584
C        3.62632590       2.08851274       3.50364841       0.00975970       0.00508467      -0.00310047
C        1.14003652       6.42591906       4.21954890       0.01438564      -0.00484754       0.00215128
C        0.00411697       8.52932243       3.80553681      -0.00484205       0.00032492      -0.00589975
C        7.38826415      -0.00617931       3.72621881      -0.00168563       0.00304170      -0.00289493
C        6.12675990       2.15205957       3.57998596      -0.00387036       0.00444599       0.00670292
C        4.88962273       4.36851561       3.50747248      -0.00187111       0.00202328      -0.01430045
O        3.78618271       6.48380710       3.67913209      -0.00066596      -0.00891150      -0.00492704
C        2.48650724       8.51625300       3.86802506       0.00383511       0.01030035       0.00203325
C        9.85010790      -0.01133594       3.77009044       0.01303375      -0.00124779       0.00233587
C        8.61088972       2.13216530       3.66951446       0.00159169      -0.01194394       0.00204657
C        7.38013061       4.27227146       3.61211504       0.00320482      -0.00220308      -0.00200949
C        6.18933307       6.42985520       3.66783706      -0.00174719       0.00813128       0.00633243
C        4.94214767       8.54861965       3.78587170      -0.00605120      -0.00170720       0.00189100
C       -0.02700550       1.40070379       3.78323428      -0.00888685       0.01062695      -0.00590219
C       -1.20850366       3.54790677       3.68919763      -0.00979072       0.00596015       0.00349036
C       -2.45245811       5.68015580       3.66195347       0.00229924      -0.00059136       0.00206221
C       -3.69078475       7.81552031       3.71095385       0.00949493      -0.00871005       0.00233953
C       -4.94423821       9.94656348       3.78986456      -0.00577129      -0.00609862      -0.00824284
C        2.43519305       1.35464222       3.68597880       0.01161645      -0.00273120      -0.00876547
C        1.29498105       3.49193904       3.66712837      -0.00072645      -0.01347409      -0.00856468
C        0.02871165       5.69286116       3.84705272       0.00570575      -0.00322452      -0.00080856
C       -1.22450570       7.81337176       3.74104060      -0.00850474       0.00479488       0.00052620
C       -2.46377963       9.94280091       3.72017581      -0.01019378       0.00750537      -0.00559301
C        4.89855232       1.42722392       3.57551925       0.00212624       0.00135396      -0.00215242
P        3.22328089       3.74512295       3.12084503       0.00867950       0.00451832      -0.00040823
C        1.23485824       7.78209780       3.96134349       0.00419290       0.00471618       0.00980004
C       -0.00840116       9.95867010       3.72948327      -0.00710234       0.00169646       0.00192372
C        7.36831146       1.42686978       3.65611373      -0.00434412       0.00017351      -0.00515144
C        6.11109559       3.59218387       3.55768929      -0.00220585       0.00177033       0.00265170
C        4.97396951       5.76559747       3.60744154       0.00398337       0.00111102      -0.00765664
C        3.73579182       7.85708818       3.79355098      -0.00322700      -0.00770697      -0.00476007
C        2.45850199       9.94362867       3.78586524       0.00876228       0.01181493       0.00501681
C        9.84480528       1.41805269       3.72527669       0.00120047      -0.00710407       0.00096894
C        8.62553517       3.55649570       3.63968886       0.00318218      -0.00969802       0.00499062
C        7.41314754       5.68937687       3.64482407      -0.00077431       0.00186176      -0.00607059
C        6.18108941       7.84072032       3.74003323      -0.00168931       0.00619290       0.01486811
C        4.91887225       9.96787004       3.79706882       0.00499838      -0.00234282       0.00558670
Cd       2.33156874       5.26768847       5.57163007       0.00164544       0.00916084       0.01077656
O        3.32934424       4.75920504       7.16465327      -0.00545455      -0.01130424      -0.01396659
