52
Lattice="12.336457 0.0 0.0 -6.168228499999997 10.683685154694365 0.0 0.0 0.0 15.0" Properties=species:S:1:pos:R:3:forces:R:3 energy=-443.2952639498274 free_energy=-443.2952639498274 stress="-0.005110469098563577 0.0023852757037075433 -2.4913201086407278e-06 0.0023852757037075433 0.0002380277331145631 -2.394877105491798e-05 -2.4913201086407278e-06 -2.394877105491798e-05 1.5854350050357303e-05" pbc="T T T"
C       -0.00834841      -0.00627955       3.76045874       0.00104747       0.00099401       0.00056689
C       -1.23546240       2.12647654       3.80920845      -0.00795522      -0.00551752       0.00612433
C       -2.45361929       4.26269987       3.73667968      -0.00230642      -0.00326920      -0.00453941
C       -3.69732650       6.40087472       3.64911328       0.00183520       0.00357759      -0.00126725
C       -4.94268342       8.54661789       3.63514572       0.00278534       0.00129875      -0.00454559
C        2.45884912       0.01955814       3.82644641       0.00146460      -0.00202146       0.00164375
C        1.21994585       2.16956988       4.00549486      -0.00009590       0.00662037       0.00050503
C        0.01090803       4.28500552       3.99781216       0.00201600       0.00128311       0.00185720
C       -1.24445057       6.41368178       3.82659937       0.00245802       0.00727372       0.01199052
C       -2.47737910       8.54977480       3.75853068      -0.00362259       0.00098784      -0.00266500
C        4.93280575      -0.00003196       3.80821694       0.00031096      -0.00201096      -0.00832203
C        3.71441077       2.16002723       3.87578015      -0.00093717      -0.00171497       0.00132947
O        1.11393544       6.47296449       4.09388800      -0.00122713      -0.00653402      -0.00178611
C       -0.01845418       8.53545769       3.81111287      -0.00075005      -0.00002713       0.00524535
C        7.40537086      -0.02982473       3.78965417       0.00066221       0.00808273      -0.01445804
C        6.19312543       2.10681625       3.71958776       0.00068828      -0.00585219      -0.00200615
C        4.97282118       4.21713163       3.56547641      -0.00328682       0.00264134       0.01062039
P        3.55275403       6.28063477       2.61833477       0.00361303       0.00064362      -0.00501988
C        2.43325813       8.49894183       3.69184337      -0.00376402      -0.00161613      -0.00027185
C        9.86280830      -0.02965178       3.73815030       0.00359534       0.00241580       0.00131357
C        8.64744932       2.11334600       3.72278009      -0.00075248      -0.00653405       0.00664592
C        7.43194097       4.25049417       3.59855610       0.00185760      -0.00172334      -0.00368508
C        6.19283643       6.39786573       3.43436007      -0.00464471       0.00088976      -0.00062695
C        4.92175006       8.52626244       3.51679606       0.00798694      -0.00158801       0.00146015
C       -0.01270303       1.41549543       3.85975609      -0.00406995       0.00049867      -0.00539153
C       -1.23158390       3.55687470       3.83106894      -0.00162768      -0.00350401      -0.00160917
C       -2.46759570       5.68633489       3.73509875       0.00462372       0.00144709      -0.00444287
C       -3.71004267       7.83283102       3.67766823       0.00038143       0.00046626       0.00397505
C       -4.93981923       9.97278960       3.74533183       0.00481910      -0.00224643      -0.00730833
C        2.46456460       1.43800298       3.93366026      -0.00161896      -0.00148120       0.00735433
C        1.15927716       3.54293909       4.21223794       0.00848063       0.00932070      -0.00077379
C       -0.04709703       5.72745402       3.97836287      -0.00065242      -0.00072556       0.00447798
C       -1.25664473       7.83790432       3.79948801      -0.00213419       0.00892241       0.00895959
C       -2.47768915       9.98028220       3.79830333       0.00014153      -0.00307735       0.00166706
C        4.95220552       1.41454189       3.79678632      -0.00055373      -0.00468237      -0.01084133
C        3.80069207       3.54616132       3.89922626      -0.00406029       0.00172022       0.00716169
C        1.17983627       7.83081210       3.81940405      -0.00487012      -0.00890970       0.00499866
C       -0.00253706       9.96225884       3.80039447       0.00190610      -0.00041276      -0.00655253
C        7.41969448       1.39482265       3.74414484       0.00323473       0.00029915       0.00368556
C        6.21527566       3.52035815       3.60924703       0.00026302      -0.00141740       0.01186860
C        4.99898073       5.64636909       3.32445198      -0.00608669       0.00138806      -0.00647958
C        3.67254626       7.83484636       3.40849222       0.00420035       0.00121179      -0.00051877
C        2.45627157       9.92820896       3.76190058       0.00107330       0.00482738      -0.00311101
C        9.86970721       1.39861785       3.75664220      -0.00538185      -0.00012912       0.00505463
C        8.65448115       3.54061129       3.67862942      -0.00135329      -0.00923511       0.00285595
C        7.42373873       5.68120972       3.55769820      -0.00575397       0.00233867      -0.00067304
C        6.16777991       7.82655964       3.49447098       0.00466432      -0.00002147      -0.00357655
C        4.92849967       9.95226745       3.67996549       0.00152091       0.00231245      -0.00025685
Cd       2.60612671       4.68948041       5.33721072       0.00294623      -0.01004899      -0.00366574
O        3.08766530       5.68122692       7.10455858      -0.00457080       0.00054746       0.00204375
O        2.53528561       4.77317629       8.13575997      -0.00064364       0.00073611      -0.00385800
H        3.35029109       4.64832351       8.65749209       0.00414374       0.01155539      -0.00515298
