50
Lattice="12.336457 0.0 0.0 -6.168228499999997 10.683685154694365 0.0 0.0 0.0 15.0" Properties=species:S:1:pos:R:3:forces:R:3 energy=-441.1582530251552 free_energy=-441.1582530251552 stress="-0.0025206126480019934 0.004800436473322277 1.278578004373202e-06 0.004800436473322277 -0.0018756457818138008 1.3176474939331892e-05 1.278578004373202e-06 1.3176474939331892e-05 2.9248180364869242e-06" pbc="T T T"
C       -0.00766215       0.00635290       3.70506018      -0.00007034      -0.00280996       0.00692894
C       -1.20896135       2.15712578       3.81222727       0.00057520       0.00417469      -0.00599844
C       -2.43822069       4.28434622       3.78975797      -0.00747022       0.00346237       0.00297931
C       -3.70871955       6.41210486       3.65082629       0.00207963      -0.00765054      -0.00130551
C       -4.96419470       8.54200343       3.60098897       0.00380610      -0.00102953      -0.00285685
C        2.45160164       0.00194351       3.66797441       0.00149089       0.00598260       0.00347911
C        1.25040480       2.16910536       3.70084314       0.00302252       0.00099937       0.00057798
C        0.04285106       4.32823608       3.90330899       0.00486750      -0.00199500      -0.00870893
C       -1.25830655       6.43757078       3.87529130       0.00079404       0.00005774       0.01191960
C       -2.49471049       8.55578358       3.73879406      -0.00465499      -0.00031856       0.00059481
C        4.92623877       0.00236216       3.74778621       0.00884794      -0.00023133      -0.00242693
C        3.71705845       2.10963740       3.58096464      -0.00080705       0.00025571       0.00133517
C        2.57682166       4.29833559       3.72220478      -0.00812953       0.00300491      -0.00552503
N        1.03974460       6.54050018       4.47693470      -0.00320866       0.00158330       0.00500535
C       -0.04213139       8.57012021       3.92260616       0.00331168      -0.00078619      -0.00273428
C        7.40455644       0.00084582       3.88113040       0.00072748       0.00630361       0.00152472
C        6.19841117       2.11524075       3.67572799      -0.00054873      -0.00058977      -0.00556675
C        5.00167012       4.21464954       3.37935483      -0.00072294      -0.00561566       0.00070456
P        3.39275811       6.20883143       2.85786968      -0.00335205       0.00879481      -0.00252840
C        2.43319542       8.53892820       3.91490168       0.00154985       0.00441505      -0.00786480
C        9.87346329       0.00077410       3.83874490      -0.00557610      -0.00222924       0.00064296
C        8.66092106       2.13730340       3.80070982       0.00014618      -0.00212149       0.00107559
C        7.44190729       4.26207399       3.60147098      -0.00432528       0.00030676      -0.00049239
C        6.17501210       6.39354089       3.41434115       0.00221865       0.00807579       0.00565772
C        4.89728641       8.52896138       3.61065887      -0.00656652      -0.00077186      -0.00280023
C        0.01669225       1.44414158       3.74922597       0.00223941       0.00120704      -0.00434885
C       -1.19022142       3.59363106       3.84463950      -0.00344070       0.00632449      -0.00555066
C       -2.46905785       5.70811997       3.76408096       0.00155075       0.00088038       0.00506659
C       -3.72529628       7.83744124       3.65381002      -0.00069596      -0.00976181      -0.00167111
C       -4.95213596       9.97165845       3.65359733       0.00372676      -0.00091368       0.00910457
C        2.46716239       1.42584852       3.65122711       0.00143375       0.00440486       0.00453405
C        1.29575987       3.62607191       3.75398868       0.00453172      -0.00124321      -0.00041026
C       -0.02827159       5.75890130       4.06413733       0.00454490      -0.00553003       0.00150727
C       -1.26705622       7.85405221       3.85508978      -0.00261261       0.00135393       0.01649141
C       -2.48481560       9.97900673       3.71348026       0.00229859       0.00480513      -0.00201193
C        4.94945212       1.41191090       3.66445719       0.00210586      -0.00009516      -0.00882222
C        3.74338735       3.52772772       3.47609239      -0.00700802      -0.00067147      -0.00107795
C        1.16137941       7.85912178       4.07780415       0.00540688       0.00103756      -0.00368503
C       -0.01221716       9.98524012       3.85190314       0.00943911      -0.00128839       0.00038996
C        7.42349425       1.41826886       3.79674522       0.00001750       0.00351867      -0.00367839
C        6.22361920       3.52807032       3.54544419      -0.00090024      -0.00396090       0.00235692
C        4.98607280       5.62584184       3.25531228       0.00892712      -0.00039514      -0.00127692
C        3.63503451       7.82867613       3.62253828       0.00184600      -0.01614114      -0.00301964
C        2.46269609       9.96745746       3.91529902      -0.00512734       0.00247951       0.00136216
C        9.89200306       1.43168477       3.83249197       0.00079620      -0.00304905       0.00170816
C        8.67011724       3.56110119       3.73405554      -0.00647807      -0.00067895      -0.00106113
C        7.41367521       5.68843999       3.54468345       0.00035709       0.00013840       0.00226171
C        6.14320721       7.82331959       3.51611669      -0.00192526       0.00958208       0.00527053
C        4.92558222       9.96456432       3.73212264      -0.00637757      -0.00152363      -0.00248239
Cd       2.67702056       5.53773043       5.57183677      -0.00266110      -0.01174707      -0.00457413
