52
Lattice="12.336457 0.0 0.0 -6.168228499999997 10.683685154694365 0.0 0.0 0.0 15.0" Properties=species:S:1:pos:R:3:initial_magmoms:R:1:forces:R:3 energy=-451.66043069046316 free_energy=-451.66043069046316 stress="-0.0022066123935953466 0.005450905283438471 3.281845360410257e-07 0.005450905283438471 -0.0013311023277722284 -1.942307612246507e-05 3.281845360410257e-07 -1.942307612246507e-05 -1.5923832906391223e-05" pbc="T T T"
C       -0.03582039       0.02271406       3.68811258       0.00000000      -0.00496741      -0.00204670      -0.00647866
C       -1.23570381       2.17316542       3.75938171       0.00000000       0.00320031      -0.00059842      -0.00026293
C       -2.46611027       4.29971384       3.73701225       0.00000000       0.00201443       0.00298477       0.00782559
C       -3.73941316       6.42629407       3.63010648       0.00000000      -0.00651985       0.00135748       0.00836506
C       -4.99572306       8.55634912       3.59928823       0.00000000      -0.00273590      -0.00009702      -0.00482659
C        2.42167910       0.01888530       3.65463341       0.00000000      -0.00536608      -0.00188462       0.00330348
C        1.22492680       2.19322223       3.66636798       0.00000000       0.00229070       0.00002340      -0.00255232
C        0.01255509       4.34205700       3.83587964       0.00000000       0.00311025      -0.00023582      -0.00273164
C       -1.28724922       6.45365484       3.84981663       0.00000000      -0.00031309      -0.00042831       0.00734140
C       -2.52793801       8.57187259       3.72705259       0.00000000       0.00112357      -0.00137253       0.00223606
C        4.89781503       0.01545010       3.71722625       0.00000000       0.00209396      -0.00064124       0.01102339
C        3.68936202       2.12384480       3.56286435       0.00000000       0.00018473      -0.00236741       0.00747819
C        2.55319673       4.32289714       3.62963064       0.00000000       0.00404962       0.00384868      -0.00071055
N        1.04006356       6.53592617       4.35538042       0.00000000      -0.00264669       0.00569874      -0.00325143
C       -0.07291219       8.58307124       3.90669940       0.00000000      -0.00055207       0.00222966       0.00773087
C        7.37509194       0.01497129       3.83921617       0.00000000       0.00891442      -0.00432150      -0.00470685
C        6.17117558       2.12585727       3.62681723       0.00000000       0.00235137       0.00198291       0.01582482
C        4.97498681       4.22480258       3.38849228       0.00000000       0.00359365      -0.00577293       0.00240997
P        3.33358864       6.18759108       2.91716811       0.00000000      -0.00080576       0.00084081      -0.00224942
C        2.40379151       8.55818507       3.89349988       0.00000000      -0.00275802      -0.00250337      -0.00206568
C        9.84518932       0.01629127       3.80209482       0.00000000       0.00083377       0.00237214       0.00131141
C        8.63405908       2.15089087       3.74204052       0.00000000       0.00051069      -0.00033266       0.00345131
C        7.41375154       4.27584721       3.56556637       0.00000000       0.00624069       0.00174488       0.00308122
C        6.13747159       6.40622519       3.42261164       0.00000000      -0.00691647       0.00000624       0.00091467
C        4.86413181       8.53847270       3.60738979       0.00000000      -0.00773166       0.00100608      -0.00048318
C       -0.00910616       1.46322170       3.71496932       0.00000000       0.00166890      -0.00224522      -0.01517049
C       -1.21713931       3.60928797       3.78338044       0.00000000       0.00254903       0.00062298      -0.00494581
C       -2.49763183       5.72346846       3.73048993       0.00000000      -0.00325701       0.00338543       0.00419053
C       -3.75751826       7.85174905       3.64479350       0.00000000      -0.00108364       0.00048635      -0.00508568
C       -4.98163600       9.98681839       3.64664536       0.00000000      -0.00628697      -0.00154844      -0.00392485
C        2.43809122       1.44417812       3.63026022       0.00000000      -0.00102337      -0.00259578      -0.00673676
C        1.26680854       3.65020324       3.68682556       0.00000000       0.00373907       0.00129181      -0.00091947
C       -0.04919806       5.77685677       4.00739207       0.00000000       0.00249221       0.00135276      -0.00665494
C       -1.29951615       7.86968327       3.84000632       0.00000000       0.00200075      -0.00105742       0.00296632
C       -2.51549461       9.99471817       3.69694790       0.00000000      -0.00195981      -0.00048889      -0.00380127
C        4.92231267       1.42423142       3.62826154       0.00000000       0.00176325      -0.00086111       0.00031436
C        3.72076414       3.53745191       3.47191425       0.00000000       0.00113626      -0.00336289      -0.00478880
C        1.13220507       7.86833236       4.04721952       0.00000000      -0.00312907       0.00425012      -0.00142231
C       -0.04131775       9.99784965       3.82362069       0.00000000       0.00618706      -0.00053075      -0.00356605
C        7.39658124       1.43062269       3.74118819       0.00000000       0.00150766      -0.00223636       0.00746518
C        6.19786536       3.53869078       3.51498449       0.00000000       0.00712623       0.00109260       0.00747831
C        4.94980598       5.63409192       3.28794235       0.00000000      -0.00210661      -0.00601843       0.00115795
C        3.60015926       7.84169099       3.62649363       0.00000000      -0.00705096      -0.00110453      -0.01016262
C        2.43336863       9.98423645       3.87920081       0.00000000       0.00661962      -0.00413932      -0.00348879
C        9.86490819       1.44678452       3.78084233       0.00000000       0.00125856       0.00184364       0.00000733
C        8.64326999       3.57525469       3.68024482       0.00000000       0.00482404       0.00051206       0.00506897
C        7.38187360       5.70262414       3.52827917       0.00000000      -0.00508112       0.00134361       0.00030693
C        6.10962042       7.83564407       3.52131650       0.00000000      -0.00640386       0.00268867      -0.00775224
C        4.89669104       9.97827430       3.71255147       0.00000000      -0.00474149       0.00031806       0.00090118
Cd       2.69489479       5.58198714       5.50673992       0.00000000       0.00300470      -0.00142191      -0.02410736
O        3.10381278       4.55401650       7.82748183       1.00000000      -0.00182210       0.01774041       0.00340767
O        3.61908861       5.71154205       7.40680702       1.00000000      -0.00113050      -0.01081071       0.01728452
