52
Lattice="12.336457 0.0 0.0 -6.168228499999997 10.683685154694365 0.0 0.0 0.0 15.0" Properties=species:S:1:pos:R:3:forces:R:3 energy=-439.5874672368562 free_energy=-439.5874672368562 stress="0.001079075750319921 -0.0004209984848333233 1.896226487539891e-05 -0.0004209984848333233 -0.00120654264362262 -2.578534638841119e-05 1.896226487539891e-05 -2.578534638841119e-05 3.685608790222245e-05" pbc="T T T"
C       -0.01378084      -0.02247874       3.85837882       0.00432538       0.00315668      -0.00775311
C       -1.26377056       2.11608151       4.02674641      -0.00027755       0.00043953       0.00678294
C       -2.51690056       4.25574291       3.79594569      -0.00091143      -0.00824400      -0.00335019
C       -3.73853280       6.38572256       3.60214101      -0.00352028       0.00010713       0.00392990
C       -4.95565019       8.52171478       3.66009955      -0.00249156       0.00218514      -0.00405768
C        2.46128710      -0.01370629       3.77063184       0.00048451       0.00175962      -0.00594411
C        1.23610093       2.05588034       4.27468324      -0.00303554      -0.00422805       0.00620812
C       -0.11162374       4.29109917       4.20591518       0.00339768      -0.00017015      -0.00929778
C       -1.25174052       6.37768648       3.60874464      -0.00073991      -0.00513456       0.00176668
C       -2.48230377       8.51597783       3.57074012       0.00298099       0.00035505       0.00613038
C        4.91518767      -0.03157812       3.62701480      -0.00491991       0.00138172      -0.01131098
C        3.71762794       2.09560036       3.81421325       0.00472983       0.00236326      -0.00395749
P        1.57300547       6.15522044       3.12669166      -0.01046503      -0.00991754       0.00058995
C       -0.00560660       8.51645959       3.48436618       0.00332769      -0.00222334      -0.00280870
C        7.37906402      -0.00862765       3.62496010      -0.00378987      -0.00260984       0.00405741
C        6.14186333       2.11711570       3.63237819       0.00354616      -0.00047707       0.00222562
C        4.90632381       4.22090830       3.61086573       0.00348422       0.00403483       0.01286272
C        3.59841041       6.40736750       3.74320995       0.00960292      -0.00577322       0.00986590
C        2.46407465       8.57363210       3.57503273       0.00455429      -0.00403937       0.00155979
C        9.85608246      -0.00296329       3.76596557       0.00053672       0.00092532       0.00732236
C        8.60885465       2.12407354       3.74924294       0.00001283       0.00003151      -0.01269312
C        7.35740829       4.25827795       3.61870903      -0.00566945      -0.00119870       0.00560509
C        6.09972864       6.37001242       3.58259116      -0.00037178       0.00327951       0.00627778
C        4.92237885       8.53377474       3.68852067      -0.00198246       0.00312324       0.00733775
C       -0.01152742       1.39644396       4.06432890      -0.00137695       0.00142748      -0.00209681
C       -1.30409563       3.53917953       4.03189716       0.00237744      -0.00175399       0.00573463
C       -2.50403494       5.67718837       3.66563023      -0.00370596      -0.00758031      -0.00586650
C       -3.72483137       7.80960216       3.59780531      -0.00011512       0.00328665       0.00450554
C       -4.94737064       9.94898428       3.76482296       0.00130753       0.00277877      -0.01576027
C        2.47748074       1.41049924       3.95379293       0.00366407       0.00073306       0.00883480
P        1.16973091       3.57652139       5.16287936      -0.00244954       0.01091693      -0.00973864
C       -0.03828929       5.63064771       3.73937078       0.00532647       0.00508111       0.00813282
C       -1.24773307       7.80295900       3.51656138       0.00224550      -0.00509583      -0.00882022
C       -2.48546896       9.94694518       3.63914961      -0.00221287       0.00148045      -0.00903619
C        4.91346876       1.40148626       3.67841009       0.00359899       0.00022529      -0.00134913
O        3.74432342       3.47592409       3.74991447       0.00564958       0.00841519       0.00926913
C        1.25700702       7.85626894       3.42220559       0.00429525      -0.00253901       0.00497387
C       -0.01533590       9.94632625       3.56391811      -0.00564837      -0.00081329       0.00265278
C        7.37109120       1.41628399       3.66281435       0.00119721      -0.00135381      -0.00409242
C        6.12214617       3.53863167       3.59804846      -0.00153545      -0.00163793      -0.00576307
C        4.83305397       5.64786302       3.58907461       0.00457923       0.00175552       0.00815013
C        3.68477013       7.82630119       3.65111438       0.00305436      -0.00633346       0.00585156
C        2.45402730       9.98566460       3.65452547       0.00021331      -0.00164306      -0.00337355
C        9.84897952       1.41440564       3.84918321       0.00096539       0.00196330      -0.00511615
C        8.59288564       3.54667256       3.71914889      -0.00432686      -0.00181574      -0.00565336
C        7.34582533       5.67561696       3.59300330      -0.00404285       0.00043767       0.00272133
C        6.14156486       7.80373197       3.64616773      -0.00449079       0.00268692       0.00114662
C        4.92131210       9.95907860       3.76907869       0.00369794       0.00419730       0.00244579
Cd       2.80030871       5.44782032       5.66050581      -0.01149834       0.00380189       0.00786228
O        3.77204334       5.85366954       7.48236567      -0.00099375      -0.00567722      -0.01626980
O        2.70302591       5.83327584       8.50683825       0.00313499       0.00233150       0.00990106
H        3.14825449       5.26049450       9.16063420      -0.00571883       0.00559792      -0.01059552
