49
Lattice="12.336457 0.0 0.0 -6.168228499999997 10.683685154694365 0.0 0.0 0.0 15.0" Properties=species:S:1:pos:R:3:forces:R:3 energy=-435.53085552656165 free_energy=-435.53085552656165 stress="-0.006653847636940699 -0.0004403649219027636 -6.920804606082738e-06 -0.0004403649219027636 0.0030481712515770926 -2.0036978223194848e-08 -6.920804606082738e-06 -2.0036978223194848e-08 6.552808012772654e-07" pbc="T T T"
C        0.00359514       0.01002552       3.66594710       0.00210429      -0.01204317      -0.00265849
C       -1.25266218       2.11685074       3.62302844       0.00627338      -0.00643030      -0.00530117
C       -2.48293855       4.26516982       3.52332868       0.00426030      -0.00029923       0.00563431
C       -3.70030176       6.42069016       3.50108847       0.00212017       0.00835158      -0.01534530
C       -4.92292192       8.57405767       3.58995158      -0.01085238      -0.00818112      -0.00382133
C        2.46884191       0.06403105       3.72997349       0.00037475       0.00789910       0.00724447
C        1.19857573       2.18009549       3.88041049      -0.00992867       0.00912406       0.00516289
C       -0.04972770       4.22178660       3.84962715       0.00494266       0.00187008      -0.00873647
C       -1.26893107       6.41917903       3.65015205       0.00169531      -0.00278903       0.01327304
C       -2.47713447       8.57429771       3.62121649      -0.00379660      -0.00981447       0.00437193
C        4.93145560       0.01154116       3.72060823       0.00471570      -0.00952275      -0.00213914
C        3.73143726       2.19625673       3.90386638       0.00503460       0.01364869      -0.00212581
C        1.07395818       6.42021733       4.19075982      -0.01706136       0.00042671       0.00823953
C       -0.01800750       8.53548322       3.78410124       0.00410273       0.00311241      -0.00150312
C        7.40703560      -0.03865214       3.70531330       0.00404567       0.01171675       0.01288389
C        6.17885497       2.12248436       3.65580998       0.00066142      -0.00051125       0.00629522
C        4.97383260       4.25009193       3.83388424      -0.00232518      -0.00421185      -0.01884462
N        3.85974015       6.43636399       4.05780024       0.00668103       0.00056006      -0.01595690
C        2.48593499       8.48445090       3.89872236       0.00242036       0.00146308       0.01238575
C        9.86473671      -0.03734331       3.67080937      -0.00793042      -0.00233695       0.00872252
C        8.63154830       2.11161249       3.56545259       0.00184695       0.00353395      -0.01550749
C        7.41039983       4.26800742       3.51949431      -0.00982324       0.00743125       0.00145149
C        6.19743417       6.41996641       3.60020804      -0.00495373      -0.01034170       0.00665648
C        4.95681385       8.53741495       3.70599294       0.00452165       0.00423429      -0.00720055
C       -0.01283868       1.42996241       3.70168073      -0.00086354      -0.01032455       0.00876760
C       -1.26722503       3.53725675       3.62139945       0.01232869      -0.00168608      -0.00279624
C       -2.47939069       5.69979836       3.52650727       0.00207906       0.00303976       0.01038547
C       -3.69782148       7.85319086       3.55632156      -0.00983790       0.00169753      -0.01102497
C       -4.92484466      10.00555764       3.66065146       0.00158662      -0.00717996       0.00829013
C        2.46872640       1.49237014       3.86082600      -0.00196247       0.01765798       0.00729035
N        1.08121492       3.51929801       4.08111458      -0.00084269       0.00630386       0.00174568
C       -0.04166850       5.69483578       3.88024616      -0.00606137      -0.00429972      -0.00660600
C       -1.25024594       7.84416507       3.67070907       0.00350522      -0.00341837       0.00111121
C       -2.47377134      10.00369736       3.69266772      -0.00121820      -0.00788972       0.00064115
C        4.94281068       1.43643550       3.74950944       0.00245495      -0.00328832      -0.00638936
N        3.83961051       3.54754730       4.07742133       0.00166539       0.01030713       0.00564491
C        1.21684970       7.77435045       3.96108066      -0.00036171      -0.00293989       0.00198608
C       -0.00325076       9.95409151       3.73218103       0.01096582       0.00410367      -0.00725463
C        7.40530671       1.39143141       3.62498942       0.00347999       0.00797766       0.00059296
C        6.18994191       3.54907748       3.62927137      -0.00657911      -0.00106523       0.00199567
C        4.98380224       5.72192402       3.81653716      -0.00224149      -0.01257963      -0.01227830
C        3.75011633       7.78457116       3.88915120       0.01002743       0.00188469      -0.00670165
C        2.47295658       9.90579607       3.74925065      -0.00630321       0.00169726       0.01566133
C        9.85815355       1.39214053       3.59955060       0.00068213      -0.00461220       0.00070061
C        8.63246508       3.54376396       3.50549423      -0.00622916       0.00555535      -0.00622461
C        7.41458142       5.69687003       3.50948018       0.00214727       0.00762140      -0.00319859
C        6.18798335       7.84687192       3.61270520      -0.00558767      -0.01058236       0.00233717
C        4.93699335       9.95756147       3.67073835      -0.00253066       0.00226927       0.00433794
Cd       2.44536781       5.03190473       5.12768775       0.01056722      -0.00713970      -0.00219505
