50
Lattice="12.336457 0.0 0.0 -6.168228499999997 10.683685154694365 0.0 0.0 0.0 15.0" Properties=species:S:1:pos:R:3:forces:R:3 energy=-433.0502256669335 free_energy=-433.0502256669335 stress="-0.0034010106888237254 0.0022284651449975797 1.539256618691789e-05 0.0022284651449975797 0.0006933705180713935 -1.0348652953286734e-06 1.539256618691789e-05 -1.0348652953286734e-06 1.2829467596970747e-05" pbc="T T T"
C       -0.00701483      -0.00573230       3.73361769      -0.00715152      -0.00013753       0.00367873
C       -1.23354521       2.12786228       3.78699713       0.00433366       0.00452713      -0.00628887
C       -2.45054019       4.26133492       3.72953156      -0.01086323       0.00906299      -0.00075096
C       -3.69849373       6.39823179       3.65275614       0.00597358      -0.00419420       0.00591699
C       -4.94289942       8.54293930       3.62234830      -0.00271660      -0.00039353      -0.00036788
C        2.45883410       0.01387852       3.81995679       0.00158838      -0.00686994      -0.00398538
C        1.22308560       2.16924667       3.98090360       0.00741625       0.00118850       0.00197196
C        0.02806104       4.28434853       3.94521935      -0.00237892      -0.00353443       0.00190554
C       -1.23862289       6.41033536       3.80403692       0.00827239      -0.00017525       0.00877484
C       -2.47503968       8.54627577       3.75285375      -0.01084802      -0.00444700      -0.00860837
C        4.93201348      -0.00064428       3.80415063       0.01276710      -0.00067476       0.00216613
C        3.70981352       2.15719698       3.89701183      -0.01031151       0.00504055       0.00158383
O        1.13282765       6.46465242       3.96286031       0.00149567       0.00174772      -0.00323686
C       -0.01461084       8.53511167       3.77652989      -0.00499021      -0.00843191       0.00011792
C        7.40480455      -0.02742623       3.76099036       0.00420230       0.00010661       0.00426069
C        6.18886556       2.11013283       3.74629232      -0.01135659       0.00030217       0.00425967
C        4.95167437       4.21922318       3.61357553       0.01259004       0.00053528      -0.00167104
P        3.58127286       6.27773622       2.56009482      -0.00666810       0.00805828       0.00106547
C        2.43343198       8.50238862       3.61322349       0.00124787      -0.00088969       0.00481183
C        9.86331130      -0.02675888       3.70140820      -0.00301868      -0.00749865      -0.00401499
C        8.64598226       2.11519562       3.72412394       0.00085910      -0.00299903      -0.00120048
C        7.42434375       4.25057806       3.62885874      -0.00342612       0.00540311       0.00448320
C        6.18559686       6.39383681       3.44261076       0.00631747       0.00878979       0.00583825
C        4.92289144       8.52818425       3.47345118       0.00137408      -0.00096892       0.00891397
C       -0.01118895       1.41689008       3.83434328       0.00624460       0.00411781      -0.00582776
C       -1.22232495       3.55848095       3.80537614      -0.01117270       0.00720801      -0.00082090
C       -2.46594727       5.68426180       3.72945097       0.00965443       0.00511093      -0.00806612
C       -3.70922123       7.82987599       3.67429616      -0.00794245      -0.00840196       0.00191219
C       -4.93966448       9.96928380       3.72622229      -0.00626756      -0.00218608       0.00703588
C        2.46377480       1.43079656       3.93313439      -0.00212454      -0.00545757      -0.00344424
C        1.18264220       3.54642003       4.16612511       0.00749208       0.00342361      -0.00148332
C       -0.03499895       5.72671135       3.91553943       0.00566231      -0.00290716       0.00921604
C       -1.25209306       7.83540086       3.78226678      -0.00956267      -0.00298196       0.00155835
C       -2.47688487       9.97621737       3.79445468       0.00829687      -0.00209427      -0.00420828
C        4.94964469       1.41507797       3.81295185      -0.01157987       0.00356398      -0.00259028
C        3.77304383       3.54494581       3.94040802       0.01005057       0.00243279      -0.01439341
C        1.18369719       7.82982937       3.74490709      -0.00115530      -0.00011365       0.00167084
C       -0.00240327       9.96305580       3.77810652       0.01125925      -0.00798708      -0.00682802
C        7.41760734       1.39787208       3.74589272      -0.00572317       0.00160977      -0.00046888
C        6.20149688       3.52562851       3.66019045       0.00231888      -0.00138195       0.00039919
C        4.98759771       5.64334206       3.33987160       0.00834147       0.00308828       0.00281639
C        3.67456692       7.83964734       3.33640781       0.00340906      -0.00192877       0.01514787
C        2.45600014       9.93045468       3.71111895      -0.00085682      -0.00333069       0.00022013
C        9.86954310       1.40093775       3.73829643       0.00604277      -0.00586988       0.00094310
C        8.65201432       3.54183452       3.69076614      -0.00785964       0.00224786      -0.00041095
C        7.41828937       5.68001739       3.57575698       0.00357092       0.00465384       0.00310759
C        6.16603750       7.82320704       3.47797443       0.00278805       0.00746062      -0.00465567
C        4.92969170       9.95430615       3.64375227      -0.00555398      -0.00324529      -0.01602073
Cd       2.57341792       4.62651889       5.44405302       0.00185113      -0.01038337      -0.00272628
O        2.78162807       5.65574973       7.08298169      -0.01189208       0.00980491      -0.00170693
