50
Lattice="12.336457 0.0 0.0 -6.168228499999997 10.683685154694365 0.0 0.0 0.0 15.0" Properties=species:S:1:pos:R:3:forces:R:3 energy=-433.4440028596789 free_energy=-433.4440028596789 stress="-0.0015082997196236268 -0.002872654758415281 -1.3783586229068702e-05 -0.002872654758415281 0.003693852399850559 -9.812582275666977e-06 -1.3783586229068702e-05 -9.812582275666977e-06 1.8347362487982082e-06" pbc="T T T"
C       -0.03611772      -0.00479150       3.86131364       0.00819299       0.00127888      -0.00093281
C       -1.28824553       2.11441102       3.87238517      -0.00245863       0.00239054       0.00924790
C       -2.50204665       4.25858491       3.80645137      -0.00833829      -0.00165735       0.00192873
C       -3.71457760       6.40510064       3.75757094      -0.00237213      -0.00321501      -0.00511435
C       -4.95459462       8.55117267       3.80004268      -0.00101148      -0.00720332      -0.00343896
C        2.43413306       0.01309037       3.83690905      -0.00063977       0.00965357       0.00495897
C        1.16321748       2.15688385       3.95727365       0.00619433       0.00034852      -0.00911136
C       -0.04482114       4.23086112       4.04561816       0.00154456      -0.00466661       0.00020932
C       -1.25843161       6.39699865       3.88601400      -0.01053048      -0.00406382      -0.00151234
C       -2.48712898       8.54541070       3.81451518      -0.00258905       0.00409741       0.00277581
C        4.90713828      -0.00681981       3.69155515       0.00125819      -0.00053557       0.00111719
C        3.63541432       2.10752302       3.46391431       0.00333999       0.00392250       0.00342775
N        1.14299291       6.39621081       4.11071383      -0.00163810       0.00254509      -0.00023797
C       -0.01547225       8.51039748       3.81135362       0.00357665       0.00408947       0.00554931
C        7.37409759      -0.03511865       3.69726724       0.00507387      -0.00114903       0.00125028
C        6.12976627       2.13718324       3.50558490       0.00270430      -0.00780962      -0.00397733
C        4.95722743       4.35952166       3.24280968       0.00046482      -0.00863031       0.00345302
O        3.78926193       6.46888078       3.36266678      -0.00030005       0.00597297       0.00363589
C        2.45737358       8.45880659       3.76057754      -0.00069383       0.00233094       0.00277632
C        9.82433292      -0.03916642       3.77797605      -0.00097723      -0.00097175      -0.01151688
C        8.59132755       2.11645473       3.70071781      -0.00442843       0.00304746      -0.00027375
C        7.37953474       4.27064704       3.58635025       0.00685187       0.00405542      -0.00175207
C        6.17999688       6.43851036       3.56621499       0.00051059      -0.00221471      -0.00423954
C        4.91450058       8.53520147       3.72984584      -0.00325930       0.00312402      -0.00044118
C       -0.05231099       1.41957863       3.90650175       0.00424078       0.00287642       0.00411961
C       -1.27817123       3.54057735       3.90140180      -0.00631727       0.00140330       0.00378157
C       -2.48699206       5.68332424       3.81825947      -0.01058194      -0.00619421      -0.00358492
C       -3.71694482       7.83310974       3.79732031      -0.00067685      -0.00471028       0.00398132
C       -4.96183133       9.97791257       3.85792944       0.00524001      -0.00381051      -0.00094702
C        2.41685905       1.43753600       3.78635753       0.00305556       0.00625444       0.00128087
N        1.11310650       3.51749492       4.16670221       0.00884878      -0.00022933      -0.00256755
C       -0.01882134       5.70398745       4.02011447      -0.00387302      -0.00106237       0.00325106
C       -1.25478189       7.82008531       3.83676121      -0.00086394      -0.00004884      -0.00633814
C       -2.49356916       9.97448303       3.78518491      -0.00330079       0.00748702       0.00108977
C        4.89579804       1.42136379       3.54103257      -0.00091973      -0.00347306      -0.00081957
P        3.44582833       3.67633205       2.70094303      -0.01396736      -0.01154454       0.00549008
C        1.19905344       7.74344837       3.88834719       0.00193659       0.00417449       0.00349586
C       -0.02438482       9.94360424       3.72376616       0.00555337       0.00292015       0.00225109
C        7.35922437       1.40549083       3.62972993       0.00085378      -0.00328538      -0.00179109
C        6.14196117       3.57477204       3.42845797       0.01019244      -0.00331991      -0.00400618
C        4.98374742       5.77188306       3.35514877      -0.00200928      -0.00200449      -0.00496054
C        3.71817917       7.82035696       3.64421311      -0.00243659       0.00359697       0.01128855
C        2.43601775       9.89971529       3.74404744       0.00065999      -0.00174533      -0.00215671
C        9.81942871       1.39766328       3.78817495      -0.00518166       0.00189090      -0.00186347
C        8.60016182       3.54694673       3.69856293      -0.00234610       0.00209011       0.00332980
C        7.39939410       5.69526276       3.63697834       0.00222192       0.00219536      -0.00525212
C        6.16439751       7.84680463       3.70624201      -0.00445834      -0.00268348      -0.00285054
C        4.89627835       9.95688556       3.80679501       0.00361852       0.00330901      -0.00435498
Cd       2.62553302       4.71971198       5.18406821       0.00893789       0.00123665      -0.00036469
O        4.05325437       5.31413010       6.39446684       0.00109787      -0.00006276       0.00071598
