50
Lattice="12.336457 0.0 0.0 -6.168228499999997 10.683685154694365 0.0 0.0 0.0 15.0" Properties=species:S:1:pos:R:3:forces:R:3 energy=-434.58576825915827 free_energy=-434.58576825915827 stress="-0.0021932826439114823 -0.0025868485934073767 5.495590679887951e-06 -0.0025868485934073767 0.004037485437987083 -3.3565123201201446e-05 5.495590679887951e-06 -3.3565123201201446e-05 8.381080844069159e-06" pbc="T T T"
C       -0.03827285       0.00920424       3.81439741      -0.00034819      -0.00399730       0.00593681
C       -1.29143080       2.13012682       3.86188784       0.00087521      -0.00779652      -0.00372974
C       -2.50223561       4.27202031       3.82983105      -0.00451147      -0.00238809      -0.00558120
C       -3.71305355       6.42120597       3.75324166      -0.01171939      -0.00318649      -0.00201633
C       -4.95078658       8.57060809       3.76539076       0.00378290      -0.00179816       0.00075219
C        2.43056299       0.03381276       3.80686440       0.00071577       0.01030415      -0.00339254
C        1.16217435       2.18559584       3.91225927      -0.00442398       0.00595768       0.00749107
C       -0.03900852       4.24022439       4.09256085      -0.00474139      -0.00088508      -0.00372178
C       -1.26605831       6.41051227       3.95024247      -0.00451789       0.00363100      -0.00427351
C       -2.49288577       8.56063335       3.83440216       0.00515503      -0.00402851      -0.00040366
C        4.89734509       0.00978513       3.69984159       0.00028842      -0.00345822       0.00550224
C        3.62979666       2.09943357       3.38105192       0.00504700       0.00095194       0.01021455
N        1.11153088       6.42848848       4.27326059       0.00921008      -0.00476945       0.00031570
C       -0.03130091       8.53207514       3.88647419       0.00512568       0.00306642      -0.00350713
C        7.36275630      -0.02123397       3.72173071       0.00308834      -0.00325778       0.00058093
C        6.12293893       2.14459331       3.47739532       0.00242860       0.00151307       0.00488422
C        4.99515647       4.35261804       3.17177948       0.00531432      -0.00039846      -0.00583470
N        3.77079960       6.42488589       3.48175059       0.00943697       0.00780826       0.00023422
C        2.43302527       8.47807014       3.82462357      -0.00821212       0.00499817      -0.00366207
C        9.81968725      -0.02641819       3.76436510       0.00244162       0.00302255       0.00029353
C        8.58705018       2.12978575       3.69804987      -0.00298175      -0.00345479       0.00120587
C        7.38789440       4.28435783       3.56616629      -0.00043092      -0.00011287       0.00226897
C        6.19078156       6.45219894       3.52499397       0.00291747      -0.00413778      -0.00687240
C        4.91374878       8.54450697       3.69249009      -0.00295388      -0.00311946      -0.00956816
C       -0.05196285       1.43567553       3.86755288       0.00061556      -0.00358262       0.00146625
C       -1.28206585       3.55261807       3.92678282      -0.00241864      -0.00767189      -0.00645045
C       -2.49123263       5.69736698       3.84642527      -0.01021004       0.00214652      -0.00647468
C       -3.72000868       7.84888804       3.79020518       0.00302525      -0.00407146       0.00306381
C       -4.96623480       9.99419361       3.82037811       0.00277107       0.00280100       0.00636229
C        2.41496322       1.46021170       3.73258637      -0.00447288       0.01151596      -0.00177689
N        1.11192865       3.52501771       4.16256639       0.00346018       0.01126466      -0.00577445
C       -0.03596557       5.71596858       4.12286097      -0.00155499       0.00052031      -0.01020393
C       -1.26409049       7.83656692       3.89475038       0.00680263       0.00373106       0.00206733
C       -2.50054246       9.99299977       3.78627756      -0.00080613      -0.00211794       0.00077554
C        4.88591251       1.43690715       3.50964814       0.00395466      -0.00178272       0.00445428
S        3.51871534       3.66825362       2.63944762       0.00107393      -0.01260970      -0.00132352
C        1.18677370       7.77368370       4.00001352      -0.00073990      -0.00213939      -0.00817160
C       -0.03320833       9.96009547       3.76330219       0.00266972       0.00031257       0.00823520
C        7.34817863       1.41925845       3.62789228      -0.00048907      -0.00411135      -0.00031882
C        6.14710387       3.58014693       3.39658068       0.00222519       0.00341357       0.00365779
C        4.95530675       5.77732178       3.34866480       0.00588950      -0.00067888      -0.00853643
C        3.69413356       7.77216916       3.65829959      -0.00943622       0.00277040       0.00434330
C        2.42456406       9.91359132       3.76860480       0.00371452       0.00331167       0.00210710
C        9.81498765       1.40759820       3.77742099      -0.00173670      -0.00069872       0.00837247
C        8.60107613       3.55969671       3.69899499      -0.00447487      -0.00281028       0.00198076
C        7.40083302       5.71198846       3.60656479      -0.00608556      -0.00587769       0.00359265
C        6.16259107       7.86229937       3.66193506       0.00063297      -0.00577103       0.01216037
C        4.89322239       9.96290095       3.76746871      -0.00116872      -0.00408385       0.00357330
Cd       2.57433659       5.07595953       5.33309296      -0.01003672       0.00311732      -0.00530278
O        4.26814244       4.53388121       6.19704657       0.00580887       0.01863821       0.00100401
