51
Lattice="12.336457 0.0 0.0 -6.168228499999997 10.683685154694365 0.0 0.0 0.0 15.0" Properties=species:S:1:pos:R:3:initial_magmoms:R:1:forces:R:3 energy=-440.4935935422021 free_energy=-440.4935935422021 stress="-0.004254915841120083 -0.002703441475624136 5.704646804783759e-06 -0.002703441475624136 0.0027115185216562035 2.1432459514903664e-06 5.704646804783759e-06 2.1432459514903664e-06 -1.2602490047297482e-05" pbc="T T T"
C       -0.06361562      -0.02379510       3.79691796       0.00000000       0.00165199      -0.00300836       0.00097806
C       -1.31793076       2.09579550       3.82689817       0.00000000       0.00229591      -0.00004753      -0.00101168
C       -2.52809370       4.24031710       3.74815019       0.00000000      -0.00142898      -0.00209222       0.00521895
C       -3.73483087       6.39295450       3.66697821       0.00000000       0.00091816      -0.00130523      -0.00166368
C       -4.97321380       8.54174384       3.71530538       0.00000000      -0.00130645      -0.00407237      -0.00314886
C        2.40541901       0.00059815       3.80215521       0.00000000      -0.00342715       0.00088054       0.00186205
C        1.13206698       2.14718833       3.91528864       0.00000000      -0.00021326       0.00043253       0.00164929
C       -0.07946710       4.21028174       4.04224266       0.00000000       0.00302099      -0.00126989      -0.00626784
C       -1.29770732       6.38248839       3.87435029       0.00000000       0.00149279      -0.00328576       0.00477793
C       -2.51800041       8.53121267       3.79088709       0.00000000      -0.00075244       0.00351561      -0.00088182
C        4.87334208      -0.02060545       3.68847433       0.00000000       0.00201887      -0.00069074      -0.00645952
C        3.60366110       2.06843757       3.40324213       0.00000000      -0.00017022      -0.00178018       0.00284584
N        1.07122189       6.39987091       4.18422318       0.00000000      -0.00099979       0.00388210      -0.00126493
C       -0.05838700       8.50389697       3.84638441       0.00000000      -0.00101412       0.00078655      -0.00326142
C        7.34010061      -0.05368493       3.69235536       0.00000000      -0.00254811       0.00561742       0.00232407
C        6.10017934       2.11112033       3.43929095       0.00000000      -0.00083196       0.00004354       0.00382309
C        4.97650106       4.32430950       3.13209046       0.00000000       0.00382287      -0.00460239      -0.00073353
N        3.77080412       6.39157022       3.55014685       0.00000000       0.00467430       0.00133897       0.00430519
C        2.41102458       8.44558777       3.80545693       0.00000000      -0.00136738       0.00289203      -0.00014657
C        9.79577703      -0.05970967       3.73966448       0.00000000      -0.00131922      -0.00048544       0.00384884
C        8.56404684       2.09611922       3.64327182       0.00000000      -0.00190335       0.00215071       0.00086938
C        7.36946347       4.25424699       3.48331072       0.00000000      -0.00103866       0.00092215       0.00553430
C        6.17714573       6.42744055       3.44755223       0.00000000      -0.00032132      -0.00217839       0.00303972
C        4.89199403       8.51327832       3.66149857       0.00000000       0.00134377      -0.00007276       0.00190809
C       -0.08052930       1.40150549       3.85575914       0.00000000       0.00228348      -0.00100093      -0.00592899
C       -1.31174921       3.51853567       3.86727605       0.00000000       0.00183629       0.00017203      -0.00197821
C       -2.51793468       5.66645984       3.76025261       0.00000000       0.00061203      -0.00305618       0.00267657
C       -3.74338352       7.81953810       3.72828703       0.00000000       0.00011715      -0.00048254      -0.00158056
C       -4.99063440       9.96299803       3.79816647       0.00000000      -0.00067047      -0.00468813       0.00455163
C        2.38809462       1.42881514       3.74864972       0.00000000      -0.00213194       0.00063508       0.00089774
N        1.06858834       3.48769116       4.16169358       0.00000000       0.00379100       0.00090268       0.00026582
C       -0.07330180       5.68480401       4.04439272       0.00000000       0.00215120      -0.00221859       0.00108724
C       -1.28995898       7.80779244       3.84097596       0.00000000      -0.00035230      -0.00084607      -0.00292709
C       -2.52508015       9.96307319       3.77090596       0.00000000      -0.00097989       0.00456346      -0.00010541
C        4.86258624       1.40766580       3.50233623       0.00000000      -0.00000414      -0.00172735       0.00097748
S        3.48479190       3.62680394       2.64149979       0.00000000      -0.00255865       0.00582838       0.00465898
C        1.15805711       7.74482872       3.94797443       0.00000000      -0.00161939       0.00307269      -0.00101166
C       -0.05762227       9.93118682       3.73955271       0.00000000       0.00122718       0.00110841      -0.00110123
C        7.32623577       1.38526649       3.58535146       0.00000000      -0.00225306       0.00403267      -0.00296106
C        6.12870127       3.54645310       3.33356343       0.00000000       0.00339678      -0.00256922      -0.00376896
C        4.94901548       5.74590203       3.31659471       0.00000000       0.00226035      -0.00319430      -0.00284128
C        3.67559184       7.74480925       3.67278280       0.00000000       0.00081711       0.00330424      -0.00304760
C        2.40136624       9.88124497       3.74506134       0.00000000      -0.00410889       0.00249112      -0.00114839
C        9.79001643       1.37396973       3.74009264       0.00000000      -0.00042493       0.00073169      -0.00231951
C        8.57954597       3.52610609       3.62141462       0.00000000      -0.00207481       0.00085844      -0.00250686
C        7.38291868       5.68222716       3.51486021       0.00000000      -0.00026521       0.00008071       0.00075371
C        6.14161869       7.83515449       3.60370941       0.00000000      -0.00071955      -0.00291018      -0.00027116
C        4.86958853       9.93126561       3.74304476       0.00000000       0.00089393      -0.00095207      -0.00209626
Cd       2.63517600       4.93986893       4.96413718       0.00000000      -0.00058458      -0.00120641      -0.01899869
O        3.83188889       5.37055310       7.67187763       1.00000000      -0.00263976      -0.00149233       0.00086071
O        4.18142920       5.66670308       6.46086398       1.00000000      -0.00059612       0.00099177       0.01971808
