50
Lattice="12.336457 0.0 0.0 -6.168228499999997 10.683685154694365 0.0 0.0 0.0 15.0" Properties=species:S:1:pos:R:3:forces:R:3 energy=-433.26463026938757 free_energy=-433.26463026938757 stress="-0.002380821053759234 0.0017540160327826266 5.261216668498369e-06 0.0017540160327826266 0.0035155494901366615 -1.0735263947562012e-05 5.261216668498369e-06 -1.0735263947562012e-05 -3.703370048829573e-06" pbc="T T T"
C        0.02632393      -0.00212667       3.70501180      -0.00620227      -0.00007488      -0.00354017
C       -1.20828862       2.12514842       3.51308158       0.00535528       0.00181287      -0.00074373
C       -2.46171366       4.26534821       3.60181359      -0.00156267       0.00125759       0.00091980
C       -3.69714577       6.40313331       3.78461676      -0.00473310      -0.00096782      -0.00151446
C       -4.92482315       8.54253061       3.84140734      -0.00055007      -0.00160662       0.00389550
C        2.49678106       0.01368068       3.84418663      -0.00276005       0.00069221      -0.00413369
C        1.29159237       2.10823666       3.46664464       0.00519747       0.00168498       0.00563548
C       -0.04699858       4.32553687       3.25163381       0.00240746      -0.00434001       0.00138599
C       -1.26276413       6.43461762       3.59361705      -0.00262313       0.00005926      -0.00032591
C       -2.45871702       8.55215376       3.81989619       0.00356444      -0.00252350       0.00369770
C        4.96681987      -0.00995361       3.86014184       0.00052836       0.00280141      -0.00531520
C        3.76460895       2.16183341       3.93265126      -0.00103860      -0.00533198       0.00099070
N        1.15497029       6.41558896       3.44754055       0.00595712      -0.00345081       0.00022044
C        0.01876856       8.52344598       3.72471137       0.00045281       0.00886728       0.00813588
C        7.44305472      -0.04411262       3.77193365       0.00819942      -0.00045044      -0.00316327
C        6.21319429       2.11620472       3.86171870      -0.00496291       0.00230560       0.00085697
C        4.96446524       4.25516172       3.99991860      -0.00142260       0.00282933      -0.00571311
O        3.80849406       6.41996850       3.96474284       0.00746950       0.00473011       0.00265733
C        2.50835848       8.45682994       3.73939632      -0.00354348      -0.00444062       0.00697201
C        9.89337095      -0.03749316       3.69927941       0.00088605      -0.00098353       0.00169329
C        8.66930900       2.11280943       3.70640097      -0.00201191      -0.00223298      -0.00613733
C        7.42190875       4.25786668       3.81100447       0.00369900       0.00094978       0.00202260
C        6.18118063       6.39298545       3.90270175      -0.00116281       0.00035522      -0.00776917
C        4.95356792       8.51948908       3.81262046      -0.00063770      -0.00091426       0.00168598
C        0.03247713       1.42285726       3.54788087       0.00547611       0.00119926      -0.00181860
C       -1.22535293       3.56170438       3.43806805      -0.00021892       0.00167321      -0.00242122
C       -2.47152676       5.69490182       3.66061580      -0.00639230       0.00137727      -0.00664099
C       -3.69024121       7.83160743       3.82618559       0.00155838      -0.00189102       0.00296107
C       -4.91091730       9.97616059       3.80332725      -0.00619256       0.00025930      -0.00097908
C        2.51135997       1.43639218       3.77796029       0.00090079      -0.00064733       0.00557154
P        1.47917964       3.68657090       2.70837234       0.00047954      -0.01167348       0.00472414
C       -0.02754893       5.76779885       3.40141009      -0.00079288      -0.00016360      -0.01318758
C       -1.23583580       7.84027705       3.72246905       0.00386381       0.00130871      -0.00133384
C       -2.44406678       9.97583752       3.86703679       0.00005696      -0.00027407      -0.00323576
C        4.98089115       1.41608671       3.89507003      -0.00334988      -0.00082547      -0.00479877
N        3.79963117       3.52564018       4.12237440       0.00327159      -0.00608026       0.00484798
C        1.23198007       7.75372765       3.63609655      -0.00588286      -0.00034046       0.00586479
C        0.03368260       9.94242871       3.80104020       0.00428942       0.01062345      -0.00592145
C        7.44282768       1.39215331       3.78553420      -0.00384094      -0.00095193       0.00072070
C        6.19958932       3.54529380       3.88337886       0.00209538       0.00318840       0.00521469
C        4.98559390       5.69157130       3.97314062      -0.00012339       0.00427909       0.00236639
C        3.75463718       7.80144011       3.82916942       0.00078671       0.00163632       0.00352609
C        2.50236615       9.89733936       3.73644425       0.00533540      -0.00607018       0.00178150
C        9.90196169       1.40279279       3.63661307       0.00228853       0.00067124      -0.00925697
C        8.66114264       3.54361275       3.70916848       0.00093050      -0.00078953      -0.00627842
C        7.41660361       5.67778675       3.83797091      -0.00257822       0.00013324      -0.00092498
C        6.18923999       7.82282431       3.85747577      -0.00149395      -0.00123530       0.00257068
C        4.95810105       9.95493557       3.73175398      -0.00391363      -0.00270797       0.00754535
Cd       2.25713191       4.59055602       5.17044243      -0.01010338       0.00757143       0.00860903
O        1.00055246       5.47284965       6.39133244       0.00304420      -0.00129850      -0.00191997
