52
Lattice="12.336457 0.0 0.0 -6.168228499999997 10.683685154694365 0.0 0.0 0.0 15.0" Properties=species:S:1:pos:R:3:forces:R:3 energy=-433.9106072999332 free_energy=-433.9106072999332 stress="-0.001086456741425689 -0.0020519425215872 5.450979506443651e-05 -0.0020519425215872 -0.004538269835235212 2.6859890779538847e-05 5.450979506443651e-05 2.6859890779538847e-05 -9.71265173703473e-06" pbc="T T T"
C       -0.01589038      -0.01049972       3.70748098       0.00248457      -0.00494516      -0.00125638
C       -1.25441356       2.13243530       3.55439690       0.00817195      -0.00341323       0.00191334
C       -2.51053403       4.26961651       3.55784771       0.00496815      -0.00062653      -0.00737117
C       -3.72315450       6.40485811       3.65037776       0.00042591      -0.00778239       0.00199353
C       -4.94629319       8.53284760       3.72429656       0.00061133      -0.00263363      -0.00585878
C        2.45675424      -0.05068906       3.80527487      -0.00457741       0.00693137      -0.00344061
C        1.24183283       2.04592810       3.50807891       0.00079842      -0.00060398      -0.00055280
C       -0.12040285       4.28427564       3.09324456      -0.00254419       0.00240762       0.00151625
C       -1.27820468       6.41831595       3.34127048      -0.00559535       0.00352588       0.00797777
C       -2.46020000       8.52652194       3.65279385      -0.00370387       0.00495944       0.00262013
C        4.92597470      -0.01604309       3.88476144       0.00028175       0.00589103      -0.01127352
C        3.64970056       2.06539611       4.14693839       0.00032669      -0.00145110       0.00375305
S        1.32826150       6.43425741       2.45504918      -0.00795853       0.00746589      -0.00674131
C        0.00425985       8.54928953       3.53596540       0.00340374      -0.00102620      -0.00396337
C        7.38912509       0.00368760       3.84894224       0.00153047      -0.00336531      -0.00541236
C        6.13494252       2.15452360       4.01699355       0.00473989       0.00266397      -0.00462072
C        4.92256044       4.37484397       4.13577834      -0.00213292      -0.00463244       0.00503644
O        3.76586106       6.49269364       4.04250469       0.00427763       0.00815535       0.00191798
C        2.48194519       8.53819548       3.68887340      -0.00256179       0.00445787       0.00282639
C        9.85539855       0.00470517       3.78897403       0.00107417      -0.00131867      -0.00561469
C        8.60879725       2.14381457       3.79948167       0.00362843       0.00441261      -0.00628466
C        7.36453749       4.28263994       3.83083552       0.00163133      -0.00499907      -0.00145500
C        6.15900890       6.43439935       3.81579801       0.00670273      -0.00796855      -0.00714605
C        4.92335733       8.54694088       3.77594618      -0.00098322      -0.00001123       0.00391536
C       -0.01670846       1.41645294       3.57768878       0.00509691      -0.00392622       0.01024587
C       -1.27794020       3.54780520       3.41367950       0.00386008      -0.00387913      -0.00022507
C       -2.50292414       5.69043837       3.52218634      -0.00084545      -0.00130183      -0.00045427
C       -3.70654464       7.82327224       3.66978193      -0.00088143      -0.00500305       0.00270967
C       -4.95088542       9.95175760       3.73610800      -0.00064755      -0.00041321      -0.00041675
C        2.44647616       1.35977500       3.85475573      -0.00202183       0.00527507       0.00582839
S        1.44021230       3.58473000       2.77706406      -0.00308391       0.00483733       0.00235217
C       -0.12753123       5.68268027       3.02256139      -0.00879319       0.00380803       0.00306985
C       -1.23322241       7.83226551       3.48175789      -0.00125443       0.00329341       0.00905990
C       -2.46485481       9.94161918       3.79751434      -0.00546074       0.00756462       0.01109518
C        4.91059399       1.41324019       4.05156910       0.00406470       0.00352348       0.00679305
P        3.45295339       3.67841801       4.79932435      -0.00638025      -0.00624790       0.00178910
C        1.25019936       7.90698963       3.33986533       0.00338931      -0.00033150      -0.00169611
C       -0.00577409       9.96973678       3.78482460       0.00140220      -0.00227471       0.00379617
C        7.37319434       1.43816467       3.90626671       0.00466737       0.00009575       0.00807173
C        6.12270907       3.59405886       4.00138428       0.00095919       0.00047247       0.00348558
C        4.95061256       5.77591912       3.99715237       0.00173721      -0.00344101      -0.00892693
C        3.72948340       7.84825294       3.78732973      -0.00437525       0.00790047       0.00144409
C        2.46069523       9.96682174       3.80814573       0.00026536       0.00046049      -0.00485868
C        9.85390123       1.43579793       3.72582376       0.00432327      -0.00175965      -0.00747625
C        8.59852244       3.56423320       3.73930105       0.00375479       0.00407141      -0.00901694
C        7.38082289       5.69799593       3.76338237       0.00551090      -0.00917124      -0.00300764
C        6.16264089       7.84169112       3.76248634       0.00042661      -0.00413485      -0.00065863
C        4.91421748       9.97628515       3.75383842       0.00224742      -0.00182854      -0.00007634
Cd       3.01968757       4.47635273       7.17201138      -0.00662856      -0.00177473       0.00024208
O        3.60168485       4.80435332       9.13933673      -0.01234779       0.00950303       0.00935755
O        2.58501083       4.28933532      10.07882160       0.00643856      -0.00565293      -0.00139341
H        3.06697551       4.43558403      10.91630534      -0.01042339      -0.00575859      -0.00361219
