50
Lattice="12.336457 0.0 0.0 -6.168228499999997 10.683685154694365 0.0 0.0 0.0 15.0" Properties=species:S:1:pos:R:3:forces:R:3 energy=-423.902337891355 free_energy=-423.902337891355 stress="-0.0011462596882872145 -0.0020157195181125112 6.891162269564409e-06 -0.0020157195181125112 -0.0049101632810936305 -3.770835023105837e-05 6.891162269564409e-06 -3.770835023105837e-05 -4.565302442817876e-05" pbc="T T T"
C       -0.00604991      -0.00591294       3.68288241       0.00327985      -0.00101446       0.00652822
C       -1.24313833       2.13898734       3.53604093       0.00299788      -0.00160854      -0.00050886
C       -2.49862312       4.27576551       3.54493179       0.00185118      -0.00641148      -0.00296898
C       -3.71267498       6.40970636       3.64449588      -0.00006859       0.00042044      -0.00425963
C       -4.93755258       8.53721571       3.71208843       0.00737825      -0.00299262      -0.00432548
C        2.46640564      -0.04811338       3.78512412      -0.00206818      -0.00523715       0.00096460
C        1.25209741       2.05072659       3.48855851      -0.00068745      -0.00725455      -0.00058806
C       -0.10732322       4.29528373       3.08409953      -0.00466727      -0.00791896      -0.00146555
C       -1.26863262       6.42529477       3.33273151      -0.00239366       0.00167773       0.00283199
C       -2.45085166       8.53110232       3.64804976      -0.00151232       0.00459453       0.00301609
C        4.93647025      -0.01159983       3.87275274      -0.00326627       0.00163463      -0.00287902
C        3.65914039       2.06936641       4.10575445       0.00014007       0.00077177       0.00663465
S        1.32749520       6.45149865       2.41813905      -0.00711991      -0.00726956       0.00130562
C        0.01373490       8.55508938       3.52629723      -0.00312742       0.00445720       0.00120749
C        7.40030801       0.00883816       3.83710829      -0.00685224       0.00986071      -0.00701994
C        6.14602025       2.15964551       3.99846908      -0.00097325       0.00639332       0.00194215
C        4.93283040       4.38084180       4.10688800      -0.00603891      -0.00054135       0.01567310
O        3.77066601       6.49580437       4.00356874       0.01242745      -0.00330291       0.00517554
C        2.49069747       8.54422551       3.66798144       0.00382195       0.00404958      -0.00191108
C        9.86597010       0.00993886       3.76795603      -0.00041743       0.01135286      -0.00387250
C        8.62024077       2.14956587       3.78248171       0.00048637      -0.00266639      -0.00186508
C        7.37544643       4.28794662       3.81478685       0.00073239      -0.00627442       0.00368997
C        6.16883932       6.43932034       3.79826072       0.00489774      -0.00347632      -0.00435707
C        4.93207732       8.55195693       3.75787793       0.00826102       0.00387428      -0.00309130
C       -0.00595413       1.42189824       3.55480401       0.00102218      -0.00339951       0.00473340
C       -1.26491582       3.55551056       3.40006137       0.00070520      -0.00729237       0.00053062
C       -2.49202804       5.69633756       3.51520707      -0.00254472      -0.00280918      -0.00521066
C       -3.69730519       7.82779474       3.66443910       0.00371554       0.00083470      -0.00497601
C       -4.94176795       9.95590524       3.71660241       0.00081210      -0.00604053       0.00229108
C        2.45685645       1.36221506       3.82468407       0.00180883      -0.00355837      -0.00178255
S        1.46048217       3.60213281       2.78365313      -0.01772972      -0.00673945      -0.00378000
C       -0.11832981       5.69291401       3.00634310      -0.00593355      -0.00629106       0.00473544
C       -1.22391266       7.83820372       3.47557826      -0.00360918       0.00547952       0.00308692
C       -2.45478905       9.94611311       3.78765624      -0.00363581       0.00128313      -0.00460552
C        4.92063383       1.41910434       4.02945322       0.00101206       0.00151826      -0.00136844
P        3.43420733       3.69102181       4.72587744       0.00620943      -0.00283584       0.00101223
C        1.25825004       7.91439925       3.31935079      -0.00120791       0.00241406       0.00049235
C        0.00496131       9.97465089       3.77738104      -0.00407244       0.00492231      -0.00868216
C        7.38476165       1.44347135       3.89296256      -0.00237490       0.00656348      -0.00463002
C        6.13163045       3.59966091       3.98165948      -0.00394871       0.00365029       0.00754187
C        4.95838117       5.78077791       3.96870770       0.00777177      -0.00437740      -0.00053070
C        3.73720278       7.85437052       3.76291189       0.01077860      -0.00084534      -0.00110391
C        2.47126067       9.97230418       3.79054272      -0.00308952       0.01137829      -0.00246143
C        9.86516709       1.44144900       3.70598996       0.00171950       0.00627999      -0.00417021
C        8.60980458       3.57014260       3.72332172       0.00302782      -0.00807871      -0.00388962
C        7.39118354       5.70282399       3.75069901       0.00258240      -0.00408464      -0.00189951
C        6.17139254       7.84642320       3.74782738       0.00874719      -0.00099480      -0.00528516
C        4.92418143       9.98096708       3.73192831       0.00162004       0.00744327       0.00131879
Cd       2.90130773       4.26516355       7.18443990       0.00001569       0.01087650       0.00947154
O        2.62674774       4.59591088       9.08353942      -0.01048312       0.00158506       0.00930481
