52
Lattice="12.336457 0.0 0.0 -6.168228499999997 10.683685154694365 0.0 0.0 0.0 15.0" Properties=species:S:1:pos:R:3:initial_magmoms:R:1:forces:R:3 energy=-448.9088238603212 free_energy=-448.9088238603212 stress="0.005456000630152282 4.281432437679096e-06 2.009734054514165e-06 4.281432437679096e-06 0.005464343158437251 -8.078497527922476e-08 2.009734054514165e-06 -8.078497527922476e-08 -5.764391975204782e-06" pbc="T T T"
C       -0.04784047       0.01211213       3.54874040       0.00000000      -0.00058926       0.00254724      -0.00670246
C       -1.26911474       2.16047746       3.55199356       0.00000000      -0.00542817      -0.00797589       0.00423725
C       -2.49494985       4.28270835       3.54847261       0.00000000      -0.00497542       0.00425069       0.01296847
C       -3.74472318       6.41437245       3.54023991       0.00000000       0.00462078       0.00475406       0.01638045
C       -4.98581880       8.55193893       3.54515313       0.00000000       0.00301278       0.00298359      -0.00674327
C        2.42421702       0.01866450       3.54554990       0.00000000      -0.00819705       0.00241471      -0.00413268
C        1.19847557       2.16642602       3.54639962       0.00000000      -0.00026746      -0.00085056       0.01586581
C        0.01981801       4.31983719       3.55649019       0.00000000       0.00004339       0.00140163      -0.00827276
C       -1.25622898       6.41716840       3.54583568       0.00000000      -0.00138304      -0.00067407       0.00089668
C       -2.50284359       8.55256507       3.54258543       0.00000000      -0.00774504      -0.00893004       0.00385071
C        4.89575810       0.01276731       3.54871309       0.00000000      -0.00008423      -0.00016914      -0.00384975
C        3.64934552       2.16651708       3.55322193       0.00000000      -0.00107071       0.00175415       0.00100344
O        2.42378549       4.23215669       3.56720931       0.00000000      -0.00318610      -0.01310836      -0.00165021
O        1.14487947       6.44615160       3.54676074       0.00000000      -0.00237323      -0.00013988       0.00102041
C       -0.03078591       8.54020305       3.54304861       0.00000000       0.00236223      -0.00278960       0.00582101
C        7.36637456      -0.00359449       3.54787662       0.00000000       0.00721924       0.00457513       0.00791269
C        6.11691415       2.16062572       3.55442162       0.00000000       0.00546815      -0.00133917       0.00304209
C        4.82726900       4.32027958       3.56490280       0.00000000       0.00734160      -0.00831852      -0.00667784
O        3.70254174       6.44622562       3.56617178       0.00000000      -0.01185094      -0.00475087      -0.00668103
C        2.42333529       8.48342669       3.54697924       0.00000000       0.00452405       0.01134473       0.00880073
C        9.81776328      -0.00388979       3.55075571       0.00000000      -0.00524649       0.00239418      -0.00298100
C        8.59223645       2.14677921       3.55257660       0.00000000      -0.00334084      -0.00690086      -0.00365237
C        7.34201007       4.28290924       3.55127786       0.00000000       0.00853094      -0.00162275       0.00520407
C        6.10337735       6.41703191       3.55242340       0.00000000       0.00498348       0.00067507      -0.00188992
C        4.87787515       8.53925663       3.54803782       0.00000000       0.00309826       0.01263217       0.00849829
C       -0.04318449       1.44406727       3.54868390       0.00000000       0.00127132      -0.00148268      -0.00049135
C       -1.23735314       3.59386704       3.55454297       0.00000000      -0.00354853      -0.00037355      -0.01568840
C       -2.50238107       5.70255812       3.54428994       0.00000000      -0.00037253       0.00552204      -0.00235794
C       -3.74429410       7.84063813       3.54128673       0.00000000      -0.00339024      -0.00194162       0.00361732
C       -4.98096521       9.98286987       3.54587438       0.00000000      -0.00376279      -0.00001912       0.00148748
C        2.42400804       1.44128074       3.54490843       0.00000000      -0.00192748       0.00366562       0.01703536
C        1.22494631       3.56388238       3.55697158       0.00000000      -0.00319815      -0.00402322      -0.00698322
C       -0.03287714       5.74152297       3.55138686       0.00000000      -0.00076305       0.00050912      -0.00391465
C       -1.27115395       7.84117897       3.54319096       0.00000000      -0.00264252      -0.00443819      -0.00185168
C       -2.50716332       9.98334653       3.54663307       0.00000000      -0.00801811      -0.00453325      -0.00901217
C        4.89101268       1.44434177       3.55233938       0.00000000       0.00044955       0.00518805       0.00075290
C        3.62261821       3.56395888       3.56389543       0.00000000      -0.00065967      -0.00288326      -0.00891104
C        1.16586744       7.81837653       3.54428811       0.00000000       0.00536134       0.00088191       0.00304839
C       -0.03521460       9.97652067       3.54626276       0.00000000       0.00873135       0.00133332      -0.00071326
C        7.35864167       1.43471653       3.55174593       0.00000000       0.00207693      -0.00208633      -0.00053466
C        6.08445951       3.59414593       3.55824671       0.00000000       0.01007867      -0.00433045      -0.00655723
C        4.88008157       5.74180704       3.56378909       0.00000000      -0.00117809      -0.00701342      -0.00973115
C        3.68087619       7.81811560       3.55242233       0.00000000       0.00014696       0.00461714      -0.00225480
C        2.42367535       9.93534641       3.54867629       0.00000000       0.00219662       0.00804311      -0.00371703
C        9.82583687       1.43458898       3.55169355       0.00000000      -0.00835500      -0.00750220       0.00170466
C        8.59186651       3.57088947       3.55090999       0.00000000      -0.00090508      -0.00572354      -0.00345214
C        7.34928725       5.70265268       3.54634572       0.00000000       0.01125555       0.00145099       0.00642788
C        6.11852224       7.84056988       3.54765348       0.00000000       0.00454193       0.00799198       0.00281129
C        4.88273766       9.97562853       3.54946141       0.00000000      -0.00306565       0.01287052      -0.00374081
Cd       1.81864047       5.32678562       9.02901888       0.00000000      -0.00125568       0.00017355       0.00277954
O        3.90167701       5.46284963      11.64895458       1.00000000      -0.00557412       0.00025811       0.00886281
O        3.98685641       5.41498338      10.39272360       1.00000000       0.00703957      -0.00031224      -0.01088490
