51
Lattice="12.336457 0.0 0.0 -6.168228499999997 10.683685154694365 0.0 0.0 0.0 15.0" Properties=species:S:1:pos:R:3:initial_magmoms:R:1:forces:R:3 energy=-429.3829710343017 free_energy=-429.3829710343017 stress="-0.0008913641794045104 0.0026904352185801164 -5.4387136599186265e-06 0.0026904352185801164 -0.0025491773407159725 -6.1688001582788696e-06 -5.4387136599186265e-06 -6.1688001582788696e-06 -2.2987655698831916e-05" pbc="T T T"
C       -0.04089652      -0.00373989       3.47561729       0.00000000       0.00333486      -0.00251455      -0.00135780
C       -1.24689395       2.16053372       3.30841546       0.00000000      -0.00676601       0.00278704      -0.00039530
C       -2.49809780       4.28846937       3.42954326       0.00000000      -0.00298031      -0.00212001       0.00402567
C       -3.74768440       6.41056209       3.60223951       0.00000000       0.00329259      -0.00867681       0.00513744
C       -4.99201743       8.53651929       3.64643668       0.00000000       0.00306637      -0.00229131      -0.00285635
C        2.42536093      -0.02928226       3.56335891       0.00000000      -0.00129542      -0.00196897       0.00398914
C        1.23722076       2.08984691       3.31112247       0.00000000      -0.00439307      -0.00771543       0.00273609
C       -0.07888786       4.37819927       3.13746505       0.00000000      -0.00168762       0.00243150       0.00423597
C       -1.29764495       6.43971544       3.39753279       0.00000000      -0.00298712      -0.00200448      -0.00119777
C       -2.51438372       8.54136215       3.52999832       0.00000000       0.00558074       0.00222468      -0.00066844
C        4.90152456      -0.01008173       3.59556660       0.00000000       0.00118776       0.00182559      -0.00023868
C        3.66201276       2.05101518       3.94838611       0.00000000      -0.00120894       0.00048241      -0.00318817
O        1.11498469       6.46435808       3.27932129       0.00000000      -0.00501546       0.00331246      -0.00805998
C       -0.04435175       8.54416059       3.45594563       0.00000000       0.00667951      -0.00168039       0.00546828
C        7.36654346      -0.00124923       3.50412517       0.00000000      -0.00184116       0.00820942       0.00775531
C        6.14608686       2.12798128       3.80231907       0.00000000      -0.00381410      -0.00151550       0.00107957
C        5.02416304       4.26637190       4.34379585       0.00000000       0.00314074      -0.00083553      -0.00437948
P        3.58020044       6.46901130       5.02035825       0.00000000      -0.00582677       0.00781548       0.00137718
C        2.39841239       8.52915994       3.61049155       0.00000000       0.00245048       0.00753076       0.00239259
C        9.83084505       0.00198192       3.46542408       0.00000000       0.00594389      -0.00640065       0.01331890
C        8.61012784       2.14395571       3.50593848       0.00000000       0.00043340       0.00027366      -0.00059385
C        7.38764900       4.27046240       3.75385910       0.00000000      -0.00150424      -0.00491445       0.00332619
C        6.16017959       6.41648112       3.98298531       0.00000000       0.00021431       0.00933444      -0.00041256
C        4.87800312       8.55333501       3.78748459       0.00000000      -0.00237057       0.00270721       0.00181102
C       -0.01924476       1.43496238       3.33380636       0.00000000      -0.00724353      -0.00077263      -0.00807302
C       -1.25186082       3.59522541       3.28066975       0.00000000      -0.00490386       0.00485637      -0.00379905
C       -2.51720430       5.70256404       3.46970556       0.00000000       0.00106110      -0.00685512      -0.00386112
C       -3.75436852       7.83164773       3.59238109       0.00000000       0.00527717      -0.00438828       0.00126979
C       -4.98645491       9.95736397       3.54470821       0.00000000       0.00131217      -0.00290573      -0.00520803
C        2.43985292       1.38664685       3.60299937       0.00000000      -0.00265386      -0.00427237       0.00664295
S        1.44524352       3.69901075       2.73396968       0.00000000       0.00746682       0.00147757       0.01449412
C       -0.09355562       5.77842202       3.25248320       0.00000000      -0.00327569       0.00319999      -0.00654858
C       -1.28851302       7.85061141       3.46027909       0.00000000       0.00436638      -0.00168381      -0.01051470
C       -2.50435104       9.96100053       3.56889577       0.00000000       0.00112251       0.00347532       0.00220426
C        4.90857419       1.41163646       3.78630042       0.00000000      -0.00133883       0.00081545      -0.00871398
S        3.58905644       3.48223208       4.90471433       0.00000000      -0.00233761      -0.00836180       0.01180989
C        1.15240318       7.83632849       3.47433416       0.00000000       0.00614032       0.00153335       0.00220937
C       -0.03107432       9.97222574       3.51468655       0.00000000       0.00175004       0.00121408      -0.00410044
C        7.36885478       1.43095224       3.58975795       0.00000000      -0.00242203       0.00776712       0.00472289
C        6.16769123       3.54114210       3.95695592       0.00000000      -0.00002881      -0.00485679       0.00188461
C        5.00663346       5.67916032       4.37495763       0.00000000      -0.00070798       0.00414030      -0.00643877
C        3.62580705       7.89190492       3.98557973       0.00000000      -0.00233971       0.00288724      -0.00109224
C        2.42084732       9.95863252       3.48855711       0.00000000      -0.00015447       0.00518743      -0.00700041
C        9.85129453       1.43893725       3.40464523       0.00000000      -0.00083725      -0.00724930      -0.00165810
C        8.60966669       3.56538352       3.55194376       0.00000000      -0.00249263      -0.00186255      -0.00302763
C        7.37367687       5.69557344       3.77045513       0.00000000      -0.00145097      -0.00335497      -0.00648224
C        6.11939511       7.83481860       3.82357864       0.00000000      -0.00245941       0.00755336      -0.00425656
C        4.89056051       9.97210635       3.54610976       0.00000000       0.00777017      -0.00597125      -0.00055485
Cd       3.09665267       6.71175122       7.50652887       0.00000000       0.00257428      -0.00039143      -0.01511701
O        3.32296342       5.11168266       9.98981365       1.00000000       0.00133148      -0.00719817       0.00769621
O        2.37250755       5.47146336       9.18697322       1.00000000       0.00084033       0.00972004       0.01020766
