51
Lattice="12.336457 0.0 0.0 -6.168228499999997 10.683685154694365 0.0 0.0 0.0 15.0" Properties=species:S:1:pos:R:3:initial_magmoms:R:1:forces:R:3 energy=-429.3281527282725 free_energy=-429.3281527282725 stress="-0.002802340593840067 -0.0028997079765928934 1.876435582570603e-05 -0.0028997079765928934 -0.0044039919389931535 5.407390126490929e-05 1.876435582570603e-05 5.407390126490929e-05 1.54094562642866e-05" pbc="T T T"
C       -0.02773358      -0.00598364       3.91667447       0.00000000      -0.00356318      -0.00041428       0.00438999
C       -1.27691695       2.13802176       3.99488338       0.00000000       0.00304400      -0.00250788      -0.00662495
C       -2.51547340       4.27376281       3.75386350       0.00000000      -0.00671656      -0.00450464      -0.00301146
C       -3.72420086       6.41405700       3.65621632       0.00000000       0.01218576      -0.00050339      -0.00992720
C       -4.95096160       8.54634852       3.74040230       0.00000000       0.00026848      -0.00711221       0.00369926
C        2.45242354      -0.04242499       3.81603949       0.00000000       0.00217958      -0.00161796      -0.00028597
C        1.22680252       2.06400720       4.17866414       0.00000000      -0.00954114       0.00029753       0.00222470
C       -0.07746404       4.31384829       3.83907022       0.00000000      -0.00604263       0.00394864      -0.00036523
C       -1.27949560       6.40636805       3.43806689       0.00000000       0.00358979       0.01100124      -0.00349390
C       -2.47030878       8.53126167       3.56729359       0.00000000       0.00124364      -0.00261715       0.01041195
C        4.91073268      -0.00537138       3.58667605       0.00000000       0.00057260       0.00038194       0.00531159
C        3.63432474       2.07373350       3.59727299       0.00000000      -0.00675668       0.00180434      -0.00562760
S        1.25495758       6.29632332       2.52593449       0.00000000      -0.00096469       0.00125030       0.00293864
C       -0.00647089       8.54276465       3.36813046       0.00000000      -0.00358984       0.00405488       0.00148267
C        7.37405395       0.00796226       3.59837974       0.00000000      -0.00004135      -0.00087955       0.00143767
C        6.11379631       2.16475927       3.57296016       0.00000000       0.00236842       0.00781149      -0.00439820
C        4.93672844       4.38551703       3.45642152       0.00000000      -0.00425215       0.00104968       0.01012208
O        3.77028562       6.48646984       3.61471458       0.00000000      -0.00031260      -0.00807953       0.00131549
C        2.47420193       8.54429975       3.46275603       0.00000000       0.00758371      -0.00486083      -0.00267049
C        9.83633837       0.00451089       3.78605289       0.00000000      -0.00357683       0.00579913      -0.00189296
C        8.58996169       2.14458883       3.76189096       0.00000000       0.01095485      -0.00723052      -0.00764191
C        7.35818765       4.28976387       3.66754291       0.00000000      -0.00311885       0.00724702       0.00109005
C        6.16734349       6.44742796       3.66439105       0.00000000      -0.00752264      -0.00369597       0.00719444
C        4.91619234       8.55764607       3.69092658       0.00000000       0.00121992       0.00753542       0.00397934
C       -0.03056926       1.41823432       4.06539711       0.00000000      -0.00437345      -0.00462460      -0.00722310
C       -1.28722834       3.56159321       3.89126567       0.00000000      -0.00487415      -0.00172366      -0.00056840
C       -2.50625149       5.69369910       3.62484944       0.00000000       0.01137103       0.00132044       0.00247957
C       -3.71218283       7.83287177       3.65253435       0.00000000       0.00494400      -0.00562617      -0.00196461
C       -4.95927124       9.96062171       3.83911700       0.00000000       0.00241745      -0.00525447       0.00160211
C        2.44241735       1.36973474       3.90656275       0.00000000      -0.01159952       0.00237591      -0.00579312
P        1.35136774       3.73723537       4.70431391       0.00000000       0.00026579      -0.00838350      -0.00144481
C       -0.10334834       5.64184151       3.35198352       0.00000000      -0.00382523       0.00599047      -0.00407639
C       -1.24494668       7.82411970       3.40663233       0.00000000      -0.00073996       0.00823351       0.00489141
C       -2.47910102       9.95389638       3.64711869       0.00000000       0.00359982      -0.00338183      -0.00262115
C        4.89068472       1.43550873       3.57192204       0.00000000      -0.00278869       0.00666122       0.00174655
S        3.39512985       3.71112474       3.09373865       0.00000000       0.01911954       0.00188412      -0.00388877
C        1.23400147       7.88939752       3.19392907       0.00000000      -0.00229978       0.00406707       0.00643540
C       -0.01852831       9.97531937       3.51815081       0.00000000      -0.00261626      -0.00067316       0.01080323
C        7.35021840       1.44472402       3.65155725       0.00000000       0.00776991      -0.00088011      -0.00574402
C        6.10915266       3.59881038       3.57150624       0.00000000      -0.00051718       0.00677973      -0.00415838
C        4.96437907       5.78390455       3.56767457       0.00000000      -0.00635112      -0.00413795       0.00234186
C        3.72520932       7.86630786       3.54913180       0.00000000       0.00878731      -0.00681834       0.01313591
C        2.44776231       9.97099558       3.62821577       0.00000000       0.00102532      -0.00152776       0.00133540
C        9.82914499       1.43338699       3.86386091       0.00000000       0.00997344       0.00134922      -0.00030911
C        8.58915909       3.56634340       3.74346056       0.00000000      -0.00561426      -0.00638842      -0.00433501
C        7.38089595       5.70420135       3.67665119       0.00000000       0.00193519       0.00749020      -0.00455974
C        6.15990094       7.85805553       3.71243723       0.00000000      -0.00496337      -0.00220680      -0.00116873
C        4.90352844       9.98315511       3.80410804       0.00000000      -0.00764888       0.01140297      -0.00173475
Cd       2.16687447       4.89650804       6.77063116       0.00000000      -0.00165812       0.00081260      -0.01056728
O        2.61824626       4.29595232       9.62324638       1.00000000      -0.01060442      -0.01327131      -0.00912726
O        3.32367008       4.65146044       8.59445797       1.00000000       0.01005398      -0.00162708       0.01485516
