50
Lattice="12.336457 0.0 0.0 -6.168228499999997 10.683685154694365 0.0 0.0 0.0 15.0" Properties=species:S:1:pos:R:3:forces:R:3 energy=-423.62813699016624 free_energy=-423.62813699016624 stress="-0.0029266587778900427 -0.002767708904818355 -2.0650284965518074e-06 -0.002767708904818355 -0.004897407772671899 -2.1229342352455016e-05 -2.0650284965518074e-06 -2.1229342352455016e-05 -6.622331315113427e-06" pbc="T T T"
C        0.00411605      -0.01483274       3.93589489       0.00019034      -0.00355561      -0.00193052
C       -1.24246954       2.13289888       3.98167150      -0.00342402      -0.00579212      -0.00112126
C       -2.48221104       4.26601184       3.74890523       0.00137928       0.00680845       0.00159515
C       -3.69135817       6.40510525       3.69111352      -0.00365647       0.00395268      -0.00295238
C       -4.91890802       8.53559561       3.79452655      -0.00652416      -0.00635522      -0.00470233
C        2.48345994      -0.05319587       3.82534143      -0.00437390       0.00794106      -0.00314128
C        1.25887306       2.06031632       4.12925777      -0.00266967       0.00547483       0.00780040
C       -0.04153644       4.30614587       3.77972952      -0.00408075      -0.00442736       0.00724927
C       -1.24934422       6.40100692       3.42721002       0.00179720      -0.00309100       0.00523409
C       -2.43901164       8.52208898       3.60142027       0.00886052       0.00553501      -0.00306175
C        4.94251502      -0.01345625       3.62190532       0.00397941       0.00333946      -0.00212476
C        3.66844576       2.06569081       3.59456920       0.00217339       0.00048279       0.00182881
S        1.29251356       6.31558604       2.51216487      -0.00483130       0.00579512       0.00144966
C        0.02481093       8.53728158       3.40557366       0.00910694      -0.00683510       0.00283927
C        7.40566190       0.00000193       3.65053631       0.00351613       0.00036647      -0.00589072
C        6.14688144       2.15733017       3.61218921       0.00278235       0.00234411       0.00070155
C        4.96667943       4.37878696       3.51895434      -0.00215582      -0.00920583       0.00946155
O        3.79628920       6.47452198       3.68171167       0.00421466       0.01002406      -0.00147621
C        2.50549500       8.53534702       3.52389539       0.00067005      -0.00108907      -0.00090017
C        9.86812309      -0.00280912       3.82772399      -0.00030822      -0.00582683      -0.00243574
C        8.62283794       2.13697342       3.79012000       0.00382214       0.00431648      -0.00934686
C        7.39029366       4.28208287       3.71356192       0.00422831       0.00022003      -0.00367604
C        6.19805816       6.43755059       3.75080983      -0.00746996      -0.00628168      -0.00439781
C        4.94654763       8.54682584       3.76441373      -0.00429772       0.00459366      -0.00150799
C        0.00282620       1.41273634       4.04656865       0.00013594      -0.00291315      -0.00170777
C       -1.25036160       3.55541185       3.86081834      -0.00484712      -0.00288507       0.00108030
C       -2.47369580       5.68604863       3.62726750      -0.00231652       0.00579096       0.00142599
C       -3.68025188       7.82317812       3.69485244       0.00349467       0.00400178      -0.00119888
C       -4.92765318       9.95076880       3.86702313      -0.00206711      -0.00450214      -0.00209252
C        2.47221503       1.36083079       3.88197284      -0.00182894       0.00904500       0.00217526
P        1.40532608       3.73821434       4.63419338      -0.00896622      -0.00204801      -0.00077773
C       -0.07325352       5.63994954       3.31293044       0.00000331      -0.00520906       0.00696115
C       -1.21415703       7.81858169       3.42814064       0.00946063      -0.00276710       0.00145144
C       -2.44681453       9.94406254       3.67598413       0.00049106       0.00884298      -0.00365282
C        4.92380049       1.42772039       3.59777039       0.00336300       0.00253000      -0.00225718
S        3.43611148       3.70876300       3.09972137      -0.00291365      -0.00820269       0.00368868
C        1.26750133       7.88626988       3.23100882       0.00697165      -0.00844110       0.00700780
C        0.01301937       9.96778745       3.56684276       0.00479758      -0.00358799      -0.00346482
C        7.38251063       1.43680179       3.69448549       0.00417266       0.00426519      -0.00867990
C        6.14084495       3.59144387       3.62132198       0.00318653      -0.00026297       0.00576301
C        4.99356054       5.77506263       3.65035750      -0.00697009      -0.00680124       0.00223103
C        3.75521988       7.85485191       3.62180086      -0.00234840       0.00623159       0.00302566
C        2.47881988       9.96272471       3.68494592       0.00167510      -0.00403625      -0.00403517
C        9.86272839       1.42708772       3.88294362      -0.00222380      -0.00566135      -0.00407569
C        8.62209782       3.55841851       3.76524100       0.00557936       0.00532937      -0.00218257
C        7.41333957       5.69620090       3.73447298      -0.00333330      -0.00091013      -0.00247778
C        6.19108148       7.84784300       3.78956560      -0.01123063      -0.00495676      -0.00318765
C        4.93426063       9.97413457       3.84907572      -0.00104506      -0.00112703       0.00558092
Cd       2.03279532       4.52692038       7.01184429      -0.00154517       0.00596916       0.01284114
O        2.35459080       4.97607198       8.87729805       0.00537579       0.00357159      -0.00293578
