49
Lattice="12.336457 0.0 0.0 -6.168228499999997 10.683685154694365 0.0 0.0 0.0 15.0" Properties=species:S:1:pos:R:3:forces:R:3 energy=-419.43344091304033 free_energy=-419.43344091304033 stress="-0.0008427599153956002 0.0029972930498257788 -1.959370881721473e-05 0.0029972930498257788 -0.0027061027914776245 -1.8005672516881466e-05 -1.959370881721473e-05 -1.8005672516881466e-05 1.759238042187219e-06" pbc="T T T"
C       -0.00488657      -0.03880988       3.54273930      -0.00106760       0.00467971       0.00623566
C       -1.20912963       2.12643810       3.37755477       0.00275318      -0.00220830       0.00059479
C       -2.46543067       4.25361204       3.46668509      -0.00338879      -0.00022162      -0.00143858
C       -3.71709209       6.37416806       3.63368710      -0.01021313      -0.00400271      -0.00959949
C       -4.95947272       8.49878004       3.69478932       0.00102100      -0.00559599      -0.01122795
C        2.46088439      -0.06723920       3.63546929      -0.00359857      -0.00192134       0.00723068
C        1.27604073       2.05543701       3.44180877       0.00442341       0.00328923      -0.00095749
C       -0.04555231       4.34535073       3.20715421       0.00387153      -0.00835559       0.00305617
C       -1.27062692       6.40779200       3.39197256      -0.00229536      -0.00211079      -0.00128712
C       -2.48272493       8.50632946       3.54054480       0.00190463       0.00140743       0.00437165
C        4.93772145      -0.04690610       3.62158231      -0.00225028       0.00098657      -0.00165985
C        3.70729012       2.00256279       4.05480999      -0.01119266       0.00200077      -0.00524385
O        1.14486764       6.42813698       3.32799819       0.00566345      -0.00227720      -0.00990929
C       -0.01276730       8.51104548       3.43234350      -0.00248209       0.01048346       0.01131814
C        7.40183538      -0.03638513       3.51501008       0.00228550       0.00627863       0.00266010
C        6.18573145       2.08864998       3.85681826      -0.00607776      -0.00350709      -0.00789056
C        5.06586073       4.22118626       4.42422029       0.00356758       0.00869042       0.00265647
P        3.60963084       6.44987654       5.02629830      -0.01394127       0.00250075       0.00301287
C        2.43052726       8.49550665       3.59719715      -0.00339455      -0.00590901       0.01463236
C        9.86762510      -0.03371360       3.49851138      -0.00162353      -0.00724716       0.00320389
C        8.64678965       2.10784567       3.54730204      -0.00076436       0.00503462      -0.00257339
C        7.42220580       4.23318559       3.80344444      -0.00386547       0.00025252      -0.00354315
C        6.19044550       6.37790506       4.03032666       0.00561658       0.00213036      -0.00554954
C        4.91197979       8.51568739       3.81645000       0.01055324       0.00061635       0.00041159
C        0.01863041       1.40211488       3.42466903       0.00290110       0.00252420      -0.01276558
C       -1.21703737       3.56079459       3.33687089      -0.00111436      -0.00407265       0.00199113
C       -2.48736926       5.66779574       3.48861028      -0.00741157      -0.00144432      -0.00309742
C       -3.72254055       7.79540590       3.62334295       0.00059694      -0.00491194      -0.00442612
C       -4.95186807       9.92058659       3.60863066      -0.00398307      -0.00210711      -0.00728693
C        2.47795753       1.34607654       3.71636834      -0.00091463       0.00247802       0.00171023
S        1.50907406       3.68167957       2.93373627       0.01094958      -0.00723832      -0.00019777
C       -0.06549622       5.74631389       3.27980235      -0.00010081      -0.00533356      -0.00923375
C       -1.25843560       7.81821500       3.44240743       0.00207387       0.00170090       0.00975961
C       -2.46929561       9.92444111       3.60277602      -0.00169689       0.00153900       0.00160083
C        4.94882948       1.37047521       3.84455681      -0.00836647      -0.01149628       0.00440991
S        3.67295731       3.41074688       5.05195566      -0.00237817       0.00530839       0.00230369
C        1.18452238       7.80578366       3.46421527      -0.00332097       0.00219275       0.00215279
C        0.00343982       9.93736689       3.51101230       0.00210619       0.00948034       0.00870393
C        7.40551681       1.39432045       3.62372968      -0.00182458       0.00693497       0.01137554
C        6.20631303       3.50130831       4.02135903       0.00650670      -0.00158991      -0.00410975
C        5.03484332       5.63886668       4.42874350       0.00759040       0.00359970      -0.00295012
C        3.65513154       7.84946616       3.98098731       0.01073095       0.00550638       0.00926326
C        2.45631169       9.92396804       3.49443756      -0.00436987      -0.00618789       0.00575626
C        9.88859912       1.40341208       3.45123156       0.00115921      -0.00477965       0.00010110
C        8.64412072       3.52917856       3.59518997      -0.00449379       0.00514412      -0.00156730
C        7.40494527       5.65890405       3.81504524      -0.00443608      -0.00058789       0.00408122
C        6.14942613       7.79532676       3.86830285       0.00473965      -0.00280333      -0.01627040
C        4.92628824       9.93544371       3.58817148       0.00306301      -0.00055749       0.00097550
Cd       2.37077644       6.38411594       7.27384932       0.01648900       0.00170753      -0.00078398
