50
Lattice="12.336457 0.0 0.0 -6.168228499999997 10.683685154694365 0.0 0.0 0.0 15.0" Properties=species:S:1:pos:R:3:forces:R:3 energy=-439.03562519680867 free_energy=-439.03562519680867 stress="0.005154227082725462 -7.4851496908199365e-06 1.3247549520065047e-05 -7.4851496908199365e-06 0.005136405322295514 -9.758742074246563e-06 1.3247549520065047e-05 -9.758742074246563e-06 -1.9760298665286726e-06" pbc="T T T"
C       -0.00788402       0.00188649       3.67860905      -0.01440565       0.00861464       0.00910854
C       -1.23006006       2.15000248       3.66794040       0.00684994       0.00391993       0.00549249
C       -2.45561972       4.27253357       3.66935176       0.01178273       0.00852788       0.00092181
C       -3.70431612       6.40505092       3.67896875       0.00180888      -0.01369817      -0.00045839
C       -4.94587231       8.54207390       3.68791005      -0.00445542      -0.00079749      -0.00400575
C        2.46332005       0.00843150       3.68821181       0.00553138       0.00342881      -0.00993488
C        1.23719939       2.15457879       3.68053451       0.00270575       0.00028479      -0.00729029
C        0.05859771       4.30901732       3.67746373      -0.01341181      -0.00516621       0.00943726
C       -1.21707056       6.40717557       3.67998230      -0.00131437       0.00280854      -0.00165881
C       -2.46336969       8.54228748       3.68527235       0.00926244      -0.00130511      -0.00090052
C        4.93499471       0.00241030       3.67852760       0.01380395       0.00144594       0.00599540
C        3.68985945       2.15441700       3.67929465       0.00003016       0.00005350       0.00024190
O        2.46401014       4.21065075       3.71167743      -0.00487438       0.00119102       0.00822391
O        1.17710623       6.44073145       3.73803940      -0.00884673       0.00512786      -0.00968778
C        0.00901646       8.53121016       3.68187763      -0.00669658      -0.00027444      -0.00545422
C        7.40633428      -0.01239883       3.67052767      -0.00300487      -0.01842761       0.00064646
C        6.15742480       2.15046746       3.67110204      -0.00901326      -0.00168286      -0.00114478
C        4.86934142       4.30873812       3.67526638       0.00759231      -0.00108834       0.00289518
O        3.75152360       6.44093894       3.71654483      -0.00143357       0.00280996       0.00519419
C        2.46345351       8.47552020       3.68099850       0.00248811       0.00867157       0.00928134
C        9.85726816      -0.01315779       3.66893699       0.00189915      -0.00720034       0.00250642
C        8.63201819       2.13657157       3.66437046      -0.00087090       0.00282522       0.00340551
C        7.38297126       4.27266107       3.67072054      -0.00328132       0.00629113       0.00107126
C        6.14546675       6.40721489       3.68194396      -0.00245432       0.00010659      -0.00645661
C        4.91853971       8.53112495       3.68313327       0.00330085      -0.00109118      -0.00996235
C       -0.00450554       1.43317085       3.67594229       0.00410238       0.00569161      -0.00683716
C       -1.19782699       3.58370245       3.66938570      -0.00079333      -0.00221059       0.00360253
C       -2.46314426       5.69237826       3.67479652       0.00879100       0.00218582       0.00187434
C       -3.70453332       7.83104108       3.68523530       0.00177107      -0.01060604       0.00072933
C       -4.94120751       9.97253493       3.68749321      -0.01058764       0.00839103      -0.00739682
C        2.46337612       1.43023834       3.68363655       0.00301966      -0.00003276       0.00116507
C        1.26295439       3.54951163       3.68273095      -0.00994400      -0.00365213       0.00065929
C        0.00366254       5.73191493       3.69007574      -0.00507126      -0.00446312      -0.00040108
C       -1.23164081       7.83149563       3.68295874       0.00234968      -0.00270339       0.00087752
C       -2.46832270       9.97284090       3.68647443       0.01522962       0.00654705      -0.00832573
C        4.93173151       1.43365174       3.67630736      -0.00432080      -0.00075792      -0.00434457
C        3.66481096       3.54909172       3.68218873       0.00454564      -0.00222370      -0.00711081
C        1.20405667       7.81149904       3.69285642       0.00021775       0.00744720      -0.00276976
C        0.00479762       9.96783183       3.67524099      -0.00174845      -0.01254437       0.00626114
C        7.39880796       1.42526626       3.66759269      -0.00720635      -0.01112570       0.00114771
C        6.12537924       3.58383321       3.67102657       0.00229208      -0.00134078       0.00009578
C        4.92496456       5.73166931       3.68349368       0.00198827       0.00139171       0.00059823
C        3.72322577       7.81171723       3.68677841       0.00343207       0.00772289       0.00068770
C        2.46340664       9.92626553       3.67165533       0.00309691      -0.00242769       0.00220374
C        9.86500810       1.42457835       3.66445552       0.00677782      -0.00209544       0.00904322
C        8.63185046       3.56020486       3.66701861       0.00371827       0.01342336       0.00097552
C        7.39094707       5.69241477       3.67672489      -0.00546056       0.00119781      -0.00043503
C        6.15916822       7.83137219       3.68652579      -0.00080636      -0.00291454      -0.00565050
C        4.92245575       9.96719073       3.67557946      -0.00147741      -0.00534031       0.00456638
Cd       2.59460340       5.59915190       7.34727931      -0.00690851       0.00506437       0.00131666
