50
Lattice="12.336457 0.0 0.0 -6.168228499999997 10.683685154694365 0.0 0.0 0.0 15.0" Properties=species:S:1:pos:R:3:forces:R:3 energy=-423.6695286195177 free_energy=-423.6695286195177 stress="-0.0009408555244169582 0.0030761346139851907 -3.3474127743160666e-05 0.0030761346139851907 -0.0028927297985700913 -3.664426028227583e-05 -3.3474127743160666e-05 -3.664426028227583e-05 -1.250106967107775e-05" pbc="T T T"
C       -0.00837635      -0.04253497       3.53397888       0.00261732       0.00669367       0.00350687
C       -1.21209416       2.12222442       3.36288301      -0.00329312       0.00850074      -0.00256849
C       -2.46839857       4.25068384       3.44643764       0.00077367      -0.00522991      -0.00489931
C       -3.72057722       6.37124452       3.61150299       0.00471037       0.00137034      -0.00109312
C       -4.96237473       8.49590332       3.67941540      -0.00262001      -0.00007424       0.00021876
C        2.45759498      -0.06988012       3.63800672      -0.01005699       0.00684001      -0.00395112
C        1.27284330       2.05154103       3.42399017       0.00428045       0.00476540      -0.00637699
C       -0.04932776       4.34090122       3.17733711       0.01086403       0.01207534      -0.00017290
C       -1.27397171       6.40532423       3.37554760       0.00012492      -0.00904603      -0.00136218
C       -2.48547373       8.50409696       3.54279036      -0.00158618      -0.00721851      -0.00071178
C        4.93438632      -0.04911972       3.63648517      -0.00937493      -0.00463967      -0.00068684
C        3.70137305       2.00311850       4.05075421       0.00381106       0.00865266      -0.00617005
O        1.13950312       6.42978836       3.26777812       0.01037025      -0.01200738       0.00859872
C       -0.01602353       8.50855457       3.44655976       0.00331695       0.00056763       0.00306036
C        7.39821787      -0.03898445       3.52698412       0.00643868       0.01076417      -0.00023850
C        6.18257876       2.08624408       3.85413553      -0.00680671      -0.00792852      -0.00201897
C        5.06395172       4.22222850       4.40128167       0.00079760      -0.00652129      -0.00029926
P        3.57763505       6.40824852       4.98974071       0.00516125       0.00832977      -0.01207219
C        2.42753310       8.49238463       3.60929413      -0.00509662      -0.00919337      -0.00020476
C        9.86388645      -0.03628760       3.50035084       0.00321971      -0.00332811      -0.00225224
C        8.64416581       2.10508861       3.54081384      -0.00882244       0.00014235      -0.00268331
C        7.41951547       4.23057789       3.78241605       0.00476985      -0.00257788       0.00231159
C        6.18734711       6.37490269       4.00487707      -0.00317728      -0.00131857       0.00183082
C        4.90659043       8.51162684       3.81265647      -0.00092448       0.00090735       0.00056433
C        0.01551408       1.39761207       3.40871435      -0.00052092       0.00859656       0.00458570
C       -1.22044925       3.55660183       3.31683351       0.00744191       0.01077526      -0.00444836
C       -2.49059889       5.66513740       3.46776476      -0.00038540      -0.00793345      -0.00211734
C       -3.72546443       7.79242086       3.60992232      -0.00157204      -0.00001647      -0.00130399
C       -4.95478055       9.91785201       3.60129089      -0.00513834       0.00070647      -0.00235529
C        2.47342613       1.34409602       3.71232852       0.00340480       0.00912965      -0.00292700
S        1.50184013       3.67119209       2.89013549       0.00035699      -0.00184260      -0.00501135
C       -0.06970157       5.74343612       3.24562792       0.00777122       0.00329463       0.00614026
C       -1.26151178       7.81564339       3.44514713       0.00230237      -0.00870298      -0.00150220
C       -2.47220566       9.92205918       3.61294190      -0.01414229      -0.00419634      -0.00198028
C        4.94455337       1.36897661       3.85140276      -0.00515088      -0.00532915      -0.00524560
S        3.65968830       3.42673696       5.02383325      -0.01005381      -0.01328878       0.01076378
C        1.18084813       7.80156783       3.46371496      -0.00144634      -0.01008672       0.00651819
C       -0.00008852       9.93482495       3.52925864       0.00356738       0.00917518       0.00313639
C        7.40293277       1.39170423       3.62644751      -0.00501365       0.00556782       0.00286365
C        6.20502164       3.49903989       4.00541697       0.00256911      -0.00710311      -0.00172553
C        5.03530423       5.63576347       4.40173865      -0.00873443      -0.00498883       0.00211542
C        3.65160643       7.84995282       3.98620193      -0.00342071       0.00039122       0.00595717
C        2.45246207       9.92201597       3.50407720       0.00244483      -0.00335865       0.00121448
C        9.88574159       1.40038424       3.44560145      -0.00816255       0.00047801      -0.00143970
C        8.64159090       3.52656199       3.57827902      -0.00031992      -0.00429854       0.00022347
C        7.40218413       5.65555968       3.78998742       0.00277885       0.00263118       0.00034748
C        6.14709020       7.79291865       3.84864485      -0.00220774       0.00008786       0.00359804
C        4.92231517       9.93288467       3.58542863       0.00705372       0.00024849       0.00263486
Cd       2.84554395       6.48046516       7.48193899       0.00042725       0.00990432       0.01021054
O        2.09480240       6.43938109       9.27987228       0.01665325       0.00963300      -0.00258225
