50
Lattice="12.336457 0.0 0.0 -6.168228499999997 10.683685154694365 0.0 0.0 0.0 15.0" Properties=species:S:1:pos:R:3:forces:R:3 energy=-434.0317719503776 free_energy=-434.0317719503776 stress="-0.006398351785406197 -0.0020628840515161894 -2.3924019689254228e-05 -0.0020628840515161894 -0.004248876382511814 -2.8550001679297465e-05 -2.3924019689254228e-05 -2.8550001679297465e-05 4.5285382106857973e-07" pbc="T T T"
C       -0.01508552      -0.00628702       3.55558495      -0.00002704      -0.00065569      -0.00867587
C       -1.27427315       2.10535381       3.39447689      -0.00338003      -0.00066824      -0.00216450
C       -2.51722566       4.25728586       3.51885765       0.00736466      -0.00005111      -0.00219402
C       -3.72272698       6.40175824       3.69575177      -0.00313681      -0.00363650       0.00340650
C       -4.94616836       8.54482190       3.74909047      -0.00119689      -0.00334559       0.00341275
C        2.45420325      -0.00500387       3.48747532      -0.00395172      -0.00138709       0.00660816
C        1.20437955       2.11474870       3.25412226      -0.00859558      -0.00685101      -0.00125887
C       -0.09023967       4.21599936       3.35915775      -0.00306999      -0.00634442       0.00555442
C       -1.26345144       6.38555234       3.68890858       0.00886775       0.00253986       0.01010693
C       -2.47485499       8.53432334       3.65503171       0.00686724       0.00530810       0.00613959
C        4.91907393      -0.00847289       3.56516158       0.00210855       0.00632535       0.00734231
C        3.68211040       2.14501231       3.42103434       0.00756547      -0.00689498      -0.00523498
P        2.46329163       4.59798928       2.73165813       0.00494106      -0.00302833      -0.00821384
P        1.43299346       6.18316972       4.37157472      -0.00246789       0.01058094      -0.00525846
C       -0.00539484       8.53473928       3.77590121      -0.00046847       0.00778889      -0.00312123
C        7.38014651      -0.00155140       3.62732254      -0.00418047       0.00040952       0.00997708
C        6.14647884       2.12571403       3.58389972       0.00300352       0.00480484       0.00264536
C        4.93981460       4.25531758       3.79330306      -0.00689898       0.00097948      -0.00315882
P        3.67898793       6.39149800       5.15183070       0.00160145      -0.00630681      -0.00014893
C        2.47033458       8.61512191       4.01793488      -0.00440579      -0.00035180       0.00235995
C        9.85691936       0.00330411       3.64148251       0.00290855      -0.00219869       0.00709375
C        8.60470974       2.12496645       3.53272327       0.00005242       0.00066344      -0.00452010
C        7.38196123       4.26545447       3.68949522      -0.00523736      -0.00644916      -0.00031109
C        6.16711564       6.40508084       3.99202525      -0.00322457      -0.00149306       0.00373484
C        4.94291153       8.58325715       4.02255285       0.00176732       0.00332518      -0.00211578
C       -0.03097948       1.40162502       3.37895472      -0.00683969      -0.00093624      -0.00162897
C       -1.30863441       3.52205987       3.38763419       0.00270739      -0.00231061      -0.00823427
C       -2.50308169       5.68181941       3.61408931       0.00583786       0.00119787       0.00808537
C       -3.71282623       7.82854072       3.70002079       0.00284530       0.00014170      -0.00110980
C       -4.94538553       9.96644190       3.59446010      -0.00504029      -0.00463383      -0.00863782
C        2.45121399       1.41601088       3.34931106       0.00020025      -0.00397716      -0.00683051
C        1.13358140       3.52138850       3.14320253      -0.00934356      -0.00603785       0.00323756
C       -0.07824051       5.60511351       3.69353056       0.00749321       0.00068907       0.00158193
C       -1.24341228       7.81661326       3.72410517       0.00719457       0.00386074       0.00581653
C       -2.48098944       9.96088817       3.56778765       0.00241422       0.00641231       0.00397175
C        4.91400154       1.41714668       3.52676603       0.00948976       0.00200947      -0.00181242
C        3.73204950       3.56848292       3.44626581      -0.00131327      -0.00325127      -0.00252552
C        1.24628667       7.88856065       3.98161466      -0.00908919       0.00733129       0.00416801
C       -0.01646950       9.96335152       3.65244266      -0.00262904       0.00345793      -0.00112722
C        7.37597472       1.41571144       3.56912205      -0.00119081       0.00252709      -0.00650222
C        6.15976147       3.54541712       3.69265588      -0.01002318       0.00206328       0.00063152
C        4.98066273       5.64451194       4.17217818      -0.00001882      -0.00000864      -0.00813368
C        3.70838593       7.97094557       4.33109890       0.00204571       0.00287821      -0.00129140
C        2.45513406       9.99826227       3.73651724      -0.00256141      -0.00340823       0.01109083
C        9.83782095       1.40985511       3.50003895      -0.00037494      -0.00101277       0.00455277
C        8.59890096       3.54855579       3.56592839       0.00324621       0.00004489      -0.00336389
C        7.38695817       5.69094779       3.77710749      -0.00685371      -0.00622894      -0.00132761
C        6.17102710       7.84346493       3.96063136      -0.00143196      -0.00116555       0.00272873
C        4.92771507       9.98277082       3.72903857       0.00409017      -0.00283991      -0.01359517
Cd       3.14281237       5.79706665       7.63979970       0.01233887       0.01013402      -0.00174964
