51
Lattice="12.336457 0.0 0.0 -6.168228499999997 10.683685154694365 0.0 0.0 0.0 15.0" Properties=species:S:1:pos:R:3:forces:R:3 energy=-438.2665042074818 free_energy=-438.2665042074818 stress="-0.006193508636735107 -0.0020985250526102265 -4.015634480271117e-05 -0.0020985250526102265 -0.004360647832615066 -2.4874096271245868e-05 -4.015634480271117e-05 -2.4874096271245868e-05 2.664943331646784e-05" pbc="T T T"
C       -0.01713229      -0.00935440       3.54529474      -0.00897546      -0.00229043       0.00292927
C       -1.27683734       2.10324625       3.38977394      -0.00189749       0.00295504      -0.00605120
C       -2.51846582       4.25642336       3.52239653       0.00134642      -0.00406900      -0.00018383
C       -3.72418037       6.40037703       3.70086385      -0.00237946      -0.00402939       0.00822947
C       -4.94839579       8.54202793       3.75026432      -0.00123434       0.00507673       0.00200329
C        2.45174490      -0.00748019       3.48239817       0.00250768      -0.00729376      -0.00328768
C        1.20041133       2.11081543       3.23135917      -0.00189824      -0.00900323       0.00407046
C       -0.09195136       4.21165575       3.35289535      -0.00431547       0.00053743       0.00080293
C       -1.26323050       6.38352425       3.70176941      -0.00012001       0.00052422      -0.00582052
C       -2.47535387       8.53342573       3.66854865      -0.00594515       0.00140546      -0.00550329
C        4.91699089      -0.00812293       3.56986492      -0.00708605      -0.00423498      -0.00409254
C        3.67877053       2.14239861       3.39785795       0.00257186      -0.00740658       0.00308155
P        2.46002629       4.58566459       2.68036105       0.00317683      -0.00444798      -0.00361941
P        1.45265179       6.17876190       4.30723102       0.00879514       0.01195406       0.01303221
C       -0.00705354       8.53601662       3.78555786      -0.00868264       0.00452003       0.00050643
C        7.37740836       0.00074742       3.63817390      -0.00445109      -0.00130490      -0.00259758
C        6.14322570       2.12652357       3.56960013       0.00046092      -0.00612041       0.00433875
C        4.93298770       4.25530647       3.76662149       0.00990930       0.00472962      -0.00087000
P        3.65202910       6.37418531       5.12103858      -0.01029270      -0.00358337       0.01552406
C        2.46991959       8.61924274       4.02849181       0.00275348       0.00858889       0.00084867
C        9.85538576       0.00403060       3.64662389      -0.00365959       0.00618588       0.00319129
C        8.60217511       2.12513871       3.52886662       0.00279803       0.00324897       0.00170680
C        7.37825950       4.26514234       3.67718068       0.00233502      -0.00431526       0.00268463
C        6.16108880       6.40153816       3.98462208       0.00173075       0.00346358      -0.00117198
C        4.93942739       8.58248702       4.02475293       0.00701594       0.00051153      -0.00398815
C       -0.03400585       1.39842540       3.36597389      -0.00605711      -0.00484629      -0.00135703
C       -1.31073662       3.51974286       3.38731816      -0.00255362      -0.00030929      -0.00524188
C       -2.50336402       5.68074939       3.62465300      -0.00018598      -0.00464766       0.00224778
C       -3.71362715       7.82689015       3.70728163      -0.00492969       0.00146569       0.00497895
C       -4.94768668       9.96309838       3.58813612      -0.00337441       0.00273860       0.00176326
C        2.44793484       1.41226172       3.32903830       0.00168219      -0.01027475       0.00307834
C        1.12831404       3.51728522       3.11581105      -0.00213105      -0.00390360       0.01220185
C       -0.07795457       5.60008025       3.69362244       0.00750449       0.00614024      -0.00924308
C       -1.24324227       7.81533715       3.73756489      -0.00819000       0.00262391      -0.00445376
C       -2.48265633       9.96014409       3.57548876      -0.00161258      -0.00435803      -0.00995030
C        4.91139867       1.41674184       3.51427303      -0.00187029      -0.00732178       0.00645905
C        3.72669199       3.56590154       3.41667365       0.01287398      -0.00146944      -0.00857054
C        1.24696035       7.89006374       3.98291663      -0.00187407       0.00907018       0.00095266
C       -0.01862731       9.96456252       3.66333017      -0.00906762       0.00192402      -0.00039230
C        7.37303271       1.41690767       3.56572227       0.00209874      -0.00162266       0.00182868
C        6.15519425       3.54594814       3.67133429       0.00388011      -0.00436457       0.00268046
C        4.97355217       5.63977520       4.15438118       0.00889846       0.00507909      -0.00057283
C        3.70488832       7.97337989       4.33751110       0.00695794       0.00848522      -0.01331148
C        2.45292232      10.00260098       3.75189148      -0.00208784       0.00487583      -0.00395696
C        9.83538066       1.40941590       3.50005577       0.00043095       0.00551484       0.00020219
C        8.59659463       3.54852488       3.56092907       0.00200581      -0.00029281      -0.00160913
C        7.38376540       5.68978783       3.77129109      -0.00146055      -0.00382140       0.00635668
C        6.16810616       7.84117224       3.96029091       0.00292641       0.00064576      -0.00712333
C        4.92591532       9.98165429       3.72652684      -0.00551623       0.00063312       0.00756577
Cd       3.29225181       5.96207063       7.67635346       0.01303995       0.00276984       0.00468510
O        3.12018684       5.71552840       9.59968076       0.00414829      -0.00033622      -0.01498179
