53
Lattice="12.336457 0.0 0.0 -6.168228499999997 10.683685154694365 0.0 0.0 0.0 15.0" Properties=species:S:1:pos:R:3:forces:R:3 energy=-448.2566545661443 free_energy=-448.2566545661443 stress="-0.006630158970992847 -0.0020161714403595663 2.720798801637142e-07 -0.0020161714403595663 -0.004512016765933248 -1.823857705666585e-05 2.720798801637142e-07 -1.823857705666585e-05 -2.3135400600815024e-05" pbc="T T T"
C       -0.02646113      -0.01179040       3.55729170      -0.00387245       0.00466449      -0.00383955
C       -1.28505640       2.10152386       3.40534458      -0.00223672      -0.00181983      -0.00296311
C       -2.52645425       4.25383968       3.54044036       0.00217650      -0.00246082      -0.00352920
C       -3.73240513       6.39777808       3.71579344       0.00028697      -0.00049472       0.00777647
C       -4.95720407       8.54007787       3.75916409       0.00063194       0.00149486      -0.00026864
C        2.44269602      -0.00878105       3.50823139       0.00411906      -0.00693317      -0.00426475
C        1.19337769       2.10998605       3.26594023      -0.00926544      -0.00348822      -0.00384859
C       -0.09984006       4.21213586       3.37996981      -0.00754196      -0.00232129       0.00197776
C       -1.27297354       6.38215578       3.72012210       0.00023399       0.00111864       0.00339699
C       -2.48567412       8.53139187       3.68849175       0.00524172       0.00319996      -0.00519283
C        4.90726557      -0.01061380       3.59649516       0.00190438      -0.00280369      -0.00259444
C        3.67118514       2.14045836       3.43371902      -0.00246877      -0.00229261      -0.00640443
P        2.45029204       4.59044708       2.73297389       0.01498808      -0.00407675      -0.00435911
P        1.42466988       6.18149149       4.38544749       0.00737535       0.00184365       0.00742685
C       -0.01736812       8.53340270       3.80711833      -0.01094466       0.00261385      -0.00019358
C        7.36821728      -0.00332333       3.65162717      -0.00353143      -0.00365860      -0.00006159
C        6.13577117       2.12268405       3.60252237      -0.00241677      -0.00112433      -0.00685534
C        4.92805420       4.25238056       3.79167105       0.00296533      -0.00182105       0.00403124
P        3.66279115       6.38368681       5.13905135      -0.01311944      -0.00339303       0.00655604
C        2.45908949       8.61208935       4.02824494       0.00235868       0.00579024       0.01002649
C        9.84527736      -0.00079099       3.64796120       0.00315440       0.00613639      -0.00206799
C        8.59427334       2.12173860       3.54991734       0.00393523       0.00028621      -0.00745254
C        7.37181310       4.26136652       3.70333883      -0.00173813      -0.00125929      -0.00823389
C        6.15513877       6.40020043       3.99174707       0.00100307      -0.00205647       0.00787932
C        4.93027316       8.57769504       4.01703311       0.00325303       0.00828849       0.00240621
C       -0.04213344       1.39692286       3.38693733      -0.00765659       0.00166474      -0.00324793
C       -1.31843389       3.51857955       3.40470902      -0.00327988      -0.00792682       0.00657744
C       -2.51214872       5.67821941       3.64121812       0.00120374      -0.00108429      -0.00063547
C       -3.72310994       7.82444512       3.72194039       0.00503563       0.00280107      -0.00004965
C       -4.95694140       9.96151063       3.60347821      -0.00139956       0.00216343       0.00157461
C        2.44013258       1.41139956       3.36328735      -0.00359193      -0.00562033       0.00039706
C        1.12234041       3.51706435       3.15736238      -0.00495769       0.00020429       0.00316337
C       -0.08751260       5.60099992       3.71866522       0.00278405       0.00131870       0.00106518
C       -1.25411858       7.81373959       3.75890977      -0.00396360       0.00067933      -0.00334454
C       -2.49265418       9.95822117       3.60035295       0.00780429      -0.00200880      -0.01142939
C        4.90322599       1.41412412       3.54715751      -0.00197542      -0.00173241       0.00542350
C        3.72026377       3.56349668       3.44948832       0.00417484      -0.00004480      -0.00378252
C        1.23430639       7.88640345       4.00636583      -0.00437426       0.00886979       0.00368142
C       -0.02835604       9.96195033       3.68290972      -0.00540846      -0.00426017       0.00192079
C        7.36513903       1.41328255       3.59009555       0.00010666      -0.00054649      -0.00616168
C        6.14898317       3.54214249       3.70186121      -0.00089494      -0.00121571      -0.00162880
C        4.96895412       5.64008162       4.16690146       0.00465704      -0.00438256      -0.00249220
C        3.69673465       7.96745844       4.32823138       0.00625392      -0.00069604       0.00954280
C        2.44316091       9.99596621       3.75093103       0.00314033       0.00480635       0.00417783
C        9.82684125       1.40614754       3.51098151       0.00283846       0.00339835       0.00804957
C        8.58939245       3.54502942       3.58443975       0.00125198      -0.00107222      -0.00526619
C        7.37685846       5.68664903       3.78751086      -0.00164820      -0.00359804       0.00044048
C        6.15956909       7.83855657       3.96032336      -0.00043865       0.00219923      -0.00007223
C        4.91585471       9.97720233       3.72567527      -0.00017791       0.00931352       0.00166915
Cd       3.29436215       5.88148402       7.62765341       0.00698789      -0.00364809      -0.00114238
O        4.05421707       5.67180301       9.55120582       0.00036029      -0.00275379       0.00222059
O        3.01074358       5.91423408      10.56741521      -0.00761518       0.00822839       0.00036140
H        3.55482130       5.81863441      11.37333834       0.00429118      -0.00048955      -0.00036001
