51
Lattice="12.336457 0.0 0.0 -6.168228499999997 10.683685154694365 0.0 0.0 0.0 15.0" Properties=species:S:1:pos:R:3:forces:R:3 energy=-455.04971537204824 free_energy=-455.04971537204824 stress="-0.005985627079866854 2.834958528684181e-07 -1.5406527225093552e-06 2.834958528684181e-07 -0.0030676370868706173 6.133355082989496e-06 -1.5406527225093552e-06 6.133355082989496e-06 -1.6631728265728444e-05" pbc="T T T"
C       -0.00338326       0.00105314       3.66177231      -0.00434018       0.00142396      -0.00193585
C       -1.24437003       2.13049416       3.65502310       0.00317816       0.00606403      -0.00329281
C       -2.47711379       4.27355624       3.64219477      -0.00044811       0.00890038       0.00802452
C       -3.70184263       6.41460889       3.65108684      -0.00005930      -0.00933931      -0.01304482
C       -4.93132403       8.55649965       3.66132951       0.00021228      -0.00264692       0.00268378
C        2.46640835       0.01258654       3.67822085      -0.00008301       0.00536346       0.00462957
C        1.22209971       2.13973973       3.75802503       0.00185574      -0.00131362       0.00196724
C       -0.03129936       4.27003213       3.80056840      -0.00172914      -0.01176925       0.00166274
C       -1.24482435       6.41811970       3.72394146       0.00708384       0.00498914      -0.00084849
C       -2.47228430       8.55649246       3.66102733      -0.00068078      -0.00251296       0.00310869
C        4.93617465       0.00108351       3.66196228       0.00422253       0.00125772      -0.00161253
C        3.71066617       2.13974445       3.75870350      -0.00170232      -0.00123727       0.00092072
B        2.46634473       4.30333848       4.07771310      -0.00046152       0.00630482      -0.00939488
C        1.18275370       6.43372144       4.04630890      -0.00770916      -0.00430612      -0.00130218
C       -0.00820154       8.54639213       3.71882287       0.00264442      -0.00065675       0.01219756
C        7.40227913      -0.00775749       3.65225673      -0.00538197      -0.00205933      -0.00147287
C        6.17711428       2.13052861       3.65586130      -0.00289636       0.00602137      -0.00303555
C        4.96410382       4.27006786       3.80190756       0.00125882      -0.01181183       0.00150235
C        3.74986977       6.43370600       4.04725436       0.00839704      -0.00363222      -0.00095855
C        2.46642019       8.54247241       3.79476918      -0.00025304       0.00791184      -0.00005791
C        9.86694863      -0.00777212       3.65209919       0.00561951      -0.00199296      -0.00121834
C        8.63458502       2.13176361       3.61278117       0.00026714      -0.00549807      -0.00133181
C        7.40985859       4.27358170       3.64290579       0.00062568       0.00878828       0.00795656
C        6.17760514       6.41815951       3.72500260      -0.00732448       0.00463032      -0.00096370
C        4.94102060       8.54637591       3.71931092      -0.00299351      -0.00069513       0.01260419
C       -0.01062841       1.42098587       3.68326760       0.00063839       0.00352326      -0.00920608
C       -1.25491554       3.55524401       3.68091300      -0.00412180       0.00367603       0.00145648
C       -2.47362237       5.70040722       3.66310570       0.00841468       0.00645411      -0.01219050
C       -3.70180840       7.84250419       3.65571513      -0.00018126      -0.01218360      -0.01162837
C       -4.93441132       9.97935219       3.66259016      -0.00193991       0.00236550       0.00561131
C        2.46638685       1.43471700       3.73992092       0.00010980       0.00304475      -0.00152932
C        1.17737933       3.55341082       3.85694166       0.00226979      -0.00516039       0.00339163
C       -0.01568876       5.70407809       3.84723194      -0.00361451      -0.01104150      -0.00022038
C       -1.24049925       7.84089431       3.70043274       0.00393154       0.00396097       0.00126153
C       -2.46922199       9.97935416       3.66262922       0.00164412       0.00236553       0.00517100
C        4.94338772       1.42101126       3.68396296      -0.00043437       0.00337901      -0.00924319
C        3.75541470       3.55341191       3.85772906      -0.00277263      -0.00508501       0.00393446
C        1.22792576       7.82933177       3.83587309       0.00013813       0.00133639       0.00829205
C       -0.00015197       9.96773187       3.66737305       0.00041158      -0.00485886      -0.00496243
C        7.40570853       1.41579616       3.62618768      -0.00726188      -0.00204182      -0.00417123
C        6.18769267       3.55527114       3.68212108       0.00400389       0.00375096       0.00095424
C        4.94843849       5.70412931       3.84858391       0.00346692      -0.01115292      -0.00030934
C        3.70488441       7.82928345       3.83647346      -0.00054373       0.00164519       0.00799621
C        2.46639366       9.96059160       3.68325574       0.00008759       0.00639450      -0.00396448
C        9.86347276       1.41577927       3.62575071       0.00772115      -0.00201111      -0.00381100
C        8.63458810       3.55799401       3.61476298       0.00018779       0.00264412       0.00780195
C        7.40637300       5.70043792       3.66373604      -0.00844597       0.00629710      -0.01194181
C        6.17333891       7.84091961       3.70109769      -0.00440734       0.00362800       0.00133281
C        4.93293724       9.96770317       3.66741861      -0.00043367      -0.00487410      -0.00518510
Co       2.46560739       5.79722494       5.25525766       0.00155017       0.00695423       0.00850407
O        2.46385461       5.42838769       6.80344107       0.00027925      -0.00519391       0.00586785
