51
Lattice="12.336457 0.0 0.0 -6.168228499999997 10.683685154694365 0.0 0.0 0.0 15.0" Properties=species:S:1:pos:R:3:forces:R:3 energy=-448.5630219567926 free_energy=-448.5630219567926 stress="-0.006035201477870351 0.0006766292233917425 2.1704864905133174e-05 0.0006766292233917425 -0.006759543963058788 5.794546204881591e-06 2.1704864905133174e-05 5.794546204881591e-06 -3.0490562747094107e-05" pbc="T T T"
C        0.01031518       0.00575067       3.62483884      -0.01088967       0.00420576      -0.00284270
C       -1.22276567       2.14039668       3.55633753       0.00462022       0.00500078      -0.00259313
C       -2.45744186       4.27934605       3.55417758       0.00599656       0.00111401      -0.00237633
C       -3.68949650       6.41456326       3.62092876      -0.00206820      -0.01282776      -0.00193850
C       -4.93066971       8.54796332       3.68180693       0.00903989       0.00506628       0.01434469
C        2.47565870       0.00262118       3.63972668      -0.00438191      -0.00022635      -0.00212676
C        1.23761200       2.13270832       3.77079596       0.00886955       0.00273710       0.00453517
C       -0.01995951       4.26096095       3.84958756      -0.00552075      -0.00260949       0.00055742
C       -1.23440225       6.41372238       3.77681826       0.00676247       0.00689565       0.00299529
C       -2.45955292       8.55093867       3.64322847      -0.00366180      -0.00303550      -0.00397907
C        4.94430070       0.00394967       3.54267167      -0.00390691      -0.00182015       0.00356605
C        3.72240746       2.12167973       3.70643478       0.00672461      -0.00973984       0.00334139
B        2.50652589       4.25465765       4.28629674      -0.00043235       0.00308964       0.00914500
B        1.23574307       6.45026163       4.30416922       0.00348726      -0.00276640       0.00910349
C       -0.00114747       8.57118520       3.72145908      -0.00555083       0.01069562       0.00437604
C        7.40881258       0.01737139       3.47903465       0.00067049      -0.00616838      -0.00954015
C        6.18802679       2.13170542       3.46772315      -0.00411719       0.00361841      -0.00652319
C        4.99889717       4.23432227       3.79100756      -0.00160188      -0.00800504      -0.00139692
P        3.51136670       6.29581832       4.59417298       0.01258907       0.00775699      -0.00838611
C        2.46632715       8.62052957       3.81290355      -0.00849399       0.00245656      -0.00473883
C        9.88607504       0.01771154       3.53185907       0.01116039       0.00186641       0.00792664
C        8.65324235       2.14553228       3.41204063      -0.00838637      -0.00601502       0.00927411
C        7.42707917       4.27770596       3.51877181       0.00712557       0.00723539       0.00894306
C        6.19448287       6.41015259       3.80763893      -0.00399036       0.00687685      -0.00200224
C        4.94881169       8.56761845       3.81634976       0.00357903      -0.00704302      -0.00124797
C        0.00699682       1.42683436       3.63571973       0.00476111       0.00604830      -0.01394567
C       -1.23667514       3.55831032       3.61681275      -0.00023216       0.00025690      -0.00083279
C       -2.46054860       5.70108524       3.63535564       0.00773626       0.00092405      -0.01573102
C       -3.69419209       7.83883562       3.64967882       0.00192357      -0.01205087       0.00175717
C       -4.92666609       9.97329971       3.65021240      -0.00836345       0.00774952       0.00122431
C        2.47658778       1.42086571       3.71559944       0.00759545      -0.00231816       0.00218565
C        1.19727067       3.54260639       3.97016219      -0.00330512       0.00284897       0.00007127
C       -0.03381377       5.67373897       3.97685237       0.00065382      -0.00362037       0.00096769
C       -1.23111475       7.84272440       3.72436451       0.00075120       0.00851454       0.00101133
C       -2.45849473       9.97511497       3.60575718      -0.00628617      -0.00286500      -0.01528011
C        4.95317722       1.42044703       3.54298115       0.00304352      -0.00501778      -0.00907853
C        3.77538828       3.52421110       3.88725505      -0.00334488      -0.01026107       0.00911923
C        1.23929443       7.91588790       3.90913595      -0.01084809       0.00162344       0.00870066
C        0.00727047       9.98718782       3.55305037      -0.00359771       0.00478141      -0.01035150
C        7.41864812       1.43243845       3.40926231      -0.01161479      -0.00718079       0.00541081
C        6.21066496       3.54779636       3.54377345       0.00660438       0.00462657       0.00567246
C        5.01920803       5.63910446       3.99321289       0.00681777      -0.00833309      -0.00755696
C        3.69410418       7.93537316       4.00782948      -0.00502006       0.00969409      -0.01143958
C        2.47774189      10.01287778       3.56214201       0.00744197       0.00368212       0.00470170
C        9.88471143       1.43529588       3.46465376       0.00283114       0.00448864      -0.00724336
C        8.65414376       3.56751273       3.45841578       0.00526794      -0.00172605      -0.00473069
C        7.42053128       5.69968622       3.62826375      -0.00776874       0.00464281       0.00402134
C        6.17677279       7.83828214       3.79171715       0.00661972       0.00396446       0.00157455
C        4.94619739       9.98483758       3.63865374       0.00151590      -0.00989385       0.00172102
Co       2.04063346       5.43798716       5.75549368      -0.01427149      -0.00842488       0.01062144
O        2.02932108       5.41272452       7.34949136      -0.00653397      -0.00051242       0.00901313
