50
Lattice="12.336457 0.0 0.0 -6.168228499999997 10.683685154694365 0.0 0.0 0.0 15.0" Properties=species:S:1:pos:R:3:forces:R:3 energy=-438.6686425881939 free_energy=-438.6686425881939 stress="-0.004728910358145428 -0.0018690026573509686 3.398744553888421e-06 -0.0018690026573509686 -0.00923051204981198 6.211952316530048e-06 3.398744553888421e-06 6.211952316530048e-06 1.3990822399828115e-05" pbc="T T T"
C        0.00412862      -0.01303066       3.71346373       0.00388417       0.00622955      -0.00519319
C       -1.23778975       2.11648942       3.65582298      -0.00060179       0.00399206      -0.01033636
C       -2.46270124       4.26117787       3.71963105       0.00444748      -0.00964294      -0.00083421
C       -3.68770075       6.39303538       3.80527110       0.00087503      -0.00021664       0.01051670
C       -4.92627875       8.52685981       3.80119287      -0.00344953       0.00449029       0.00332145
C        2.47268104      -0.04320753       3.71473907       0.00551359      -0.00388213       0.00338509
C        1.23602361       2.11778621       3.60581488       0.00055040      -0.01215368      -0.00107939
C        0.00683397       4.21071306       3.78809175       0.00038031       0.00061115      -0.00775614
C       -1.21574006       6.38243431       3.98593661      -0.00003782       0.00517225      -0.00348242
C       -2.44709974       8.51880142       3.91729123      -0.00275776       0.00056731      -0.00498731
C        4.93826787      -0.01785138       3.76645001      -0.00703120      -0.00470351       0.00442030
C        3.68965190       2.04329297       3.36124695       0.00775403      -0.00384988      -0.00502370
P        1.50073339       6.25659904       4.57834480      -0.00597245       0.00041527      -0.00651444
C        0.00893571       8.56006760       4.13082511      -0.00111889      -0.00093377      -0.00355833
C        7.39384495       0.02144289       3.83465673      -0.00548284       0.00200756       0.00361068
C        6.16455363       2.12486863       3.54035863      -0.00632225       0.00051511       0.00826792
C        4.97617104       4.27874879       3.41995921       0.00254273       0.00802095      -0.01033041
B        3.62562461       6.40086157       3.80934582       0.00428621       0.00022124       0.00383047
C        2.48199583       8.62916455       4.03842016      -0.00240206       0.00109280       0.00721544
C        9.87583154       0.01582647       3.75530398       0.00669864       0.00761764       0.00259456
C        8.63176840       2.13597156       3.65909001      -0.00535156      -0.00081300      -0.00101041
C        7.41093309       4.26759323       3.63500558       0.00202631      -0.00126215       0.00595694
C        6.18367294       6.40919022       3.72147159      -0.00198803      -0.00288119      -0.00145889
C        4.94225418       8.55525116       3.79674780       0.00381065       0.00148074       0.00203765
C       -0.00525184       1.40417732       3.65628299      -0.00304827       0.00188228      -0.00533328
C       -1.24334525       3.53054804       3.68666109       0.00515778      -0.00151499      -0.00168914
C       -2.45648426       5.68080024       3.82799282       0.00184698      -0.00715812       0.00178461
C       -3.68719850       7.81411711       3.84971557      -0.00320203       0.00347498       0.00302704
C       -4.93076880       9.94530691       3.75625315       0.00125089       0.00530380       0.00071529
C        2.46426390       1.36669586       3.54828034       0.01096896      -0.00733639       0.00281285
C        1.23850485       3.51405302       3.69882741      -0.00622418      -0.01047671      -0.00851078
C       -0.03105359       5.61098310       4.02707251      -0.00159174       0.00497457      -0.00254104
C       -1.21199557       7.81538420       4.04623963      -0.00156892       0.00607527      -0.00172076
C       -2.45673717       9.94058370       3.81141335      -0.00167398      -0.00545520       0.00267809
C        4.93665835       1.39490154       3.53429924      -0.00256059      -0.00535374       0.00488673
P        3.60017923       3.59595187       2.48529570       0.00011968       0.01077666       0.01614713
C        1.27091000       7.94680519       4.31955547      -0.00478575      -0.00659886       0.00297800
C        0.00030003       9.97860767       3.92464556      -0.00558316       0.00024168       0.00241243
C        7.39383722       1.43041095       3.67193877      -0.00732683       0.00090745      -0.00176929
C        6.18305222       3.54348661       3.50605511       0.00096782       0.00152350      -0.00142262
C        4.96364576       5.69341330       3.63653233      -0.00024436       0.00119036      -0.00286988
C        3.69072860       7.89511110       3.88436812       0.00213053       0.00032079       0.00712380
C        2.46845230      10.02337181       3.87907907       0.00136564       0.00250994       0.00109447
C        9.86367553       1.42391427       3.67952961      -0.00025712       0.00788842      -0.00283830
C        8.63738379       3.55661002       3.65913264       0.00195555      -0.00572222       0.00414529
C        7.41648364       5.68882449       3.71647674      -0.00058991       0.00050419      -0.00235819
C        6.17665887       7.82965778       3.77841046      -0.00014653      -0.00218105      -0.00357231
C        4.94008009       9.97651692       3.75555566       0.00729235       0.00413666       0.00282605
Co       2.84312246       4.48526913       4.27493216       0.00191158      -0.00070004      -0.00969268
O        2.10285650       5.51635129       5.82681953       0.00358225      -0.00130824      -0.00190551
