50
Lattice="12.336457 0.0 0.0 -6.168228499999997 10.683685154694365 0.0 0.0 0.0 15.0" Properties=species:S:1:pos:R:3:forces:R:3 energy=-439.7001162992805 free_energy=-439.7001162992805 stress="-0.007014130621624762 0.0016957508231595256 5.986481587905812e-06 0.0016957508231595256 -0.0037175349684135817 -9.978454576673726e-06 5.986481587905812e-06 -9.978454576673726e-06 1.0988494230644351e-05" pbc="T T T"
C       -0.01134887      -0.01610685       3.70667980      -0.00733625      -0.00423035      -0.01337121
C       -1.24807346       2.11162934       3.51134149       0.01291494      -0.00091200       0.00398993
C       -2.51712500       4.25871722       3.43003841      -0.00586847      -0.00331235       0.01448958
C       -3.74117730       6.39811977       3.57375791      -0.00052948      -0.00791477      -0.01169423
C       -4.95654398       8.53029670       3.75281868       0.00751417       0.01215637      -0.00678024
C        2.46799664      -0.00421839       3.74597603       0.00397320       0.00046476       0.01468362
C        1.24367064       2.10449441       3.65727524       0.01386587      -0.00941729       0.00242720
C       -0.10506339       4.27520824       3.53367602      -0.00165161       0.00227436       0.00480978
C       -1.29884879       6.41294180       3.60762070      -0.00178278       0.00812751      -0.00242387
C       -2.49162291       8.53656246       3.69229957      -0.01716410      -0.00392483      -0.00137795
C        4.92364986      -0.01962947       3.72084240       0.00573059       0.00436584       0.00839591
C        3.73853563       2.10108261       3.84583538      -0.00677422      -0.00126164       0.00242340
B        1.18296733       6.36707081       3.99572931      -0.00604985      -0.01115676      -0.00527419
C       -0.01963990       8.52885190       3.80315435       0.00122221       0.00467117      -0.00579871
C        7.39663717      -0.02724868       3.70039404       0.01363209       0.00289527      -0.00088970
C        6.17120898       2.10318806       3.64024529      -0.00042931      -0.00151775       0.01784879
C        4.99016519       4.21815215       3.91011925      -0.00240762      -0.00903347      -0.00262464
B        3.80019811       6.40786621       4.68055085      -0.00142969      -0.00179439      -0.00856610
C        2.47580652       8.53573834       3.97532590      -0.00723890       0.00478318       0.00771051
C        9.86170464      -0.01645830       3.69803934      -0.00160130      -0.00399339       0.00243886
C        8.62443705       2.10952832       3.51211745       0.00125399       0.00212308      -0.00457209
C        7.38225923       4.25202714       3.53861647      -0.00400539       0.00942517       0.00963066
C        6.15098547       6.37124897       3.82084711      -0.00275545       0.00145525       0.00194255
C        4.91912603       8.53538164       3.94169883       0.01011182      -0.00675832      -0.00132887
C       -0.00667494       1.41093851       3.61141191       0.01242142      -0.00479492      -0.00109354
C       -1.28867990       3.53223172       3.43618786       0.00040605       0.00030936      -0.00243717
C       -2.52327553       5.68602606       3.50229727       0.00335228      -0.00182737       0.00004906
C       -3.72613112       7.82221665       3.66969500      -0.00931965      -0.01047987      -0.01291398
C       -4.94187224       9.96246503       3.74420775      -0.00100220       0.01244833      -0.00621221
C        2.49378806       1.43031400       3.77241170       0.00456354      -0.00748706      -0.00448376
B        1.20151107       3.57068158       3.64435834       0.00154690      -0.00155991      -0.01141266
C       -0.10895003       5.67728089       3.67191974      -0.00338920       0.00768378      -0.00509687
C       -1.26453327       7.82893057       3.70686228      -0.00888214       0.00884441      -0.00525274
C       -2.48003954       9.96252957       3.73159279       0.00110568      -0.00226957       0.00181314
C        4.93851382       1.40596997       3.72775184      -0.01011534       0.00748026       0.01420263
O        3.83787462       3.45968531       4.17663874       0.00451801      -0.01879662       0.00299965
C        1.22113497       7.84565590       3.95177969      -0.00319301      -0.00949550      -0.01389056
C       -0.01323027       9.95258660       3.74060823       0.01409879       0.00801341       0.00517808
C        7.39343590       1.39619899       3.59478012       0.00452951      -0.00151248       0.01048486
C        6.16911338       3.51874065       3.64787422       0.00123920       0.00122468       0.00407290
C        4.96549682       5.61374807       4.02487172      -0.00685889      -0.00572010       0.00434350
C        3.70083391       7.85704227       4.14231023      -0.00210784       0.01447565       0.00571067
C        2.46535091       9.95775847       3.78119317       0.00205294       0.00060117       0.00259723
C        9.85812902       1.40090188       3.55030826       0.00622305      -0.00291016      -0.00533035
C        8.60755634       3.53627908       3.45737560      -0.00895945       0.00316119       0.00467770
C        7.37296503       5.67139675       3.60535613      -0.00310514       0.00468802       0.00991664
C        6.15462455       7.81041874       3.86156810       0.01528022       0.00116119      -0.00874659
C        4.92527435       9.96161222       3.77210680      -0.00516415      -0.00967910      -0.00436459
Co       2.32876909       4.86429540       4.43346930      -0.01320362       0.00465418      -0.01129579
O        3.17658261       5.87280681       5.75726744       0.00076857       0.01427237       0.00039581
