51
Lattice="12.336457 0.0 0.0 -6.168228499999997 10.683685154694365 0.0 0.0 0.0 15.0" Properties=species:S:1:pos:R:3:initial_magmoms:R:1:forces:R:3 energy=-438.53491074969503 free_energy=-438.53491074969503 stress="-0.0063706988745467165 0.003763614005156294 9.200989545706028e-06 0.003763614005156294 -0.0025076899893303863 -1.6684668904171864e-05 9.200989545706028e-06 -1.6684668904171864e-05 8.546850120909702e-06" pbc="T T T"
C       -0.04387444       0.05558243       3.59054171       0.00000000       0.00840758      -0.00862864      -0.00424632
C       -1.27190824       2.20204021       3.54804301       0.00000000      -0.00140563       0.00320793      -0.00053784
C       -2.53715435       4.33642669       3.77084768       0.00000000      -0.01408334      -0.00744894      -0.00743127
C       -3.77717946       6.46554517       3.83207718       0.00000000       0.00059476      -0.00069811      -0.01448811
C       -4.99897267       8.59530289       3.74221347       0.00000000       0.00172311       0.00257666       0.00548849
C        2.42736875       0.05362489       3.60006049       0.00000000       0.00308772      -0.00474875      -0.00860410
C        1.21166970       2.17175784       3.31441895       0.00000000      -0.00139539      -0.00472844       0.00830931
C       -0.12843134       4.38233906       3.84285445       0.00000000      -0.00702931      -0.00322876       0.01444936
C       -1.34892084       6.48427923       4.15956066       0.00000000       0.00326785      -0.00117626       0.00029861
C       -2.53270392       8.60900891       3.91548920       0.00000000      -0.00413177      -0.00014679      -0.01723058
C        4.89446299       0.03842510       3.70693759       0.00000000      -0.00457835       0.00254326      -0.00287379
C        3.71562843       2.12872967       3.38009569       0.00000000       0.00580639      -0.00687361      -0.00660603
P        1.30018039       6.38748102       5.06326844       0.00000000      -0.01156802      -0.00813635       0.00807342
C       -0.06692779       8.62493399       4.13909821       0.00000000      -0.00073713      -0.00002312      -0.01498976
C        7.35883756       0.05326663       3.76402294       0.00000000      -0.00406259      -0.00522163      -0.00559832
C        6.15256500       2.16061035       3.51880368       0.00000000       0.01733655       0.00327655       0.00154830
C        4.96094222       4.26451886       3.52376164       0.00000000       0.00084920      -0.00774657       0.00070677
B        3.58450199       6.39168956       4.01315377       0.00000000       0.00893991       0.00962522      -0.00096969
C        2.41686509       8.64567775       4.04557242       0.00000000       0.00301921      -0.00324812      -0.00525137
C        9.83108533       0.06088627       3.68073382       0.00000000      -0.00016940       0.01321607       0.01356366
C        8.60294587       2.18841735       3.61168916       0.00000000      -0.00672530      -0.00585177       0.00390735
C        7.36374883       4.31939237       3.63117796       0.00000000       0.00828056       0.00246194      -0.00713127
C        6.10063291       6.43791387       3.73325868       0.00000000      -0.00383477       0.00506750       0.00425047
C        4.87596972       8.59570835       3.79734468       0.00000000      -0.00075698       0.00548725      -0.01614451
C       -0.02737481       1.49269255       3.46974875       0.00000000      -0.00072775      -0.00605781      -0.00269212
C       -1.31198297       3.61917467       3.69606367       0.00000000      -0.01005549       0.00281146      -0.00059629
C       -2.55665763       5.75811838       3.91952024       0.00000000      -0.00189794      -0.00714514       0.00726235
C       -3.76952739       7.89163474       3.83849155       0.00000000      -0.00349241       0.00145539       0.00309620
C       -4.98344247      10.02470631       3.64619643       0.00000000       0.00860508      -0.00366473       0.00708790
C        2.45397840       1.48285182       3.40679687       0.00000000       0.00293823      -0.00655460       0.01291171
P        1.25873153       3.90815356       2.86331548       0.00000000       0.00185070       0.00468123       0.01166883
C       -0.17196569       5.72269590       4.30033293       0.00000000       0.00423726      -0.00080212       0.00315918
C       -1.31547248       7.91071931       4.12098635       0.00000000      -0.00447818       0.00163828       0.00567828
C       -2.51946999      10.02858059       3.75115731       0.00000000      -0.00362415       0.00076996       0.00367325
C        4.91693323       1.45097660       3.50501869       0.00000000       0.01428240       0.00487177       0.00858981
O        3.80142252       3.52412693       3.33400294       0.00000000      -0.01048046      -0.00044902      -0.00137352
C        1.18416217       7.99630203       4.33747796       0.00000000       0.00070153      -0.00130097       0.00025052
C       -0.04850699      10.02846312       3.86930031       0.00000000      -0.00721216       0.00095468      -0.00301065
C        7.36957589       1.46912151       3.61686055       0.00000000       0.00409792      -0.00741351      -0.00268719
C        6.15867299       3.57713316       3.51235241       0.00000000       0.01246757       0.00201685       0.00204289
C        4.88831788       5.66105973       3.73073113       0.00000000       0.00213511      -0.00622710       0.00553470
C        3.63374446       7.90567492       3.95983444       0.00000000       0.00333182       0.00121202      -0.00405948
C        2.42655232      10.04928105       3.82121779       0.00000000      -0.00058560       0.00130188      -0.00550656
C        9.83839960       1.48291893       3.59938397       0.00000000      -0.00244621       0.01074017       0.00974603
C        8.59095728       3.61308577       3.65593666       0.00000000      -0.00810378      -0.01302839       0.00573505
C        7.33763769       5.73995361       3.71689463       0.00000000      -0.00051023       0.00297778      -0.00002775
C        6.10291024       7.87145990       3.75985653       0.00000000      -0.00133903       0.00735829      -0.00871076
C        4.89229784      10.02829607       3.69071016       0.00000000       0.00096205       0.00442112      -0.00676206
Co       2.51775265       4.71779518       4.48456382       0.00000000      -0.00638296       0.01224995       0.00124489
O        4.07364536       3.50407936       6.10897697       1.00000000      -0.00104202       0.00239446      -0.00503965
O        2.79394724       3.59367499       5.89751452       1.00000000       0.00593387       0.01123158       0.00429166
