49
Lattice="12.336457 0.0 0.0 -6.168228499999997 10.683685154694365 0.0 0.0 0.0 15.0" Properties=species:S:1:pos:R:3:forces:R:3 energy=-424.49175370376014 free_energy=-424.49175370376014 stress="-0.005553973949890295 -0.00113873998349702 3.70306200892157e-06 -0.00113873998349702 -0.006123543894954939 2.2944332471940277e-06 3.70306200892157e-06 2.2944332471940277e-06 1.145162316452788e-06" pbc="T T T"
C       -0.00168453      -0.00169485       3.94740736       0.00301606       0.00694371      -0.00341282
C       -1.25172083       2.12556238       3.88671214       0.00709232       0.00383978       0.01144199
C       -2.50015223       4.27053226       4.12345318      -0.00777112      -0.00329081      -0.00384605
C       -3.71386520       6.41237908       4.15237077      -0.00173631      -0.00061506       0.00446640
C       -4.94350588       8.54400970       4.02051124      -0.01033203      -0.00368079      -0.01038766
C        2.46404018      -0.00962456       3.87247587       0.00633941       0.00245550       0.00387535
C        1.20353437       2.04466823       3.40222234      -0.00015455       0.01326303      -0.00014883
C       -0.15297255       4.28096163       3.56396072      -0.00649547      -0.00308959      -0.00815205
C       -1.26228780       6.41122578       4.07129413      -0.00387277      -0.00731185       0.00131565
C       -2.47190873       8.54564105       4.10490238       0.00349004       0.00397698       0.01158962
C        4.92666554      -0.00539700       3.92797568       0.00710207      -0.00161013       0.00000906
C        3.71628872       2.03426945       3.30249684      -0.00937347      -0.00849684       0.00147168
B        1.23706544       6.38712184       3.71105802       0.00225535       0.00595573       0.00051355
C       -0.00367459       8.54367567       3.98538386       0.00532147       0.00076952       0.00654480
C        7.39261578       0.00163806       4.00416233      -0.00929779       0.00155851      -0.00388296
C        6.16279547       2.13006115       3.78945763      -0.00311793      -0.00312349      -0.00608774
C        5.10530208       4.29115224       3.21577454       0.00947146       0.00721040      -0.00293827
S        3.80665658       6.55651967       2.39346324       0.00975085      -0.00800018       0.00079343
C        2.47612919       8.57014649       3.74917963       0.00407886       0.00051951       0.00925557
C        9.86583483       0.00317317       4.00056707      -0.00394451      -0.00907014      -0.00692651
C        8.62030524       2.13533986       4.07220762       0.00567587       0.00231216       0.00223036
C        7.39575344       4.27355632       4.00670102       0.00086999       0.00776854       0.00024802
C        6.20122086       6.42459713       3.73498340       0.00021404      -0.00558658       0.00342769
C        4.94378728       8.55940236       3.76992010       0.00157020      -0.00845542      -0.00075350
C       -0.01097598       1.41897849       3.78040361       0.00448914       0.00969004      -0.00354181
C       -1.29097800       3.53887512       3.89788378      -0.00614930       0.00093475      -0.00079299
C       -2.49109202       5.69564407       4.16480825      -0.00655196      -0.00772222      -0.00332396
C       -3.70723285       7.83534637       4.11720613      -0.00509095       0.00213657       0.00587780
C       -4.93682212       9.97259664       3.97469658       0.00182077       0.00127598      -0.01490255
C        2.46254859       1.39081735       3.50710188      -0.00681476       0.00525643       0.00822557
S        1.03302876       3.53650975       2.53346485      -0.00363088      -0.00122398       0.00267479
C       -0.07700148       5.66581625       3.79753510      -0.00023366      -0.00411840       0.00237412
C       -1.23744366       7.83257182       4.08093863       0.00388097      -0.00237381      -0.00280039
C       -2.47356528       9.96849934       3.98758323       0.01019368       0.00460117       0.00082374
C        4.93094557       1.41259937       3.69080243      -0.00419745      -0.00880566      -0.00499537
S        3.86765216       3.44987665       2.28974924      -0.00402839       0.00224324      -0.00313708
C        1.24389359       7.86741181       3.81628362       0.00528021       0.00656030       0.01720971
C       -0.00807976       9.97257356       3.99764266       0.00032321      -0.00133782       0.00714199
C        7.38164576       1.42769112       3.99574485      -0.00009588       0.00169922      -0.00933994
C        6.19926032       3.54896974       3.71176537       0.00687240       0.00332246      -0.00543126
C        5.09632256       5.68999587       3.24151115      -0.00100268       0.01047644       0.00403165
C        3.71218910       7.92947538       3.46229142       0.00447272      -0.00115922       0.00250700
C        2.46720337       9.98630674       3.96188485      -0.01132021      -0.00085341      -0.00991501
C        9.86213982       1.42689001       4.03301153       0.00807543      -0.00412788       0.00534435
C        8.61425725       3.55498338       4.12443256      -0.00446463       0.00333670       0.00145509
C        7.40002049       5.69829796       4.01410038       0.00026974       0.00350256       0.00057297
C        6.17318384       7.84199309       3.83144174      -0.00497439      -0.01354166      -0.00648011
C        4.93135722       9.97677164       3.95805398       0.00243867      -0.00473389      -0.00339526
Co       2.51871338       5.01014050       3.17574065       0.00028615       0.00071958      -0.00082983
