51
Lattice="12.336457 0.0 0.0 -6.168228499999997 10.683685154694365 0.0 0.0 0.0 15.0" Properties=species:S:1:pos:R:3:initial_magmoms:R:1:forces:R:3 energy=-441.45279309260127 free_energy=-441.45279309260127 stress="-0.004508482339847034 -0.002744381659908244 -2.83983979059991e-05 -0.002744381659908244 -0.008947979980706186 2.693747621745471e-07 -2.83983979059991e-05 2.693747621745471e-07 9.915867861202883e-06" pbc="T T T"
C       -0.00202316       0.00017042       3.76161233       0.00000000      -0.00188602       0.00089633      -0.00640023
C       -1.24651165       2.13083827       3.61124913       0.00000000      -0.00142864       0.00209811       0.00762100
C       -2.47154462       4.27789976       3.60847936       0.00000000      -0.00162858       0.00510872      -0.00336149
C       -3.69343792       6.40992060       3.75836530       0.00000000      -0.00687412       0.00029552       0.00107743
C       -4.92931460       8.54236751       3.84674153       0.00000000      -0.00258186      -0.00545827       0.00273456
C        2.46683737      -0.03362724       3.69134267       0.00000000      -0.01012011       0.00309096      -0.00285731
C        1.22343851       2.10921781       3.57323590       0.00000000       0.00130604       0.00115191       0.00514554
C       -0.01086707       4.22643249       3.57761040       0.00000000       0.00120551      -0.00188983       0.00825582
C       -1.22001401       6.40435891       3.76376291       0.00000000      -0.00215940      -0.00532848      -0.01557247
C       -2.45177127       8.53421545       3.80309309       0.00000000      -0.00220125       0.00227914      -0.00003629
C        4.93081581       0.00243318       3.65716655       0.00000000       0.00039562       0.00474242       0.00236359
C        3.66482711       2.07048357       3.33633789       0.00000000       0.00259983       0.00476801       0.00425661
P        1.56233855       6.23538811       4.12360658       0.00000000       0.00971657      -0.00029573       0.00284499
C        0.00276417       8.56786615       3.90726685       0.00000000      -0.00232866      -0.00460404       0.00402720
C        7.38642331       0.04148273       3.74826374       0.00000000       0.00472343      -0.00298623       0.00657821
C        6.15072662       2.15363464       3.48066009       0.00000000      -0.00076038       0.00149238      -0.00609816
C        4.97020749       4.33064309       3.44534227       0.00000000       0.00252607       0.00465224       0.00216635
B        3.59643016       6.40498153       4.07369450       0.00000000      -0.00218943      -0.00234436      -0.01248708
C        2.48315870       8.65059416       4.01326564       0.00000000       0.00372580       0.00159462      -0.00076011
C        9.87084947       0.03732006       3.79022826       0.00000000       0.00283929       0.00342321      -0.00916659
C        8.62125928       2.15563528       3.60420644       0.00000000      -0.00391309      -0.00167058       0.00467293
C        7.40018804       4.29068626       3.60075914       0.00000000       0.00132565      -0.00621587       0.00566662
C        6.17445012       6.42557284       3.83185566       0.00000000       0.00242246      -0.00179468      -0.00133507
C        4.94531665       8.57613801       3.94092329       0.00000000       0.00105895       0.00551026       0.00681353
C       -0.01365759       1.41554787       3.64975564       0.00000000       0.00102753       0.00271330       0.01153840
C       -1.25163076       3.54373979       3.55922374       0.00000000      -0.00187173       0.00266998       0.00223079
C       -2.46107450       5.69822274       3.69791540       0.00000000      -0.00661706       0.00371246      -0.00178853
C       -3.69096044       7.82961923       3.81535418       0.00000000      -0.00154268      -0.00016961      -0.01392154
C       -4.93601595       9.95991785       3.78608595       0.00000000      -0.00790315      -0.00474795      -0.00176218
C        2.45430509       1.37688033       3.53406521       0.00000000      -0.00067512       0.00417377      -0.00299718
C        1.23062981       3.52052357       3.58922456       0.00000000       0.00295862      -0.00077675      -0.00117613
C       -0.02355853       5.63685394       3.72801133       0.00000000       0.00484110      -0.00211663      -0.00630720
C       -1.21469794       7.82854078       3.83848497       0.00000000      -0.00438555      -0.00593533       0.00118553
C       -2.45993308       9.95562611       3.72569663       0.00000000      -0.00502532       0.00638186       0.00292897
C        4.91882404       1.42668633       3.47029502       0.00000000       0.00247137       0.00500597      -0.00417245
P        3.44759565       3.72380603       2.68316523       0.00000000      -0.00291367      -0.00955660       0.00490804
C        1.26100182       7.93404650       4.06062220       0.00000000       0.00053284       0.00038722       0.01544338
C       -0.00593180       9.99477694       3.77997393       0.00000000       0.00174145      -0.00255134      -0.00500725
C        7.38106122       1.45356319       3.60398723       0.00000000      -0.00268900      -0.00385912      -0.00712839
C        6.16690528       3.57729181       3.47295320       0.00000000      -0.00111959       0.00025894       0.01249549
C        4.94292001       5.70507300       3.78507825       0.00000000       0.00339205       0.00206159       0.00058699
C        3.69720565       7.92090717       4.03374604       0.00000000       0.00283274       0.00130956      -0.00931517
C        2.46223151      10.04667133       3.86283805       0.00000000       0.00748137       0.00040511       0.00010474
C        9.85589085       1.44273027       3.65969773       0.00000000      -0.00241546       0.00365574       0.01177272
C        8.62713942       3.57621718       3.59187140       0.00000000       0.00172416      -0.00156770      -0.00428937
C        7.40520016       5.70819551       3.73079860       0.00000000      -0.00098097      -0.00634094      -0.00362179
C        6.17623968       7.84510664       3.89722308       0.00000000      -0.00171699      -0.00222856       0.00371375
C        4.93589784       9.99565397       3.84229472       0.00000000      -0.00037379       0.00539975       0.00044350
Co       2.63168654       4.43386449       4.57495004       0.00000000      -0.00151317      -0.00483462      -0.01583514
O        2.57341254       5.09844344       6.90329846       1.00000000       0.01190042       0.00882975      -0.00543053
O        3.01504583       4.03190622       6.26239622       1.00000000       0.00506591      -0.01079563       0.00925093
