52
Lattice="12.336457 0.0 0.0 -6.168228499999997 10.683685154694365 0.0 0.0 0.0 15.0" Properties=species:S:1:pos:R:3:forces:R:3 energy=-442.6351921831078 free_energy=-442.6351921831078 stress="-0.0037777774213100515 -0.0028934819024865567 -1.173955892169105e-06 -0.0028934819024865567 -0.00564318039813736 7.967646925441446e-06 -1.173955892169105e-06 7.967646925441446e-06 -1.8043585401764173e-05" pbc="T T T"
C       -0.03662274      -0.02742504       4.08671265      -0.00060476      -0.00337185      -0.00207002
C       -1.29326136       2.09852787       4.16445607      -0.00554676      -0.00449665       0.01213467
C       -2.51748550       4.24808946       4.06477221       0.00523369       0.00163688      -0.00356061
C       -3.71741098       6.38704086       3.93710744      -0.00606971       0.00109036      -0.00200395
C       -4.95750845       8.52571782       3.96794502      -0.00441885      -0.00075160      -0.00193079
C        2.42571520      -0.01776534       3.95002142      -0.00614100      -0.00254474       0.00906950
C        1.15023789       2.07064992       3.97016901      -0.00354753      -0.00134109      -0.00686133
C       -0.10582247       4.19394236       3.94599022      -0.00028276       0.00287337       0.00448126
C       -1.24421759       6.35764224       3.81907056       0.01202575      -0.00328245       0.01521530
C       -2.48392481       8.51368237       3.89028000       0.00401533       0.00617763      -0.00446991
C        4.89264840      -0.02030460       3.81369943      -0.00014100       0.00036282      -0.00364276
C        3.62736096       2.07591583       3.52308002       0.00409625      -0.00186686       0.00871079
P        1.42553657       6.23565679       2.85038925      -0.01133023      -0.01220089      -0.01066146
C       -0.02599644       8.52396087       3.69559483       0.00371404       0.00097170       0.00184021
C        7.34949744      -0.00310852       3.89606897      -0.00746015       0.00202381       0.00970449
C        6.12391005       2.12022425       3.69523507      -0.00137404       0.00216894      -0.00080108
C        5.01542796       4.28137998       3.25289768       0.00611993       0.00609007      -0.00627484
B        3.63976842       6.42610310       3.37579186       0.00059228      -0.00483873       0.00653549
C        2.43673900       8.59003414       3.70868330      -0.00016083       0.00517649       0.01138813
C        9.82542541      -0.01096643       4.05468428       0.00418000      -0.00835785      -0.00562690
C        8.57686660       2.12061704       4.03073491      -0.00137698      -0.00357076      -0.00434738
C        7.37689257       4.25863922       3.82286252       0.00424127      -0.00184378      -0.00663069
C        6.17138007       6.41010510       3.70357136      -0.00321903       0.00506058       0.00012065
C        4.91483181       8.54720390       3.85849620      -0.00175282      -0.00571926       0.00846713
C       -0.05256577       1.39543312       4.11786228      -0.00328568      -0.00212762       0.00728020
C       -1.30006691       3.50955721       4.12403387      -0.00033712      -0.00263998      -0.00590541
C       -2.48629951       5.66553807       3.96558816       0.00358190       0.00055997      -0.01016395
C       -3.71986507       7.81037708       3.94246001      -0.00148219       0.00356667      -0.00573402
C       -4.96607049       9.95255815       4.02691423      -0.00517320      -0.00381120      -0.00459182
C        2.39815278       1.41380635       3.83278604       0.00048403      -0.00384946       0.01307080
O        1.08652429       3.45992632       3.95071966      -0.00033196       0.00870526      -0.00009315
C       -0.04655582       5.57100291       3.71294338       0.01461621       0.00033827       0.00434108
C       -1.25248360       7.79246116       3.77792477       0.00493088      -0.00184385       0.00199003
C       -2.50308938       9.94592893       3.88721606      -0.00135081       0.00644396       0.00011040
C        4.87769844       1.41012660       3.67040386       0.00267285      -0.00277004      -0.00173706
P        3.56539872       3.54909921       2.51204052      -0.00244246       0.01650069       0.00536877
C        1.22348769       7.88640716       3.50624643       0.00307827       0.00435905      -0.00353845
C       -0.04179943       9.95697988       3.81283200      -0.00266942      -0.00014084      -0.00792180
C        7.34361078       1.41781266       3.90020959      -0.00481236       0.00116150      -0.00724810
C        6.16898069       3.53648142       3.57858729       0.00139864       0.00171458       0.00313987
C        4.97701272       5.69193569       3.41669917       0.00587512       0.00361245      -0.00344179
C        3.67550462       7.89598543       3.65407072      -0.00091784       0.00197175      -0.00484834
C        2.42106456       9.98935938       3.92617100      -0.00300732       0.00484976       0.00393771
C        9.81605543       1.40715330       4.12398277      -0.00269585      -0.00849641       0.00140801
C        8.58558716       3.54264514       4.00693080       0.00666646      -0.00162247      -0.00857999
C        7.38973603       5.68324170       3.83898627      -0.00614947       0.00022144      -0.01500196
C        6.15238120       7.82560563       3.85748108      -0.00344646       0.00182779      -0.00728896
C        4.89953997       9.95936731       4.03376688       0.00452307      -0.00822617      -0.00383142
Co       2.61972308       4.83652042       4.02357703      -0.00051093      -0.00729649       0.00539409
O        2.60307853       4.65929603       5.79853592      -0.00747591       0.01378652       0.01055207
O        3.38284288       5.69919806       6.48177960       0.01074123      -0.00412856      -0.00174879
H        3.99215760       5.12026268       6.98464520      -0.00327177      -0.00211272       0.00629606
