53
Lattice="12.336457 0.0 0.0 -6.168228499999997 10.683685154694365 0.0 0.0 0.0 15.0" Properties=species:S:1:pos:R:3:forces:R:3 energy=-464.44786535626685 free_energy=-464.44786535626685 stress="-0.005995013386514793 -6.822190656954191e-06 -3.3910412650676897e-06 -6.822190656954191e-06 -0.00314321098892802 1.5766482133271527e-05 -3.3910412650676897e-06 1.5766482133271527e-05 8.268780910089461e-06" pbc="T T T"
C        0.06136989      -0.01840269       3.70467956       0.00310362      -0.00099908       0.00419013
C       -1.17941060       2.11166174       3.70969069       0.00536183       0.00411127      -0.01355687
C       -2.41175044       4.25525030       3.70150843       0.00169286      -0.00133926      -0.00293704
C       -3.63616911       6.39525910       3.69325517      -0.00065091       0.00172983      -0.00811834
C       -4.86596701       8.53682042       3.70233839      -0.00126174       0.00100648       0.00076418
C        2.53165589      -0.00717156       3.71510195       0.00073628       0.00082160      -0.00308461
C        1.28792527       2.11949244       3.79004656      -0.00322958       0.00486805      -0.00082291
C        0.03431519       4.25076646       3.85229938      -0.00006282       0.00204278       0.00381728
C       -1.17848565       6.39910404       3.77233475       0.00273739       0.00125598       0.00372721
C       -2.40597462       8.53662179       3.70330482      -0.00751353       0.00465982       0.00398972
C        5.00144135      -0.01817679       3.70220160       0.00831503       0.00246469      -0.00051245
C        3.77523007       2.12061162       3.78140898      -0.00009843      -0.00142210       0.00012182
B        2.53248761       4.29297480       4.06184116       0.00099505      -0.00873898      -0.00721127
C        1.25882178       6.41012398       4.05997924      -0.00692042      -0.00279064       0.00238675
C        0.05873833       8.52776401       3.76733927      -0.00577717      -0.00398478      -0.01302675
C        7.46757979      -0.02643680       3.69633293      -0.00347639       0.00420092      -0.00021907
C        6.24237608       2.11219437       3.69482780      -0.00117065      -0.00151989      -0.00031521
C        5.02859196       4.25208248       3.83689785       0.00459513       0.00080064      -0.00098811
C        3.80693736       6.40940240       4.07870845      -0.00148290      -0.00291117       0.00443156
C        2.53302163       8.52375682       3.83756720      -0.00212025      -0.00087887      -0.00614097
C        9.93240862      -0.02633101       3.69813168       0.00223911       0.00352941       0.00629077
C        8.70000753       2.11348535       3.66198798      -0.00309073      -0.00479791       0.00941668
C        7.47537340       4.25542395       3.69139862       0.00018977      -0.00322746       0.00468608
C        6.24148711       6.39887232       3.76461674      -0.00296685       0.00315894       0.00431187
C        5.00483073       8.52682149       3.76515594       0.00210157      -0.00441772      -0.00302792
C        0.05474707       1.40154277       3.72592861       0.00140760       0.00029481       0.00611982
C       -1.18977532       3.53675937       3.74082750       0.00300977       0.00251845      -0.00006030
C       -2.40734425       5.68202244       3.71247347       0.00349566       0.00244998       0.00633499
C       -3.63581058       7.82271770       3.69343541      -0.00638926       0.00265330       0.01114537
C       -4.86932165       9.95980262       3.70507817       0.00129272      -0.00074026      -0.01105623
C        2.53180029       1.41517011       3.76552726      -0.00411327       0.00239863       0.01168246
C        1.24392153       3.53273719       3.89270320      -0.00214142       0.00426331      -0.00155290
C        0.05073327       5.68527476       3.89594795       0.00185430      -0.00204966      -0.01052586
C       -1.17425818       7.82207900       3.74835153      -0.00798187       0.00064169      -0.00819555
C       -2.40382205       9.95960542       3.70248610       0.00523033       0.00472502       0.00313095
C        5.00816305       1.40208347       3.71761710       0.00209762       0.00011043      -0.00729100
C        3.81881142       3.53461721       3.87826807       0.00589257      -0.00263932       0.00698118
C        1.29448542       7.81028266       3.87517708      -0.00559835      -0.00279192       0.00900903
C        0.06547456       9.94881177       3.71355918       0.00245192      -0.00252085      -0.00605746
C        7.47086520       1.39733229       3.66832129      -0.00555101      -0.00005951       0.01018114
C        6.25269325       3.53747270       3.72343035       0.00201463      -0.00331817       0.00376268
C        5.01263851       5.68576942       3.88878633      -0.00270791       0.00153303      -0.00002190
C        3.77067116       7.80977395       3.88052658      -0.00079738      -0.00370081       0.00136441
C        2.53199380       9.94194907       3.72743089      -0.00248611       0.00537626       0.00508248
C        9.92888450       1.39730186       3.67666259       0.00376601       0.00334041      -0.00262456
C        8.70010103       3.53985914       3.67051872       0.00132486      -0.00520014      -0.00631736
C        7.47130476       5.68194433       3.70670771      -0.00246981       0.00126684      -0.00436605
C        6.23860518       7.82202347       3.74300563       0.00292820       0.00088876       0.00253192
C        4.99762837       9.94861351       3.71299425       0.00313748      -0.00300777       0.00024728
Co       2.53025306       5.74944464       5.27710172       0.00781344       0.00821561      -0.00606574
O        2.47008036       5.51392688       7.07145224      -0.00066881      -0.00795325      -0.00237870
O        1.10652383       5.78363639       7.54945895       0.00609729      -0.01083130       0.00276846
H        1.34441244       6.44076067       8.23075985      -0.00515444       0.00651389      -0.00200107
