49
Lattice="12.336457 0.0 0.0 -6.168228499999997 10.683685154694365 0.0 0.0 0.0 15.0" Properties=species:S:1:pos:R:3:forces:R:3 energy=-432.11610343979606 free_energy=-432.11610343979606 stress="-0.008793176055818685 0.0027134971408022835 -2.7277049358262655e-07 0.0027134971408022835 -0.008259010166611912 -2.2585546971437196e-06 -2.7277049358262655e-07 -2.2585546971437196e-06 -4.166445731384769e-07" pbc="T T T"
C        0.00135710       0.00423665       3.68064176       0.00614726       0.00063526       0.00659472
C       -1.23120248       2.14069480       3.63417465       0.00539166      -0.00324542       0.00433505
C       -2.49690393       4.28256181       3.70035341       0.00407454      -0.00601692      -0.00252092
C       -3.72624016       6.41485907       3.76281872      -0.00495027      -0.00153393      -0.00552700
C       -4.94840071       8.54750325       3.74340744       0.00726519      -0.00755961      -0.00619730
C        2.47598018       0.00773132       3.77863176      -0.00069426      -0.00032578      -0.01450011
C        1.25865359       2.12180301       3.64822355      -0.00551660      -0.00003878      -0.01473750
C       -0.08319680       4.30382859       3.64878039       0.00419237      -0.00024354      -0.00789299
C       -1.27328520       6.43245697       3.78586633       0.00286712       0.00064353       0.00172809
C       -2.48353923       8.55395176       3.80577975       0.00646058       0.00479001       0.00882637
C        4.93647855      -0.00522376       3.81330858       0.00431997      -0.00655803       0.00239631
C        3.74642047       2.10112560       3.84104799      -0.00191033      -0.00895626       0.00714129
B        1.29028196       6.38579303       3.90233207      -0.00019404       0.00510545      -0.00182059
C       -0.01139438       8.55425673       3.83224299      -0.00538091       0.00513567      -0.00798584
C        7.40504451       0.00360974       3.77192549      -0.00898072       0.01699233       0.00009372
C        6.18937496       2.11563438       3.80236228      -0.00630475      -0.00193188      -0.00258431
C        4.99763607       4.21547447       3.83029175      -0.00309318       0.00489730       0.00341034
B        3.63426184       6.39122792       3.62081929       0.00011037      -0.00589167       0.00493321
C        2.46318037       8.58254131       3.73874668      -0.00978916      -0.00212659       0.00228960
C        9.87574040       0.01397134       3.68215974      -0.00333837      -0.00763884       0.00693399
C        8.64175695       2.13809527       3.71946584       0.01526009      -0.00518696      -0.01111801
C        7.40432273       4.27182359       3.75617707      -0.00902649      -0.00184879       0.00168126
C        6.14825785       6.39211313       3.73729384      -0.00435833       0.01304339       0.00637055
C        4.93297068       8.55469582       3.67222779       0.00558617       0.00674738      -0.00527340
C        0.00774634       1.43190715       3.64352071      -0.00012030      -0.00423660      -0.00195423
C       -1.27208146       3.56064497       3.63937577       0.00728033      -0.00412236      -0.00155881
C       -2.50296650       5.70658303       3.74947654      -0.00070451      -0.00142790       0.00452718
C       -3.71820094       7.83963937       3.77543659       0.00989957      -0.00452477       0.00431728
C       -4.93347936       9.97724608       3.73373703       0.00647388      -0.01128571      -0.00070782
C        2.50095741       1.44099828       3.76828990      -0.00789458      -0.00060733      -0.01058953
B        1.21399751       3.58347010       3.54297066      -0.00955988      -0.00394985       0.00470633
C       -0.06638664       5.70437112       3.77177476       0.00319958       0.00009504      -0.00100764
C       -1.25528344       7.85031172       3.82246362       0.00328843       0.00446642       0.00338523
C       -2.47076871       9.97849800       3.80922035       0.00261668       0.00410592       0.00097566
C        4.95718015       1.41425961       3.81826909      -0.00286132      -0.01015895       0.00933091
O        3.83514854       3.47367426       4.05648446      -0.00071978      -0.00752724       0.00642708
C        1.23703912       7.87722689       3.83208046      -0.01307513       0.00365343      -0.00506305
C       -0.00079605       9.97518012       3.80915658       0.00046316       0.00245033       0.01066170
C        7.41087494       1.42240346       3.76668458       0.00342118       0.01307538      -0.00648467
C        6.19543551       3.52676751       3.79106434      -0.00896091      -0.00299685       0.00079037
C        4.93458558       5.61937527       3.75604521       0.00520705       0.00745981       0.01293606
C        3.68493831       7.87542437       3.65723216       0.00166670      -0.00202528       0.01084388
C        2.47166726       9.99946799       3.72870592      -0.01462540       0.00285464       0.00108934
C        9.87466772       1.43231519       3.67237908       0.01190235      -0.00696374       0.00477030
C        8.62823823       3.56170361       3.72503346       0.00207978      -0.00456146      -0.01001823
C        7.38413129       5.69073345       3.75400455      -0.01718866       0.00376356      -0.00056533
C        6.15480783       7.82447953       3.71173426       0.00209760       0.00920461      -0.00771395
C        4.93830618       9.98249536       3.67194961       0.00294650       0.00661908       0.00067407
Co       2.52007916       4.90460691       4.03855072       0.01502978       0.00775248      -0.00634865
