50
Lattice="12.336457 0.0 0.0 -6.168228499999997 10.683685154694365 0.0 0.0 0.0 15.0" Properties=species:S:1:pos:R:3:forces:R:3 energy=-435.26023380211655 free_energy=-435.26023380211655 stress="-0.0009996368018760874 0.002847953339804138 -6.4843591222778716e-06 0.002847953339804138 -0.006511888641175434 7.12003866706948e-06 -6.4843591222778716e-06 7.12003866706948e-06 -4.623144751027126e-06" pbc="T T T"
C        0.01854554       0.00146772       3.64465828      -0.00114247      -0.00280006       0.00013929
C       -1.21021120       2.14697583       3.40827116      -0.00817786       0.00215140       0.00739444
C       -2.47393669       4.28443604       3.51320590       0.00017521      -0.00425120      -0.00249498
C       -3.71415746       6.40091513       3.74777995      -0.01066497       0.00087188      -0.00067859
C       -4.94245573       8.52566818       3.79873310       0.00047994       0.00022276       0.00359036
C        2.48661796      -0.02053879       3.76972218      -0.00034376      -0.00265781      -0.00741044
C        1.28873106       2.10192294       3.41622743       0.00100253       0.00474301       0.00305077
C       -0.04894352       4.31918394       3.25095757      -0.00236188      -0.01046634      -0.01047119
C       -1.22427700       6.41025794       3.74086442      -0.00314271      -0.00837484       0.00683381
C       -2.45770007       8.52647464       3.86044475      -0.00240851       0.00901111       0.00353072
C        4.95068370      -0.02377743       3.81634923       0.00506779      -0.00030966      -0.00873249
C        3.76157798       2.06357817       3.80146264      -0.00041439      -0.00451452       0.00433359
P        1.53684819       6.22524000       4.36339284      -0.00189570      -0.00331490      -0.00390390
C        0.01702415       8.55440111       3.99796803       0.00092040       0.00251564      -0.00062304
C        7.41404987       0.02451445       3.79844004       0.00201227       0.00824884      -0.00435900
C        6.19162727       2.12596866       3.73312824       0.00409294      -0.00153802       0.00401364
C        4.98235287       4.21795633       3.94777452       0.00746576       0.00251494      -0.00647468
B        3.53495565       6.38440782       3.99737653       0.00900332       0.00996469      -0.01250131
C        2.48398338       8.63691674       3.98153078       0.00364049       0.00240964       0.00138313
C        9.89751717       0.03547487       3.68421066      -0.00304110       0.00089310      -0.00088987
C        8.65408168       2.15040049       3.59466525      -0.00388882       0.00312506      -0.00490798
C        7.40108082       4.27439232       3.69728639       0.01024945      -0.00059870       0.00133584
C        6.11897261       6.37650427       3.85031381      -0.00204731       0.00451340      -0.00568124
C        4.93516841       8.55327897       3.82311317      -0.00178856      -0.00999397       0.00351728
C        0.03478892       1.43067339       3.46786147      -0.00207132       0.00533007       0.00198199
C       -1.24877464       3.56660218       3.34165912      -0.00062168      -0.00121042       0.00038716
C       -2.47448548       5.70196589       3.65403272      -0.00760478      -0.00555332       0.00257569
C       -3.70458405       7.81981760       3.81185571      -0.00225030       0.00364718       0.00628930
C       -4.92641724       9.95544544       3.74504011       0.00097151      -0.00335632      -0.00018080
C        2.51028269       1.40883532       3.68288954      -0.00057407      -0.00566867      -0.00493027
P        1.48992642       3.69810859       2.69194769       0.00039396       0.01151326       0.01343683
C       -0.01596083       5.67600503       3.60333756       0.00355925      -0.00777941       0.00321733
C       -1.22317791       7.82632966       3.90176511      -0.00202933       0.00062837       0.00111934
C       -2.45502505       9.95287555       3.83956330       0.00185138       0.00619669      -0.00000274
C        4.96801336       1.39879606       3.75922840       0.00231673      -0.00186754       0.00594953
O        3.85278555       3.41022428       4.19612501      -0.00447444       0.00379543       0.01296846
C        1.26843202       7.94994018       4.15992313       0.00146664      -0.00548022      -0.00233214
C        0.01766168       9.97731509       3.87852445       0.00590146       0.00382142      -0.00145456
C        7.41721251       1.44027939       3.69585399       0.00176236       0.00505625       0.00089199
C        6.18050672       3.54100673       3.76499448       0.01016574      -0.00063648      -0.00481485
C        4.87279334       5.62308572       3.95048571       0.00392232       0.00445380      -0.00870671
C        3.68915660       7.88766534       3.93146938      -0.00253833      -0.00420091      -0.00465327
C        2.48941362      10.03833028       3.81927584      -0.00139830       0.00080975      -0.00132835
C        9.89658409       1.44712092       3.54814682      -0.00945987       0.00286605      -0.00236576
C        8.63744794       3.57085169       3.58512110       0.00578610      -0.00179037       0.00123082
C        7.37419744       5.68868393       3.76033790      -0.00644401       0.00041055       0.00528844
C        6.15137441       7.80865864       3.82382075       0.00059018      -0.00009339      -0.00634768
C        4.95370150       9.98910993       3.71347296      -0.00201782      -0.00808237      -0.00170829
Co       2.48261737       4.25185721       5.21288921      -0.00689498      -0.00069846       0.00314041
O        1.43209231       5.63894732       5.84344432       0.00689959      -0.00447637       0.01035401
