51
Lattice="12.336457 0.0 0.0 -6.168228499999997 10.683685154694365 0.0 0.0 0.0 15.0" Properties=species:S:1:pos:R:3:initial_magmoms:R:1:forces:R:3 energy=-439.3046342428828 free_energy=-439.3046342428828 stress="-0.002969706504892083 0.0001045041038818928 5.590970939625556e-06 0.0001045041038818928 0.0012734146313553606 5.5143877171854285e-06 5.590970939625556e-06 5.5143877171854285e-06 -8.699853491582604e-06" pbc="T T T"
C       -0.02577405       0.04352908       3.82945783       0.00000000       0.00337888      -0.00781157       0.00250026
C       -1.26118911       2.17496345       3.84609522       0.00000000      -0.00101725       0.00271987      -0.00387535
C       -2.47227411       4.30651426       3.85705031       0.00000000      -0.00466410      -0.00100249      -0.00627719
C       -3.69979371       6.44461839       3.84416741       0.00000000       0.00741767       0.00585590      -0.00113766
C       -4.95721092       8.59017344       3.84183040       0.00000000      -0.00494401       0.00035990      -0.00478298
C        2.43247925       0.05885900       3.76150680       0.00000000       0.00804105      -0.00303215       0.00164590
C        1.17197466       2.18226022       3.69002173       0.00000000      -0.01358300      -0.00049099      -0.00056146
C       -0.03677925       4.31773616       3.80395416       0.00000000       0.00309657      -0.00192774      -0.00610221
C       -1.23368961       6.43057803       3.87845434       0.00000000       0.00898764       0.00995256      -0.00550370
C       -2.48692190       8.57995472       3.85199339       0.00000000      -0.00149751      -0.00790589      -0.00184339
C        4.90493964       0.03078527       3.71644355       0.00000000      -0.00387158      -0.00861067      -0.00902934
C        3.66557011       2.13327766       3.33460020       0.00000000       0.00155542      -0.00554988      -0.00226970
O        1.15932490       6.45524114       3.82351418       0.00000000      -0.00080986      -0.00353971       0.01203245
C       -0.02951298       8.55767513       3.84287028       0.00000000       0.00494069       0.00316154      -0.00383006
C        7.36803780       0.01787049       3.77436332       0.00000000      -0.00997128      -0.00043180       0.00540542
C        6.15422830       2.15345958       3.54916086       0.00000000       0.00864580       0.00713172      -0.00271523
C        5.02349747       4.29102087       3.29440571       0.00000000      -0.00506527       0.00326169       0.00298080
B        3.71418265       6.43859956       3.75579084       0.00000000       0.00425092       0.00141388      -0.00378137
C        2.40001780       8.55941294       3.82965347       0.00000000       0.00474200       0.00348969      -0.00003707
C        9.83404372       0.02175904       3.83864049       0.00000000       0.00078954       0.00638806      -0.00238646
C        8.61209961       2.16195709       3.78260788       0.00000000       0.00432224      -0.01282805      -0.00323935
C        7.41306626       4.29990700       3.69806645       0.00000000       0.00250242       0.00308032      -0.00455294
C        6.20075915       6.45579962       3.72312334       0.00000000      -0.00857028      -0.00563994       0.01345339
C        4.90753897       8.58401813       3.82149725       0.00000000      -0.00180272       0.00167714       0.00001011
C       -0.02705751       1.47526848       3.80631394       0.00000000      -0.00957863      -0.00613899       0.00530735
C       -1.24398025       3.60028294       3.85408595       0.00000000       0.00038807       0.00241529      -0.00800312
C       -2.46644824       5.72389144       3.86927017       0.00000000       0.01041471       0.00579478       0.00500046
C       -3.72148135       7.87269250       3.85500005       0.00000000      -0.00533080       0.00208745       0.00534714
C       -4.96291714      10.02126663       3.82687932       0.00000000       0.00947518      -0.00090019       0.00499462
C        2.41855711       1.49536385       3.60803348       0.00000000      -0.00855836       0.00148494       0.00103897
O        1.12918362       3.56814945       3.74603368       0.00000000       0.00621653       0.00385374      -0.00394131
C       -0.02363458       5.72677177       3.83602165       0.00000000       0.00038030      -0.00397775      -0.00256931
C       -1.26048141       7.85810124       3.86817829       0.00000000       0.00566467       0.00718792      -0.00221965
C       -2.49955007      10.01439814       3.78375122       0.00000000       0.00113221      -0.01324040      -0.00146420
C        4.89963452       1.45824592       3.52696516       0.00000000       0.00686276      -0.00370835      -0.00722873
S        3.64208909       3.63533754       2.39378567       0.00000000       0.00563749       0.01457714      -0.00001478
C        1.17366327       7.83997320       3.83424477       0.00000000       0.00430733       0.00003802       0.00335429
C       -0.02751898       9.99148723       3.78317387       0.00000000      -0.00797278      -0.00166686      -0.00326509
C        7.37695874       1.44573601       3.70998322       0.00000000       0.00186132      -0.00307503       0.00408155
C        6.21570544       3.55897495       3.48922766       0.00000000      -0.00231942       0.00951112       0.01458309
C        5.00109126       5.70590732       3.57931003       0.00000000      -0.01263564      -0.00183242       0.00519437
C        3.65467733       7.89650472       3.80637579       0.00000000       0.00271896      -0.00048010       0.00062107
C        2.42272854       9.98597255       3.82554558       0.00000000      -0.00373832       0.00696215       0.00278613
C        9.84808210       1.45388801       3.83577275       0.00000000       0.00666094       0.00068034       0.00391641
C        8.63266660       3.58502208       3.79245972       0.00000000      -0.00425690      -0.01291405      -0.00947733
C        7.41521014       5.73052853       3.76033366       0.00000000       0.00406036       0.00508894      -0.00651453
C        6.14806384       7.87368260       3.80707459       0.00000000      -0.00649475      -0.00342473       0.00577974
C        4.90830489      10.00815571       3.84398475       0.00000000      -0.00037877       0.00046582      -0.00359130
Co       3.35075644       4.67614516       4.21785750       0.00000000      -0.00835569      -0.00397618      -0.00130311
O        2.23219481       4.85357166       5.72633383       1.00000000      -0.01101545       0.00487526       0.00156673
O        2.83877312       3.67319142       5.69081026       1.00000000       0.00798074       0.00059073       0.00991767
