51
Lattice="12.336457 0.0 0.0 -6.168228499999997 10.683685154694365 0.0 0.0 0.0 15.0" Properties=species:S:1:pos:R:3:initial_magmoms:R:1:forces:R:3 energy=-443.534388251623 free_energy=-443.534388251623 stress="-0.004629645077911885 0.0016431004681446806 -5.03702248450817e-06 0.0016431004681446806 -0.002688994237658308 -2.2868714752932173e-05 -5.03702248450817e-06 -2.2868714752932173e-05 1.7932848063819772e-05" pbc="T T T"
C       -0.02825092      -0.01792604       3.70408874       0.00000000       0.00433870       0.00811994       0.00231457
C       -1.26477886       2.11121174       3.65680626       0.00000000       0.00038525      -0.00027501      -0.00991824
C       -2.52847547       4.25507528       3.49912897       0.00000000       0.00920447      -0.00984878       0.00558332
C       -3.75859006       6.39331966       3.49927716       0.00000000       0.00246060      -0.00708253       0.00486734
C       -4.98019400       8.52284024       3.64293047       0.00000000       0.00348839       0.00400819       0.00705010
C        2.44577417      -0.00567001       3.66804897       0.00000000      -0.00380913      -0.00987500      -0.00757969
C        1.22532531       2.11009734       3.88755157       0.00000000      -0.00434104      -0.00383293      -0.00626109
C       -0.13125602       4.26720211       3.85467386       0.00000000      -0.00071931       0.00809016       0.00611737
C       -1.31418170       6.40499902       3.64702612       0.00000000       0.01312214       0.01391981      -0.00315929
C       -2.51134008       8.53329798       3.58869526       0.00000000       0.00008161       0.00117003      -0.00244631
C        4.90582731      -0.02360368       3.58695881       0.00000000      -0.00540915      -0.01066372      -0.00608689
C        3.71818329       2.09768264       3.68880089       0.00000000      -0.00193565       0.00210055       0.00097597
B        1.17095835       6.37764461       4.14461155       0.00000000      -0.01021799       0.00331742      -0.00667278
C       -0.03683813       8.52809811       3.73175999       0.00000000      -0.00489470      -0.00109058       0.00675458
C        7.37916685      -0.02825506       3.59236966       0.00000000      -0.00694379       0.00258334       0.00597093
C        6.15073208       2.10212860       3.47514086       0.00000000      -0.00252869      -0.00556338      -0.00361546
C        4.94379359       4.20998162       3.65432609       0.00000000       0.00626770       0.00405465      -0.01172900
B        3.78741997       6.39265577       4.51119879       0.00000000       0.00447173      -0.01366600       0.00205615
C        2.45262881       8.53820353       3.90196630       0.00000000      -0.00985906       0.00346679      -0.00060370
C        9.84406339      -0.01983698       3.65373397       0.00000000       0.01267686       0.00651332       0.00781408
C        8.61084983       2.10878158       3.47520337       0.00000000      -0.00010864      -0.00265538      -0.00236468
C        7.36528553       4.24892618       3.44010314       0.00000000      -0.00334048      -0.00500298       0.00034332
C        6.12090772       6.35952962       3.69197695       0.00000000      -0.01362017       0.00227192       0.00579969
C        4.89615139       8.52659179       3.83469228       0.00000000       0.00057622      -0.00343682      -0.00247412
C       -0.01928289       1.41268830       3.75326833       0.00000000      -0.00522417       0.00319934      -0.00497322
C       -1.30561353       3.53194547       3.63931401       0.00000000       0.00963535      -0.00373126      -0.00548658
C       -2.53653559       5.68081632       3.51407515       0.00000000       0.01606150      -0.00257790       0.00243128
C       -3.74764791       7.81808518       3.56391052       0.00000000       0.00273129      -0.00041207       0.00595907
C       -4.96265753       9.95644796       3.67859237       0.00000000      -0.00204675       0.00282819      -0.00513415
C        2.47095915       1.42336232       3.75918135       0.00000000      -0.00442197      -0.00849425      -0.00110251
B        1.15764227       3.56331895       4.18304607       0.00000000      -0.00398536       0.00331764      -0.00674253
C       -0.13255825       5.67357840       3.84950143       0.00000000       0.00642870       0.00980051       0.00697262
C       -1.28375580       7.82638601       3.65357677       0.00000000       0.00134932       0.01008720      -0.00745361
C       -2.50002302       9.96031062       3.60957125       0.00000000      -0.00393854      -0.00802089       0.00553821
C        4.91896927       1.40021416       3.56095879       0.00000000      -0.00420486      -0.00713241      -0.00796735
O        3.77243509       3.47320668       3.74795932       0.00000000       0.01196489       0.00491139       0.01217982
C        1.20098839       7.84529565       3.92658837       0.00000000      -0.00949651      -0.00001250       0.00663502
C       -0.02958625       9.94943486       3.62296392       0.00000000      -0.00587458      -0.00760312       0.00323142
C        7.37654647       1.39532914       3.48394271       0.00000000      -0.00247365       0.00084256       0.00953423
C        6.14630055       3.51886356       3.46617928       0.00000000       0.00117900      -0.00598384       0.00100481
C        4.93152467       5.59604644       3.87466668       0.00000000      -0.00888101      -0.00005617      -0.00363978
C        3.67776653       7.85360689       4.03766190       0.00000000      -0.00726788      -0.00879023      -0.00557445
C        2.44525518       9.95625356       3.69686518       0.00000000       0.00092405       0.01192814       0.00177570
C        9.84388192       1.40109849       3.56941989       0.00000000       0.00289140       0.00410603       0.00409226
C        8.59503024       3.53451575       3.43529023       0.00000000       0.00076423      -0.00636184       0.00076714
C        7.35363153       5.66759802       3.50558963       0.00000000      -0.01275807      -0.00201110      -0.00130185
C        6.12887423       7.79838426       3.74202916       0.00000000       0.00199762       0.00095411      -0.00146321
C        4.90630256       9.95757437       3.71715284       0.00000000       0.01259043       0.00221633       0.00573653
Co       2.21801953       4.96213702       4.94308943       0.00000000       0.00796916       0.00536828       0.00841002
O        3.41760939       4.62703354       6.24753237       1.00000000       0.00511919       0.00814033      -0.00784235
O        3.36887711       6.10699033       5.90579426       1.00000000      -0.00037867       0.00686452      -0.00832275
