50
Lattice="12.336457 0.0 0.0 -6.168228499999997 10.683685154694365 0.0 0.0 0.0 15.0" Properties=species:S:1:pos:R:3:forces:R:3 energy=-432.3261508905662 free_energy=-432.3261508905662 stress="-0.004664769334497897 -0.0006549042029471813 -1.2774270369114146e-05 -0.0006549042029471813 -0.004213338734843357 -4.125285587900807e-07 -1.2774270369114146e-05 -4.125285587900807e-07 7.263956830468529e-06" pbc="T T T"
C       -0.00602215      -0.01269590       3.83297074       0.00687900      -0.00391458       0.00197831
C       -1.24539778       2.12937431       3.84225092      -0.00452915      -0.00099429      -0.00136222
C       -2.50326360       4.26181431       4.11204302      -0.00362928       0.00181415       0.01007114
C       -3.72085217       6.40253048       4.10008632      -0.00229465      -0.00226501       0.00009068
C       -4.95011733       8.53051200       3.91851729      -0.00695436       0.00243961      -0.00183443
C        2.46405203      -0.02704870       3.81272427      -0.00598355       0.00756742       0.00202510
C        1.21906131       2.06197376       3.43293895      -0.00066058      -0.00871148       0.01107519
C       -0.12031470       4.32325848       3.79058250       0.00747386       0.00597290       0.00874677
C       -1.26644395       6.40048863       4.24718011       0.00422551      -0.00655806       0.00158377
C       -2.47561598       8.53456948       4.11402694       0.00049463       0.00139178       0.00836858
C        4.93072814      -0.02275772       3.89279661      -0.00522605       0.00303975       0.00065941
C        3.71578160       2.02977011       3.28404936       0.00659253      -0.00690334      -0.00838277
B        1.29734204       6.34225050       4.45800118       0.01138372      -0.01494366      -0.00052732
C        0.00994243       8.52715716       4.13646757       0.00814538       0.00305131       0.00067791
C        7.39326101      -0.01249253       3.96473717      -0.00066207       0.00031078      -0.00738950
C        6.16985379       2.11265469       3.69164049       0.00225580       0.00435388       0.00430500
C        5.12312121       4.27236427       3.11115699      -0.00295450       0.00493034       0.00976421
S        3.66241634       6.46483559       2.48375456      -0.00834872      -0.00324064       0.00323849
C        2.45518351       8.53293626       3.85373077       0.00069177       0.00383369       0.00251190
C        9.86309842      -0.00942539       3.89987139       0.00113513      -0.00420111      -0.00096624
C        8.62451918       2.12374904       3.96802325      -0.00726004       0.00724001      -0.00280567
C        7.40231164       4.26269313       3.89138028      -0.00237811      -0.00491716      -0.01084778
C        6.20292759       6.41289399       3.61727140       0.01327269      -0.00497275       0.00020449
C        4.92790818       8.53776379       3.68326037      -0.00528684       0.00204194       0.00133788
C       -0.00696397       1.41849900       3.72675545       0.00374965      -0.00956040       0.00176579
C       -1.28245775       3.54352948       3.94500893       0.00342626       0.00721363       0.00442277
C       -2.50128151       5.68487763       4.19477643      -0.00096680       0.00327406      -0.00530312
C       -3.71493289       7.82493675       4.06650685      -0.00387147       0.00192959      -0.00760138
C       -4.94242084       9.95863029       3.87395836       0.00097722      -0.00031090       0.00203798
C        2.46493629       1.38295506       3.49506118       0.00249173      -0.00518814      -0.00292808
S        1.12453016       3.66671263       2.78080247      -0.00288354      -0.00116993      -0.00188847
C       -0.06256337       5.66667785       4.15290359       0.00608206       0.00046053      -0.00765690
C       -1.24570437       7.82795636       4.21561495       0.00296064      -0.00126014       0.00008122
C       -2.47282608       9.95447685       3.95435426      -0.00807948       0.00381296       0.00310562
C        4.93512697       1.39451720       3.62475808       0.00120209      -0.00041243       0.00064409
S        3.82173419       3.45227864       2.25331155      -0.00623397       0.00641961      -0.00446986
C        1.24864978       7.84341231       4.09947420       0.00096968       0.00185091      -0.00596027
C       -0.00404790       9.95845597       4.01048615      -0.00202888      -0.00042766      -0.00195485
C        7.38724443       1.41361233       3.89840010      -0.00432710       0.00448394       0.00085493
C        6.21381348       3.53063314       3.59288408      -0.00447326       0.00378441       0.00300035
C        5.10136195       5.67647903       3.14046999       0.01175723       0.00024379       0.00432957
C        3.68469773       7.88921924       3.48735108      -0.00206387       0.00772033      -0.00210180
C        2.46214899       9.96752372       3.93407483      -0.00119793      -0.01099989      -0.01214741
C        9.86626314       1.41801289       3.93203482      -0.00559285       0.00031628       0.01122840
C        8.61502309       3.54315139       4.03285691      -0.00594458       0.00586829      -0.00043865
C        7.40145769       5.68790289       3.90359512       0.00755951      -0.00755630      -0.00590908
C        6.16625306       7.82898164       3.72389284       0.00052957       0.00102808      -0.00349023
C        4.92651306       9.96348140       3.84219862       0.00613611      -0.00227599       0.00059826
Co       2.77866303       4.81029171       3.63970245      -0.00929627      -0.00276163       0.00082785
O        2.25740757       5.70231448       5.15883205       0.00273613       0.00715152      -0.00356963
