53
Lattice="12.336457 0.0 0.0 -6.168228499999997 10.683685154694365 0.0 0.0 0.0 15.0" Properties=species:S:1:pos:R:3:forces:R:3 energy=-457.7488273953627 free_energy=-457.7488273953627 stress="-0.0058336258619707485 0.0008966667012442746 -1.291596249092662e-05 0.0008966667012442746 -0.006915620508493602 -2.8916945574683737e-05 -1.291596249092662e-05 -2.8916945574683737e-05 -1.3925610525906644e-06" pbc="T T T"
C        0.02008140      -0.02487783       3.62955878      -0.00025722      -0.00376061       0.00336967
C       -1.21145020       2.11020403       3.56469368       0.00644962       0.01037499      -0.00664191
C       -2.44600051       4.24818176       3.56948616       0.00128358       0.00654848      -0.00081909
C       -3.67963624       6.38217310       3.63759830      -0.00497216       0.00307697       0.00822834
C       -4.92110431       8.51667736       3.69773093       0.00099168      -0.00792284      -0.00574813
C        2.48532382      -0.02921412       3.65204013      -0.00315135      -0.00510004       0.01019996
C        1.24895147       2.10130944       3.78418217       0.00039127       0.00041346      -0.00400094
C       -0.00560534       4.23176342       3.86704717       0.00367668      -0.00014086       0.00315531
C       -1.22331546       6.38290600       3.79266975       0.00358345       0.00276395      -0.00538595
C       -2.44992103       8.51844916       3.65601822      -0.00937586       0.00512049       0.00259267
C        4.95343928      -0.02797943       3.57613178       0.00624407       0.00672488      -0.00833947
C        3.73323822       2.08940138       3.76136479      -0.00274313      -0.00789156      -0.01334652
B        2.51108519       4.21662847       4.35030370       0.00149918       0.00264018      -0.00990738
B        1.24466147       6.41812421       4.34730092      -0.00794936       0.00089863      -0.00583065
C        0.00888517       8.54013042       3.75780439      -0.00291568       0.00330021       0.00861233
C        7.41765774      -0.01269581       3.51818667      -0.00089404       0.00264092      -0.00451953
C        6.19773326       2.10049594       3.52202256       0.00059719      -0.00777313      -0.00913945
C        5.00697001       4.20001817       3.85681332       0.00564913      -0.00575462       0.00979656
P        3.53036842       6.27697167       4.63410085       0.01793599      -0.00675598      -0.00211763
C        2.47265793       8.59282174       3.85999667      -0.00277315      -0.00603750      -0.00361442
C        9.89590425      -0.01221242       3.55512205      -0.00383001       0.00077159       0.00524316
C        8.66248139       2.11481905       3.44206109      -0.00328437      -0.00457331       0.00045184
C        7.43657475       4.24579164       3.56131313       0.00217088       0.00191036      -0.00110698
C        6.20347992       6.37838936       3.84135494      -0.00766944       0.00862474       0.00325539
C        4.95781747       8.53816890       3.84063253       0.00133949      -0.01072156      -0.00177487
C        0.01810565       1.39601103       3.63880146       0.00199254       0.00097778       0.00128870
C       -1.22255999       3.52903812       3.62862260       0.00143520       0.00928251       0.00615831
C       -2.44982931       5.66972249       3.64841128       0.00084238       0.00902482      -0.00494707
C       -3.68464094       7.80647581       3.66219276      -0.00609595      -0.00074458       0.00690967
C       -4.91731704       9.94212851       3.65676134      -0.00256809      -0.00860629       0.01210919
C        2.48758145       1.38779824       3.74235402      -0.00403411      -0.00421121      -0.00543142
C        1.21091439       3.50864876       3.99283813      -0.00016962      -0.00075185       0.00214256
C       -0.02242960       5.64681855       3.99881816       0.00412063      -0.00177290      -0.00920356
C       -1.22154319       7.81189887       3.74541664      -0.00683835       0.00437578      -0.00482315
C       -2.44952986       9.94251572       3.62246351       0.00302073       0.00491723      -0.00043414
C        4.96335853       1.38851540       3.59230278       0.00143607      -0.00274437      -0.00216350
C        3.78394673       3.48794588       3.96527697       0.00259829      -0.01057076      -0.00164154
C        1.24563146       7.88678875       3.96628015      -0.00396681      -0.00274470      -0.00292121
C        0.01650529       9.95612123       3.58754846       0.00386462       0.00593591       0.00838941
C        7.42763845       1.40197086       3.45154497      -0.00265080      -0.00460409      -0.00046023
C        6.21926124       3.51616176       3.60504283       0.00432419      -0.00630094      -0.00554435
C        5.03042384       5.60811558       4.03656992      -0.00145811       0.00427353       0.00054446
C        3.70408346       7.91007665       4.04050210      -0.00064311      -0.00592618       0.00107267
C        2.48664154       9.98317233       3.60256730      -0.00530415      -0.00159809      -0.00518647
C        9.89485272       1.40510071       3.48077599       0.00379311       0.00340756       0.01136928
C        8.66396436       3.53649747       3.48503521       0.00495544      -0.00216699       0.01308854
C        7.43025156       5.66771169       3.66023273      -0.00712252       0.00835587      -0.00071187
C        6.18661701       7.80784305       3.81687434       0.00325915      -0.00282897      -0.00586267
C        4.95599677       9.95481762       3.65356143      -0.00120890      -0.00820403       0.00666739
Co       2.08513830       5.42344716       5.89844793       0.00124847       0.01498200       0.00187798
O        1.69436595       5.16936966       7.65414110       0.00256424       0.00514470       0.00873782
O        1.94485365       6.40832921       8.38775902       0.00465598       0.00621821      -0.00471434
H        2.79362810       6.15489180       8.80083048      -0.00404696      -0.00249776       0.00107721
