49
Lattice="12.336457 0.0 0.0 -6.168228499999997 10.683685154694365 0.0 0.0 0.0 15.0" Properties=species:S:1:pos:R:3:forces:R:3 energy=-434.2293740880259 free_energy=-434.2293740880259 stress="-0.006384567993256771 0.0011740149409237392 -2.9722066164068456e-06 0.0011740149409237392 -0.005014140607487942 -4.729543164744249e-06 -2.9722066164068456e-06 -4.729543164744249e-06 -2.0395297031162413e-06" pbc="T T T"
C       -0.00085872      -0.00385136       3.75513639       0.00205487       0.00255556       0.01105373
C       -1.23234752       2.13560005       3.68202865      -0.00640823      -0.00386687       0.00911342
C       -2.47230438       4.27579194       3.88289049      -0.00586492       0.00246357       0.01190824
C       -3.71600880       6.41157717       3.96427714       0.00711279      -0.00191460      -0.00231289
C       -4.94828264       8.54298866       3.85342251       0.00388250       0.00291942       0.00614097
C        2.46189971       0.00083139       3.88534127      -0.00785437      -0.00513790      -0.01178627
C        1.24814885       2.07181067       3.43688214       0.01001075      -0.00497359       0.01043280
C       -0.07565287       4.32236256       3.45849959       0.01340493      -0.00240162      -0.00802827
C       -1.27487657       6.43430783       3.89262781       0.00579187       0.00488631       0.00691745
C       -2.48782304       8.55882601       4.01530083       0.00324361      -0.00145178      -0.00208995
C        4.93499667       0.00195727       4.01906511      -0.00774133      -0.00497142      -0.00812208
C        3.71362769       2.14703149       3.77310227       0.00061344      -0.00094958      -0.01174975
C        1.16032520       6.43812523       3.59979305       0.00905079       0.00200918      -0.00929886
C       -0.01523795       8.54852791       3.94459734       0.01023678       0.00143648      -0.00216340
C        7.41051420      -0.01266661       3.99744054       0.00756779       0.00879612      -0.00662563
C        6.18930266       2.11590842       3.99965895      -0.00307287      -0.00286641       0.00281359
C        4.98783389       4.22684953       3.69072446      -0.00690555      -0.00465848      -0.00276630
P        3.66847711       6.35662436       2.54324458      -0.00317128       0.00074348      -0.00768442
C        2.46476791       8.55104451       3.69927198      -0.00645195       0.00330459       0.00209490
C        9.87291048      -0.00256259       3.83479386       0.00546888      -0.00272142       0.00039577
C        8.65088446       2.12760176       3.96075430      -0.00759285       0.00837530      -0.00156999
C        7.42083485       4.26464703       3.95523663      -0.00803925      -0.00386306      -0.00231876
C        6.17966727       6.40143879       3.69375848       0.00486437      -0.00376151       0.01769995
C        4.93508943       8.54904745       3.62697793      -0.00974383      -0.00042601       0.00376275
C       -0.00053050       1.41789745       3.61926323       0.00448245      -0.00118545       0.00391902
C       -1.24707198       3.56539848       3.67235332       0.00201797       0.00162715       0.01975742
C       -2.48684544       5.70182540       3.94093131       0.00355519       0.00135886      -0.00444601
C       -3.71662637       7.83860008       3.96097057       0.00607205      -0.00112240       0.00084201
C       -4.93901615       9.96966549       3.83871334      -0.00408013       0.00183006      -0.00102254
C        2.46889374       1.41604912       3.70642476       0.00817036      -0.00765923       0.00014479
P        1.27194939       3.60549472       2.53058572      -0.00386507      -0.00484154      -0.00722796
C       -0.05611975       5.74062535       3.65799710       0.00993357       0.00417138       0.00565395
C       -1.25566246       7.85044478       3.98291108       0.00820296       0.00493484       0.00026873
C       -2.47641205       9.97890742       3.99869547      -0.01199016      -0.00458409      -0.00718836
C        4.94863466       1.41803910       3.95924389      -0.00308298      -0.00405928      -0.00262759
C        3.77200668       3.52934982       3.62657582      -0.01123903       0.00203781      -0.00993603
C        1.21930050       7.81986216       3.75467331       0.00461353       0.00130091      -0.00710455
C       -0.00089814       9.96419766       4.01547318       0.00496734       0.00319294      -0.01029630
C        7.42194195       1.40730232       4.02132593      -0.00009962       0.00795768      -0.00550488
C        6.20794920       3.53272314       3.91915643      -0.00665476      -0.00562222      -0.00092624
C        5.00712160       5.64433617       3.48616307      -0.00425248       0.00088272      -0.00247621
C        3.68732313       7.89485602       3.44132100      -0.01454402      -0.00228443       0.00178065
C        2.47198240       9.96599464       3.88061690       0.00492295       0.00384816      -0.01178385
C        9.88257471       1.42400192       3.84643478      -0.01109378      -0.00266692       0.00560946
C        8.65030369       3.55468784       3.96407723      -0.01029104       0.00502060      -0.00050658
C        7.40581897       5.69074295       3.89671089       0.00803877      -0.00672949       0.01063818
C        6.16630807       7.83119890       3.69570192       0.00057447       0.00205370       0.00231535
C        4.93490477       9.97120545       3.75554507       0.00529792      -0.00087564       0.01252747
Co       2.46367481       4.98132330       3.61802792      -0.00011338       0.00788813       0.00177310
