49
Lattice="12.336457 0.0 0.0 -6.168228499999997 10.683685154694365 0.0 0.0 0.0 15.0" Properties=species:S:1:pos:R:3:forces:R:3 energy=-435.10674431201846 free_energy=-435.10674431201846 stress="-0.005385295498292585 -0.00038848795582530743 3.484220421475527e-07 -0.00038848795582530743 0.0011860164633390282 -1.7671951087880577e-06 3.484220421475527e-07 -1.7671951087880577e-06 1.846037432295698e-07" pbc="T T T"
C       -0.00149446      -0.00289136       3.73915136      -0.00094484       0.00646844       0.00264310
C       -1.24950936       2.12119739       3.56430260       0.00633656      -0.00074263      -0.00806637
C       -2.49208014       4.26792981       3.74392372      -0.00311608      -0.00459097      -0.00943059
C       -3.71056723       6.41144097       3.92877029       0.00462447      -0.00181649      -0.00188979
C       -4.93544156       8.55549792       3.93031018      -0.00626924      -0.00621186      -0.00332137
C        2.46958231       0.01375713       3.79409889      -0.00910028      -0.00039259       0.00274370
C        1.23920382       2.07822637       3.35665574      -0.00409382       0.00272578       0.00227895
C       -0.10651330       4.31410235       3.28891998       0.00505996       0.00327402      -0.00106311
C       -1.28531965       6.42886265       3.72023342       0.00531258      -0.00049450       0.00256013
C       -2.47608716       8.56169632       3.88843323      -0.00176827      -0.00435204       0.00029942
C        4.93873829       0.00392061       3.84757879       0.00868155       0.00005757      -0.00158089
C        3.70653747       2.18480967       3.72003608      -0.00235641       0.00265488       0.00497851
C        1.16126373       6.39521226       3.49817690      -0.01561701       0.00659715      -0.00235027
C       -0.00028314       8.52858194       3.79338887      -0.00064180       0.00585250      -0.00226276
C        7.41162996      -0.03096249       3.83468761       0.00716587       0.00272472      -0.00302359
C        6.17905285       2.12530188       3.87994393       0.00044922      -0.00302473       0.00676720
C        4.94528458       4.28962678       3.90874696      -0.00149903       0.00359853       0.00524595
O        3.80138079       6.43658903       3.97440456      -0.00422523       0.00457124       0.00094854
C        2.49265824       8.48400758       3.80143124      -0.00173400      -0.00012811       0.00955889
C        9.86684435      -0.02922450       3.78192824       0.00460879      -0.00452990      -0.00207800
C        8.63594323       2.11853784       3.81071560       0.00169982      -0.00752756       0.00328031
C        7.40206350       4.26746403       3.93564194      -0.00875796       0.00257052       0.00618205
C        6.18273034       6.42065579       4.01043345      -0.00229038      -0.00140833      -0.01449921
C        4.94360819       8.53447772       3.90405005       0.00718426       0.00341331       0.00626771
C       -0.00891366       1.41296197       3.53839643       0.00085248       0.00185658      -0.00439978
C       -1.27230663       3.55286932       3.52202860       0.00428056      -0.00055577      -0.00674025
C       -2.49435325       5.69599620       3.80880430       0.00715298      -0.00195231      -0.00121550
C       -3.70275260       7.84238471       3.93228503      -0.00434444      -0.00502313      -0.00023286
C       -4.93165257       9.98237707       3.82634159      -0.00978445      -0.00390942       0.01112251
C        2.47069523       1.43493588       3.62343903      -0.00640346       0.00338742       0.00358085
P        1.28302708       3.60636142       2.44299627      -0.00195304      -0.00674381       0.00287098
C       -0.07290884       5.72829342       3.48250056      -0.00308366       0.00392637      -0.00370300
C       -1.25073356       7.84481488       3.81676010       0.00320254      -0.00068342       0.00232643
C       -2.46913776       9.98396591       3.86082862      -0.00000998       0.00045942       0.00321400
C        4.94224231       1.43032921       3.82988068       0.00167829       0.00067427       0.00000054
C        3.73100194       3.58959845       3.73338688       0.00274522       0.00077789       0.00282084
C        1.23565604       7.76698428       3.70776142      -0.00745926       0.00160383      -0.00735863
C        0.00280661       9.95289319       3.84095551       0.01078033       0.00469826      -0.00783975
C        7.41136765       1.39900378       3.85541230       0.00095608      -0.00337909       0.00052326
C        6.18104992       3.55337824       3.92842452      -0.00536997      -0.00202285       0.00059664
C        4.99373669       5.70940508       3.97745762      -0.00479448       0.00368911      -0.00339974
C        3.73487937       7.83831294       3.87969472       0.00383633       0.00622451       0.00160153
C        2.47702424       9.92182014       3.81380969       0.00216186      -0.00073091       0.00509547
C        9.86771287       1.40626559       3.72277865       0.00738824      -0.00438990       0.00012399
C        8.63159980       3.54897624       3.84383930      -0.00745681      -0.00349729       0.00063688
C        7.40684209       5.69116513       3.97433387      -0.00119877       0.00355710      -0.00179183
C        6.18070389       7.84322655       3.96849578      -0.00041432      -0.00479913      -0.00419490
C        4.93534874       9.96104075       3.80988359       0.00618910       0.00400578       0.00100185
Co       2.47523206       5.00237107       3.55826087       0.01233989      -0.00646246       0.00117194
