53
Lattice="12.336457 0.0 0.0 -6.168228499999997 10.683685154694365 0.0 0.0 0.0 15.0" Properties=species:S:1:pos:R:3:forces:R:3 energy=-466.61365178305897 free_energy=-466.61365178305897 stress="-0.002743788719248649 4.7638967538705486e-05 -3.8077180645996666e-06 4.7638967538705486e-05 -0.0027564039826851964 -2.08964029838749e-06 -3.8077180645996666e-06 -2.08964029838749e-06 1.0515691400743294e-06" pbc="T T T"
C        0.06827478      -0.00810518       3.68808246       0.00455498       0.00488602       0.00551638
C       -1.16425844       2.12866339       3.71711643      -0.00034004      -0.00309314      -0.00431366
C       -2.39827011       4.26598524       3.71731120       0.00395409      -0.00370320      -0.00554349
C       -3.63197816       6.40144633       3.68941671      -0.00028609       0.00496101      -0.00792050
C       -4.86213710       8.54050878       3.67977300      -0.00848910      -0.00185250       0.00024340
C        2.53661909      -0.01108447       3.68043046      -0.00191695      -0.00303610       0.00114682
C        1.30520115       2.12331442       3.75770491       0.00110653       0.00512178      -0.00201629
C        0.06971603       4.26535785       3.84052864       0.00149139       0.00183727       0.00753106
C       -1.16767874       6.40673523       3.74409297      -0.00088892       0.00157700       0.01251904
C       -2.40030640       8.54024459       3.67579103      -0.00956163       0.00328826      -0.00442459
C        5.00407140      -0.00765749       3.68740825       0.00100367       0.00420563       0.00222035
C        3.76778070       2.12398589       3.76009837      -0.00365437       0.00362201       0.00103553
C        2.53693413       4.22891763       4.05845271       0.00225552      -0.00542808       0.00058243
C        1.27101133       6.42166855       4.03568555       0.00669660      -0.00083527      -0.00169943
C        0.06361358       8.53982052       3.74502997      -0.00067571      -0.00395377      -0.00327337
C        7.47057547      -0.00837972       3.71271304       0.00225435       0.00351871       0.00171867
C        6.23664611       2.12914618       3.72307428       0.00323609      -0.00391993      -0.00025901
C        5.00317940       4.26660734       3.85972442       0.00252464      -0.00133889      -0.00736977
C        3.80130037       6.42116710       4.07150744      -0.00356781      -0.00340730       0.00899463
C        2.53714134       8.53834269       3.83832576       0.00153707       0.00230632      -0.00011780
C        9.93819080      -0.00820280       3.71321010       0.00351490       0.00003404       0.00278858
C        8.70431731       2.12898645       3.70122650       0.00150351      -0.00030761       0.00247411
C        7.47054969       4.26615263       3.72498018       0.00156358      -0.00060618       0.00099632
C        6.23977237       6.40713247       3.76332988      -0.00502460      -0.00372541       0.00097700
C        5.00890376       8.53883058       3.75501761      -0.00234750      -0.00498292       0.00443199
C        0.06926029       1.41576200       3.71237036       0.00252269       0.00526015      -0.00283509
C       -1.16132388       3.55519692       3.74657301       0.00312264      -0.00453887       0.00039291
C       -2.39837344       5.69048334       3.70764502       0.00039810       0.00053908       0.00401803
C       -3.63116529       7.82703664       3.67302847      -0.00936784       0.00485168       0.01011552
C       -4.86472387       9.96311100       3.67623180      -0.00235664      -0.00207414      -0.00683627
C        2.53669164       1.41331381       3.72887608      -0.00256631      -0.00014273       0.00313792
C        1.30858074       3.55090583       3.87488713       0.00159881       0.00342905      -0.00399857
C        0.07034746       5.69568430       3.86183669       0.00346861       0.00196175       0.00491488
C       -1.16667334       7.82817908       3.71816304      -0.00796961       0.00175622      -0.00586371
C       -2.39857843       9.96295282       3.67359034      -0.00060569       0.00162059       0.00215186
C        5.00326505       1.41625707       3.71579034      -0.00200655       0.00349822      -0.00467100
C        3.76454914       3.55172861       3.88100467       0.00270766       0.00167088      -0.00050710
C        1.29879750       7.82300349       3.85916581       0.00377014       0.00089745       0.01079609
C        0.06847650       9.96339678       3.70581573       0.00213893      -0.00009621       0.00113396
C        7.46982647       1.41621690       3.70335187       0.00357007       0.00040912      -0.00420931
C        6.23373213       3.55571552       3.75930226       0.00258963      -0.00426628      -0.00509921
C        5.00198010       5.69661609       3.88833961      -0.00617158      -0.00220411      -0.00531342
C        3.77461870       7.82207442       3.87517821      -0.00393813      -0.00454422      -0.00107612
C        2.53634108       9.95943438       3.74256940       0.00196836       0.00408960      -0.00386373
C        9.93881942       1.41631644       3.70067439      -0.00044685      -0.00212379      -0.00063617
C        8.70432360       3.55434618       3.70664115       0.00334538      -0.00135283      -0.00921363
C        7.47065226       5.69061987       3.71753814       0.00049759       0.00249333       0.00201483
C        6.24026149       7.82855640       3.72847448      -0.00428331      -0.00562563       0.00566754
C        5.00363653       9.96299492       3.70898663       0.00550386      -0.00121537      -0.00030587
Co       2.52616377       5.68849361       5.22392149      -0.00212040       0.00011091      -0.01401020
O        2.42806684       5.62515918       7.04017421      -0.00050001       0.00329581       0.01009671
O        1.03495309       5.69532193       7.50464463       0.01393702      -0.01124722       0.00799201
H        1.24241720       5.96427044       8.41986449      -0.00925082       0.00837981      -0.01023128
