52
Lattice="12.336457 0.0 0.0 -6.168228499999997 10.683685154694365 0.0 0.0 0.0 15.0" Properties=species:S:1:pos:R:3:forces:R:3 energy=-449.18225749192914 free_energy=-449.18225749192914 stress="-0.005338242072049612 -0.0030318228078640916 -1.0358552336540667e-05 -0.0030318228078640916 0.0005627713099049976 5.556751953412696e-05 -1.0358552336540667e-05 5.556751953412696e-05 -2.264957476983419e-06" pbc="T T T"
C       -0.01527087       0.02819921       3.91549517       0.00086490       0.00010582       0.00426045
C       -1.27553811       2.13599138       3.92748800      -0.00711117       0.00363802      -0.00146405
C       -2.50483155       4.27886484       3.90301858       0.00047661       0.00227629      -0.00112669
C       -3.70718530       6.43082647       3.87770141      -0.00100348      -0.00381143       0.00182497
C       -4.93566337       8.58090887       3.89041548      -0.00075466       0.00206515      -0.00028051
C        2.45685930       0.02672380       3.87121777       0.00181769       0.00540804       0.00173760
C        1.20528627       2.18508974       3.87017232      -0.00552476       0.00447358      -0.00283895
C       -0.05088847       4.27004046       3.95338070       0.00456966      -0.00373099      -0.01033283
C       -1.27217069       6.42931400       3.92625357       0.00163704      -0.00273679       0.00286594
C       -2.47647856       8.57186068       3.89047050       0.00260952      -0.00178852       0.00327765
C        4.92569251       0.01064294       3.74157838      -0.00092071       0.00254729      -0.00062423
C        3.65799810       2.11328348       3.47003817      -0.00183881      -0.00452229      -0.00563924
C        1.17399972       6.37715623       3.93795192       0.00002116      -0.00158364       0.00171145
C        0.00044757       8.53322095       3.84236373       0.00445763       0.00162081       0.00775388
C        7.38978049      -0.00919835       3.75787489      -0.00319353      -0.00387483       0.00005004
C        6.14606201       2.15714599       3.58488779       0.00110098       0.00982080      -0.00002653
C        4.97317124       4.38597729       3.34862722      -0.00408488       0.00052397       0.00238825
O        3.82372576       6.49772771       3.49471613       0.00931910      -0.00019124      -0.00212316
C        2.48479704       8.50142935       3.79855469      -0.00244098      -0.00119090       0.00529523
C        9.84424852      -0.00883708       3.84596803      -0.00085042      -0.00271821       0.00932469
C        8.60306916       2.13865457       3.79957602      -0.00551631       0.00128681      -0.00195228
C        7.38465009       4.29556555       3.71946950       0.00059781       0.00513444       0.00168586
C        6.20420925       6.46930349       3.68076186       0.00257765       0.00218044       0.00203465
C        4.94348728       8.56983711       3.80669113      -0.00823762      -0.00339189       0.00555720
C       -0.03016877       1.44892341       3.93029085      -0.00613421       0.00367083      -0.00470594
C       -1.28401679       3.55605764       3.93965671       0.00056918       0.00287592       0.00269323
C       -2.49215191       5.70764030       3.91331912      -0.00011950      -0.00058760      -0.00504970
C       -3.70269422       7.86035606       3.89925258      -0.00008782      -0.00317156      -0.00686394
C       -4.94180565      10.00562372       3.91529126       0.00403750       0.00396478       0.00791814
C        2.44582949       1.44839638       3.76143126      -0.00556918       0.00426056      -0.00365140
C        1.16783064       3.58706610       3.89393761       0.00959980       0.00440357      -0.00298439
C       -0.04803716       5.71029732       3.94787909       0.00111638      -0.00569991      -0.01428974
C       -1.24704726       7.85061198       3.88855259       0.00626067      -0.00115367       0.00812440
C       -2.47593501       9.99435188       3.84130498       0.00008997       0.00174100      -0.00036959
C        4.91316265       1.43824846       3.58123791       0.00169010       0.00320056      -0.00328352
P        3.46553282       3.69829944       2.67420006       0.00499411       0.00762128       0.00099620
C        1.23767865       7.76777552       3.85447661       0.00179712      -0.00028890      -0.00048514
C       -0.00893677       9.96496582       3.77595509      -0.00249270       0.00006199      -0.00364731
C        7.37276458       1.42798035       3.71126454      -0.00535822      -0.00017724       0.00744126
C        6.15390401       3.59578103       3.53977336       0.00192007       0.00900231      -0.01133396
C        5.02588882       5.78773986       3.44115121       0.00573547      -0.00049839      -0.00079037
C        3.74030704       7.86983434       3.73564669      -0.00490591      -0.00428270       0.00407602
C        2.45620989       9.93955296       3.80145095      -0.00157780      -0.00276205      -0.00135656
C        9.83093374       1.42042052       3.86855044      -0.00554868      -0.00079925      -0.00212122
C        8.60392661       3.56881109       3.81798582      -0.00013445       0.00338538      -0.00318817
C        7.41050916       5.71991294       3.77247073       0.00019643       0.00153743       0.00101267
C        6.18545688       7.87922222       3.80303235      -0.00448462       0.00265123       0.00695157
C        4.92146288       9.99021980       3.87248171       0.00010767      -0.00354399       0.00250851
Co       2.50829732       4.97394880       4.19878237       0.00237433      -0.00501738       0.00213154
O        3.33346243       5.19490625       5.79183003       0.00591550      -0.00689477      -0.00959272
O        3.02562590       4.06698624       6.67844773      -0.01318825      -0.01228708       0.00270929
H        2.62750349       4.57429955       7.41432468       0.01462462      -0.01275310       0.00379147
