50
Lattice="12.336457 0.0 0.0 -6.168228499999997 10.683685154694365 0.0 0.0 0.0 15.0" Properties=species:S:1:pos:R:3:forces:R:3 energy=-441.98634533423746 free_energy=-441.98634533423746 stress="-0.005287225392156427 0.0027123968074877183 -4.75845919538884e-06 0.0027123968074877183 -0.0016445315542182202 -3.854231078781534e-06 -4.75845919538884e-06 -3.854231078781534e-06 -7.474588970517216e-06" pbc="T T T"
C       -0.01389937      -0.01039274       3.69125345      -0.00701991      -0.00797858      -0.00025503
C       -1.23370509       2.12833832       3.56372652      -0.00197106       0.00244137      -0.01467404
C       -2.45684486       4.26465636       3.51504543      -0.00292853       0.01141635      -0.00412955
C       -3.70267842       6.39839003       3.62495937      -0.00755788      -0.00194362       0.00663312
C       -4.96041805       8.53329564       3.75030397       0.00356384       0.00219727       0.00603477
C        2.44994336       0.00786138       3.72163205       0.00429592       0.01068275       0.00457186
C        1.21816714       2.15515379       3.81478427      -0.00037792       0.00455552       0.01073524
C        0.00228272       4.29695811       3.67509896      -0.00368048      -0.00844548       0.01358004
C       -1.25006673       6.41773476       3.51470494       0.01064259      -0.00717595       0.00197530
C       -2.49310720       8.54724050       3.57251578       0.00222191       0.00095596       0.00969363
C        4.91912067      -0.00167195       3.59510634       0.00234352       0.00417542       0.00334228
C        3.71483293       2.13285271       3.93127826      -0.00488838       0.00639126       0.01270419
O        1.12540278       6.46590242       3.53746854       0.00518470       0.01104374      -0.00093317
C       -0.03634199       8.54253987       3.48674817       0.01003114      -0.00115837      -0.00619440
C        7.39083145      -0.02101071       3.48733469       0.00224932      -0.01256363      -0.00287451
C        6.18886229       2.10050356       3.65788818      -0.00381581      -0.00608831      -0.00469745
C        5.02929157       4.17853261       4.14919173      -0.00453506      -0.00457941       0.00435476
P        3.57175523       6.31714720       4.67223059      -0.00062312       0.00346153      -0.00242493
C        2.40582086       8.52583979       3.65783978       0.00922989      -0.00265967      -0.00577985
C        9.85877672      -0.02524039       3.56557413      -0.01315813      -0.00289830       0.00224451
C        8.64377219       2.11434626       3.49847266       0.00190701      -0.00373978       0.00330965
C        7.43436243       4.24753474       3.68255748       0.00503592      -0.00705564       0.00754781
C        6.20507891       6.38075694       3.99414624       0.00665736       0.00982517       0.00239363
C        4.90972620       8.52774475       3.86822578      -0.01190397       0.00236034      -0.00477373
C       -0.01288557       1.41668994       3.66389017       0.00338733      -0.00141004      -0.00689214
C       -1.22719878       3.55982364       3.54277972      -0.00546625       0.00493920      -0.01518184
C       -2.47206203       5.68621117       3.53685964      -0.00222013       0.00713884       0.00539801
C       -3.72381548       7.82771813       3.65040583      -0.00477487      -0.00232125      -0.00456110
C       -4.95119910       9.96394966       3.72450097       0.00399256       0.00310865      -0.00714022
C        2.46007033       1.43240462       3.84053474       0.00066850       0.01088642      -0.00587905
C        1.15874583       3.55144206       3.96219138      -0.00506865       0.00533571       0.00053296
C       -0.04074960       5.73185700       3.59118904       0.00865907      -0.00659387      -0.00504125
C       -1.27020779       7.83964841       3.50256056       0.00749844      -0.00232781       0.00034347
C       -2.48980564       9.97580228       3.62864177       0.00383997       0.00642322       0.00541144
C        4.94397290       1.41017215       3.71525885      -0.01065499       0.00494572      -0.00351133
C        3.79858310       3.49257906       4.26086694      -0.00129676      -0.01260424       0.00432952
C        1.16054550       7.84590188       3.55978118       0.00840235       0.00318346      -0.00062728
C       -0.01837035       9.96891556       3.50577364       0.00102891      -0.00280616      -0.00767523
C        7.41187509       1.39938752       3.51806577      -0.00028042      -0.01073815      -0.00362406
C        6.22654980       3.50592619       3.80326835      -0.00677309      -0.00268458      -0.00761469
C        5.08660912       5.59256723       4.32672361       0.00669039      -0.00037880      -0.01440783
C        3.63660491       7.87052997       3.96776301      -0.00476314       0.00483803      -0.00241620
C        2.44375397       9.94282166       3.53088219      -0.00059743      -0.01338192      -0.00067524
C        9.86944923       1.40177438       3.51259767      -0.00057612      -0.00072646       0.00622174
C        8.65175298       3.54092202       3.53700724       0.00558871      -0.00070842      -0.00119464
C        7.42543849       5.67516965       3.75482571       0.00433100      -0.00466357       0.00984035
C        6.14877215       7.81218390       3.89762818      -0.00060367       0.01351327       0.00251173
C        4.92161139       9.95030717       3.68829057      -0.01866897      -0.00202273       0.00499825
Co       2.38397472       4.45470758       5.09136591      -0.00319201      -0.00641673      -0.00322250
O        2.90417081       6.04012707       6.07895500       0.00994636       0.00225226       0.00769303
