51
Lattice="12.336457 0.0 0.0 -6.168228499999997 10.683685154694365 0.0 0.0 0.0 15.0" Properties=species:S:1:pos:R:3:forces:R:3 energy=-457.19866690306554 free_energy=-457.19866690306554 stress="-0.002745896393622937 -4.955754641509063e-07 2.972494511490532e-08 -4.955754641509063e-07 -0.0027483966825930686 6.176074199423264e-07 2.972494511490532e-08 6.176074199423264e-07 1.6336914975871684e-05" pbc="T T T"
C       -0.00133030      -0.00197440       3.64488318       0.00002245      -0.00006880       0.00083044
C       -1.23411989       2.13445765       3.66555755       0.00155468       0.00056043       0.00242043
C       -2.46806269       4.27173155       3.66510092       0.00129958       0.00068581       0.00343923
C       -3.70187442       6.40755312       3.64480205       0.00008935      -0.00030698       0.00105292
C       -4.93269716       8.54636480       3.64212735       0.00010087      -0.00007828       0.00002716
C        2.46640049      -0.00547950       3.64060508      -0.00007774       0.00019751       0.00110353
C        1.23483349       2.12817347       3.72309378       0.00363254       0.00528487       0.00501586
C       -0.00248613       4.27034208       3.81487803       0.00164787       0.00093805      -0.00096255
C       -1.23899522       6.41297875       3.72345789       0.00639381       0.00051611       0.00467271
C       -2.47098539       8.54635349       3.64126828      -0.00007732       0.00003146      -0.00014832
C        4.93412818      -0.00200246       3.64462223      -0.00003107       0.00025753       0.00076836
C        3.69797030       2.12814471       3.72388148      -0.00369914       0.00547909       0.00454050
C        2.46628435       4.22313051       4.04895673       0.00001369      -0.00993751      -0.00023447
C        1.19110859       6.43188706       4.04890901      -0.00879392       0.00499015       0.00061799
C       -0.00739874       8.54611032       3.72457583       0.00260557      -0.00578656       0.00487220
C        7.40071345      -0.00254995       3.66719487      -0.00024988      -0.00147186       0.00208084
C        6.16689387       2.13442001       3.66635232      -0.00141791       0.00095244       0.00333030
C        4.93529877       4.27027611       3.81747878      -0.00170130       0.00111724      -0.00207427
C        3.74156014       6.43192030       4.05066448       0.00893884       0.00529653       0.00014667
C        2.46641917       8.54660568       3.81796310      -0.00021150      -0.00189959      -0.00192654
C        9.86857098      -0.00252384       3.66741779       0.00014280      -0.00176952       0.00259620
C        8.63460949       2.13455668       3.64584102       0.00009977      -0.00021028      -0.01324348
C        7.40080188       4.27170611       3.66646401      -0.00128208       0.00081298       0.00281174
C        6.17179614       6.41297093       3.72605528      -0.00631690       0.00057528       0.00419650
C        4.94024391       8.54614053       3.72641086      -0.00270715      -0.00577958       0.00401851
C       -0.00071996       1.42166828       3.66652717       0.00446428       0.00273793       0.00577184
C       -1.23183642       3.56061800       3.70060100       0.00081580       0.00034362       0.00959453
C       -2.46865168       5.69626831       3.66646823       0.00476200       0.00217172       0.00552368
C       -3.70185340       7.83317682       3.63635525       0.00004758       0.00060638      -0.00398995
C       -4.93492359       9.96889230       3.63578391       0.00075871      -0.00043155      -0.00158598
C        2.46640283       1.41931287       3.69225491      -0.00003570       0.00270189       0.00897752
C        1.23581641       3.55535432       3.85067074       0.00133399       0.00536706      -0.01335736
C       -0.00252551       5.70021179       3.85087494       0.00537973      -0.00149426      -0.01406690
C       -1.23706149       7.83396581       3.69281404       0.00202341      -0.00120731       0.00984462
C       -2.46874246       9.96887525       3.63561004      -0.00081773      -0.00023557      -0.00301052
C        4.93350425       1.42162872       3.66700013      -0.00437103       0.00313270       0.00642650
C        3.69696388       3.55528065       3.85215741      -0.00134755       0.00552550      -0.01397098
C        1.22805300       7.83167692       3.85257288       0.00386048      -0.00401146      -0.01427860
C       -0.00149638       9.96936869       3.66785416       0.00016780      -0.00516509       0.00456351
C        7.40022312       1.42183359       3.64845270      -0.00063139      -0.00022048      -0.00558763
C        6.16461399       3.56056332       3.70254385      -0.00080890       0.00064614       0.00889193
C        4.93535319       5.70018094       3.85378808      -0.00542504      -0.00134859      -0.01514949
C        3.70476046       7.83167157       3.85393292      -0.00403866      -0.00368101      -0.01418855
C        2.46642494       9.96611162       3.70339848      -0.00015926      -0.00085032       0.00924744
C        9.86901603       1.42186064       3.64822748       0.00073537      -0.00057286      -0.00566068
C        8.63459679       3.55994127       3.64749080      -0.00000673       0.00044139      -0.00460719
C        7.40138358       5.69625303       3.66795427      -0.00461116       0.00224423       0.00570293
C        6.16988475       7.83397359       3.69492978      -0.00206820      -0.00121400       0.00882505
C        4.93431881       9.96938397       3.66870943      -0.00021536      -0.00532678       0.00430945
Co       2.46555227       5.69530442       5.20847969       0.00039366      -0.00017845      -0.00352737
O        2.46463477       5.69568659       6.80500054      -0.00018201      -0.00036734      -0.00465024
