52
Lattice="12.336457 0.0 0.0 -6.168228499999997 10.683685154694365 0.0 0.0 0.0 15.0" Properties=species:S:1:pos:R:3:forces:R:3 energy=-449.0590620647303 free_energy=-449.0590620647303 stress="-0.005668281593512882 0.003070040284852812 -2.728293356554146e-05 0.003070040284852812 0.0006641063953273822 -2.591177317209451e-05 -2.728293356554146e-05 -2.591177317209451e-05 2.535418259315076e-05" pbc="T T T"
C       -0.03919987       0.00443217       3.77968349      -0.00314231      -0.00810945       0.00315593
C       -1.26282575       2.13425141       3.91623279      -0.00608622      -0.00153279      -0.00062737
C       -2.48745785       4.27374145       3.90838379       0.00068038       0.00969843      -0.00937506
C       -3.73501832       6.41054586       3.76863597       0.00507709      -0.00051128      -0.01005450
C       -4.98165760       8.55184608       3.67335669      -0.00709070       0.00247493       0.00438783
C        2.42490930       0.02736113       3.77440394       0.00036372       0.00097674       0.00316173
C        1.20375357       2.19086100       3.85317804       0.01279547      -0.00062645       0.00065492
C       -0.03066437       4.30377920       4.00753481       0.00293365       0.00095140      -0.00456446
C       -1.29382334       6.43128471       3.98183865       0.00525882      -0.00580957      -0.00271644
C       -2.51789072       8.56083944       3.85379788      -0.00964944      -0.00791844      -0.00057841
C        4.89862888       0.00667059       3.83626746      -0.00479033       0.01674860       0.00273805
C        3.68550658       2.15270675       3.65967623       0.00450159       0.00496281       0.00361449
O        1.07016933       6.47101498       4.13391647      -0.01366210      -0.00190714      -0.00632068
C       -0.05895917       8.54641798       3.95477618      -0.00176006      -0.00447526       0.00025541
C        7.37324037      -0.02528791       3.91559736       0.00422609       0.00808825      -0.00896193
C        6.16927174       2.10600776       3.73661810      -0.00040548       0.00113237       0.00525101
C        5.00133947       4.20809207       3.38316875      -0.01070216      -0.01140547       0.00370988
P        3.46541800       6.25137885       2.70299435       0.00453618      -0.01273309      -0.00368827
C        2.39911392       8.50301099       3.80743400       0.01014041      -0.00142832      -0.00903410
C        9.83347107      -0.02531147       3.86470910       0.00568652       0.00416178       0.00104416
C        8.61996894       2.11792179       3.87883973      -0.00517343       0.00119391      -0.00379375
C        7.41603015       4.25620917       3.67655055      -0.00459368      -0.00534088       0.01380164
C        6.17302267       6.40055426       3.43172951      -0.00194169       0.00679310       0.01001922
C        4.87944368       8.52689749       3.57514769      -0.00073388       0.00005465       0.00682623
C       -0.03371011       1.43414358       3.86029353       0.00103968      -0.00425515      -0.00427667
C       -1.26245722       3.56462854       3.95923773      -0.00145080       0.00608976      -0.00603013
C       -2.50942691       5.69842994       3.89641317       0.00744608       0.00472468      -0.00431081
C       -3.74901887       7.84186395       3.76284569      -0.00860911      -0.00390972      -0.00453863
C       -4.97480214       9.98263216       3.74090088       0.00028144      -0.00372509       0.00193978
C        2.43537373       1.45677405       3.76647186       0.01434233       0.00087725       0.00522999
C        1.18462909       3.59402407       3.95230331       0.00188969      -0.00208041       0.00333462
C       -0.09661763       5.72986743       4.04604757       0.00306517      -0.00583270      -0.00290034
C       -1.29924275       7.85186780       3.94854722      -0.00552608      -0.00807970      -0.00099481
C       -2.51375792       9.99065719       3.81812927      -0.00370182       0.00085155       0.00379749
C        4.92098969       1.42070306       3.73982003       0.00107140       0.01439932      -0.00022691
C        3.76666337       3.53927310       3.48520868      -0.00918934      -0.00114551       0.00723450
C        1.14081885       7.85037549       3.92849133       0.00296827      -0.00720754       0.00003601
C       -0.03997430       9.97095412       3.90964455      -0.00340504       0.00491427      -0.00335541
C        7.39086488       1.39821114       3.85732536       0.00048515       0.00379399       0.00535622
C        6.21075397       3.51340406       3.58686510      -0.00753768      -0.00559014       0.00355112
C        5.01060936       5.62847549       3.23157238       0.00651745      -0.01160933       0.00632390
C        3.62585251       7.84049614       3.49689170       0.00900220      -0.01032833       0.00764884
C        2.42601346       9.93493203       3.89837549       0.00914525       0.00606057      -0.00673511
C        9.84276201       1.40438878       3.90656615      -0.00946952       0.00313889      -0.00614576
C        8.62878790       3.54719598       3.83238894       0.00067551       0.00052633      -0.00037964
C        7.39740441       5.68570034       3.62307934      -0.00218411      -0.00044879       0.01363739
C        6.13173084       7.82980373       3.53043701      -0.00636990       0.00943142       0.00218376
C        4.89641950       9.95683659       3.75382902      -0.00281949      -0.00372891       0.00062314
Co       2.61627664       4.82698685       4.24966163      -0.00381087       0.00012357      -0.00936132
O        2.68073751       5.42007224       5.93892777       0.00432353       0.01802081      -0.00703974
O        3.66886283       4.66684574       6.72677541       0.01193172       0.01035983      -0.01058958
H        3.34754425       4.92339032       7.61389580       0.00342042      -0.01080974       0.00708259
