50
Lattice="12.336457 0.0 0.0 -6.168228499999997 10.683685154694365 0.0 0.0 0.0 15.0" Properties=species:S:1:pos:R:3:forces:R:3 energy=-432.409020851298 free_energy=-432.409020851298 stress="-0.005807960188276125 0.0011566347390779383 1.0157849900331176e-05 0.0011566347390779383 -0.004559728852781227 5.651183125376465e-06 1.0157849900331176e-05 5.651183125376465e-06 -4.880013535964458e-06" pbc="T T T"
C       -0.00342089       0.01676756       3.76436729      -0.00953351       0.00089301      -0.00297247
C       -1.22899153       2.15878776       3.60195932       0.00965530      -0.00428458       0.00333470
C       -2.47982848       4.29434980       3.70336702       0.00438411       0.00297762      -0.00744028
C       -3.71045381       6.43148020       3.83941131      -0.00121797      -0.01590590       0.00300287
C       -4.95451876       8.55796114       3.82434399       0.00206337      -0.00313628      -0.00698611
C        2.45701935       0.00668043       3.93754719      -0.00163580      -0.00335225       0.00358691
C        1.26169901       2.10347736       3.60731253       0.00518616      -0.00579929       0.00313618
C       -0.09091518       4.34024657       3.28042046      -0.01141834       0.00868130      -0.00661752
C       -1.28714778       6.45461247       3.62482190       0.00197728       0.01405659       0.00668090
C       -2.48758619       8.57003906       3.84508990       0.00037591      -0.00629495       0.00012436
C        4.93478622       0.00606640       3.96027983      -0.00071778       0.00416629      -0.01459986
C        3.69784777       2.10397802       4.28156542      -0.00787361       0.00646989       0.01101707
C        1.15574651       6.44797022       3.45099275       0.00575454      -0.00479050       0.00204534
C       -0.01734648       8.56348257       3.70258522       0.00339408      -0.00126239      -0.01039950
C        7.40166738       0.01059300       3.83182346       0.00056924      -0.00372146      -0.00082882
C        6.18105181       2.13957533       4.12685434      -0.00418966      -0.00004743       0.00023042
C        4.99999304       4.31039834       4.28359121       0.00129242       0.00053010      -0.00300048
S        3.76405474       6.28264686       2.74990461       0.00004338      -0.00367872       0.00823723
C        2.46477332       8.56201017       3.53918932      -0.00197724       0.00322396       0.01394780
C        9.86781174       0.01747163       3.71381833       0.00131981       0.00181897      -0.00634417
C        8.64216105       2.15028292       3.84126850       0.00607127       0.00226732      -0.00365911
C        7.42068942       4.28376072       3.97270148       0.00161261       0.00218155       0.00924823
C        6.17811950       6.42893613       3.85876124      -0.00405305       0.00238624       0.00606569
C        4.93235627       8.56097338       3.62173132       0.00037129       0.00261722       0.00534531
C        0.00637413       1.44836919       3.65482946       0.00487649      -0.00299456       0.00595439
C       -1.24884755       3.58222326       3.52228077      -0.00211291      -0.00365335      -0.00592316
C       -2.49015520       5.71898402       3.72759085       0.00805649       0.00236499      -0.00287962
C       -3.71579387       7.85367635       3.84482734       0.00143157      -0.01501154       0.00216568
C       -4.94633142       9.98544653       3.83952428      -0.00794280       0.00219207      -0.00364520
C        2.46287226       1.43606656       3.97464830       0.00102960      -0.00512760      -0.00047669
S        1.37583600       3.59200685       2.71671219       0.00681709      -0.00332597      -0.00259253
C       -0.05695308       5.75173905       3.43114633      -0.00687719       0.01004724      -0.01122711
C       -1.25886759       7.86706995       3.73265839       0.00402135       0.00819765       0.00106335
C       -2.47530338       9.98437284       3.93171238       0.00162217      -0.00451746       0.00148294
C        4.94238700       1.42690215       4.13119856      -0.00834293       0.00747734      -0.00626993
S        3.77175552       3.51607454       5.28562562       0.00031551      -0.00411334      -0.00049432
C        1.21800323       7.82498063       3.54535996       0.00165291      -0.00413390      -0.00352460
C       -0.00152325       9.98050939       3.83421723       0.00055705      -0.00423685       0.00087313
C        7.40491275       1.43495205       3.94199118       0.00099909      -0.00240386       0.00508772
C        6.20229855       3.56123565       4.14984845       0.00281195       0.00164154       0.00585805
C        4.98588305       5.66497737       3.86616301       0.00133387      -0.00098699      -0.01611633
C        3.69954545       7.90280906       3.38767593      -0.00040975       0.01205774       0.00005520
C        2.46470391       9.98742200       3.70271567       0.00162322       0.00288509       0.00677592
C        9.87912828       1.44816029       3.72431534       0.00987844       0.00012744      -0.00045706
C        8.64424275       3.57197363       3.85016259       0.00481016       0.00543112       0.00022858
C        7.41148982       5.71127151       3.91695665      -0.00794339      -0.00354907       0.01286535
C        6.15711331       7.84623709       3.73597992       0.00104091      -0.00072682      -0.00192073
C        4.92981761       9.99081849       3.70775652      -0.00481948       0.00104265      -0.00856386
Co       2.43244127       5.07897537       3.90793506      -0.01223711       0.00356178       0.00500350
O        2.41894199       4.27086528       5.59553102      -0.00364611      -0.00224166       0.00352264
