50
Lattice="12.336457 0.0 0.0 -6.168228499999997 10.683685154694365 0.0 0.0 0.0 15.0" Properties=species:S:1:pos:R:3:forces:R:3 energy=-438.5879352026956 free_energy=-438.5879352026956 stress="-0.004472829973327171 0.0015792106463688785 -1.3840474084906062e-06 0.0015792106463688785 -0.005099649628057113 6.528266815031201e-07 -1.3840474084906062e-06 6.528266815031201e-07 1.0149845164907474e-05" pbc="T T T"
C       -0.00050906      -0.00606477       3.76445562       0.00022033       0.00042232      -0.01066311
C       -1.22659934       2.13858074       3.69014906       0.00813815       0.00554289       0.00134591
C       -2.46808729       4.27748519       3.83501298       0.00186004       0.00372266      -0.00036892
C       -3.71397028       6.40715861       3.90359605       0.00319853       0.00075027      -0.00232640
C       -4.95002318       8.53638499       3.83571597      -0.00939847      -0.00192332      -0.00387817
C        2.46265378      -0.01448446       3.87882880       0.00274029       0.00637626       0.00099050
C        1.25605443       2.06499369       3.47653991      -0.00450626      -0.00374638      -0.00307222
C       -0.06093703       4.32580930       3.47467380      -0.01055078       0.00439104      -0.00056208
C       -1.26444259       6.43340404       3.84612719       0.00956158      -0.00067790      -0.00815133
C       -2.48434421       8.55031185       3.97117109       0.01151146       0.00374938      -0.00311718
C        4.93474358      -0.00061107       3.97445274       0.00303807      -0.00232119       0.01644258
C        3.70822381       2.14101717       3.75848096       0.00412245      -0.00090561       0.00903812
C        1.19295625       6.42956659       3.60121020      -0.01212557      -0.01207426       0.00806435
C       -0.01075218       8.54741005       3.91601141       0.00419902       0.00766230       0.00475028
C        7.40739661      -0.00221172       3.96236790      -0.00766308      -0.00658285       0.00736903
C        6.18449577       2.12063780       3.94368264      -0.00654319      -0.00163011       0.00108926
C        4.96580525       4.22805111       3.64224537      -0.00045842       0.00952612      -0.00849097
P        3.52105704       6.29269451       2.72926521       0.00942296       0.00842761       0.01499405
C        2.46136379       8.56796433       3.72283965      -0.00165783      -0.00091306      -0.00461916
C        9.87528968       0.00469248       3.83498028       0.00109198      -0.00116959      -0.01277160
C        8.64934796       2.13449984       3.91792982      -0.00148180      -0.00298945      -0.00159542
C        7.41379395       4.26474778       3.88453122      -0.01270760      -0.00430768       0.00373814
C        6.17097792       6.39973669       3.67250314      -0.00160586      -0.00468602      -0.00731315
C        4.93031360       8.54811822       3.63890988      -0.00355475      -0.00288330       0.00126083
C        0.00386545       1.41829280       3.63845576       0.00315144       0.00226667       0.00099250
C       -1.23698848       3.56673979       3.66786498       0.00112139       0.00429810      -0.00715418
C       -2.47956449       5.70176450       3.88087341       0.01237821       0.00441486       0.00370478
C       -3.71508738       7.83196751       3.91807995       0.00080880       0.00399855      -0.00246448
C       -4.94117017       9.96180785       3.83636489      -0.00111745       0.00194552      -0.01226450
C        2.47262550       1.39879767       3.72648736       0.00096319      -0.00034504      -0.00513708
P        1.41357026       3.67161244       2.72504928      -0.00872768      -0.00548085       0.01636941
C       -0.03216365       5.73868581       3.63307657       0.00153180      -0.00974442      -0.00759543
C       -1.25040650       7.84595668       3.93892723       0.00755572       0.00126078       0.00197679
C       -2.47333763       9.96880705       3.96398989       0.00789418       0.00600996       0.00608409
C        4.94476498       1.41925830       3.92088044      -0.00374494      -0.00801910       0.00399728
C        3.74079716       3.53725952       3.60850911       0.01183107       0.01210639       0.00642412
C        1.22564376       7.82583104       3.75238162      -0.00454840       0.00062072       0.01016916
C       -0.00067137       9.96719756       3.97272258      -0.00291865       0.00199937       0.01702598
C        7.41852497       1.41623956       3.97218681      -0.01111828      -0.00387126      -0.00274024
C        6.19843816       3.53329569       3.85311811      -0.00905046       0.00069436      -0.00829348
C        4.99446330       5.64065976       3.48256086       0.01090913      -0.00447453      -0.00242407
C        3.67826309       7.90137527       3.47601446       0.00385824       0.00284353      -0.00320013
C        2.47134512       9.98114198       3.87603831      -0.00255916      -0.00725874       0.00186593
C        9.88422619       1.43009404       3.83450098       0.00864643       0.00319714      -0.00465203
C        8.64830685       3.55931381       3.90380862      -0.00433204      -0.00034764      -0.00202160
C        7.40229214       5.68900030       3.83801855      -0.00264122      -0.00405923      -0.00041387
C        6.16075483       7.82788476       3.69212101      -0.00851957      -0.00557682       0.00232364
C        4.93464454       9.97251909       3.76409100      -0.00019059      -0.00044975      -0.01118082
Co       2.46426667       4.98226207       4.12910371       0.00046762      -0.00051340      -0.00588104
O        2.45885656       4.98221465       5.79513910       0.00149993       0.00072473       0.00233593
