52
Lattice="12.336457 0.0 0.0 -6.168228499999997 10.683685154694365 0.0 0.0 0.0 15.0" Properties=species:S:1:pos:R:3:forces:R:3 energy=-448.11465505091275 free_energy=-448.11465505091275 stress="-0.006207006932049661 0.0016993039029002514 2.7336361106673704e-06 0.0016993039029002514 -0.004355682506443636 4.882617996119503e-06 2.7336361106673704e-06 4.882617996119503e-06 -4.947443766314088e-06" pbc="T T T"
C        0.03448813       0.04740016       3.77721634       0.00420480      -0.00477679       0.00046736
C       -1.19465787       2.18647661       3.69367970      -0.00549725      -0.00097814       0.00301482
C       -2.43735495       4.32671976       3.86243291       0.00543298      -0.00112007       0.00642598
C       -3.67951536       6.46077803       3.94728534       0.00427936       0.00136076      -0.00227205
C       -4.91309080       8.59285431       3.86341739      -0.00415605      -0.00154741       0.00767447
C        2.49755843       0.04865101       3.92168868      -0.00020458      -0.00183512      -0.00680970
C        1.29086527       2.12950199       3.49843873      -0.00056670       0.00056016      -0.00042438
C       -0.04138082       4.37629154       3.47734646       0.00182735       0.00008871       0.00882780
C       -1.23806295       6.48544626       3.89853166      -0.00449149      -0.00185798      -0.00012088
C       -2.45190136       8.60705533       4.02840986      -0.00074412       0.00051386      -0.00734901
C        4.97093267       0.05100204       4.04275216      -0.01203508       0.00094463      -0.00744164
C        3.74863249       2.20167543       3.82839218       0.00018595      -0.00886188      -0.00445175
C        1.21497766       6.47230004       3.70546598       0.00583485       0.00262818      -0.01730250
C        0.02222243       8.59533090       3.99104030      -0.00146239       0.00434485       0.00486748
C        7.44524479       0.03951209       4.01747305       0.00115849       0.00544616      -0.00374817
C        6.22587598       2.16504822       3.99318093      -0.00611306       0.00538838       0.00703229
C        5.01988273       4.27563661       3.70192001      -0.00650073       0.00041383       0.00834223
P        3.58620396       6.34904014       2.73618619      -0.00096319       0.00578257       0.00186448
C        2.49662161       8.60173977       3.78487825       0.00592637       0.00365051      -0.00028915
C        9.90969432       0.04827014       3.85467204       0.00776138       0.00015515       0.00752818
C        8.68632502       2.17863697       3.94481632       0.00280071       0.00199017       0.00072440
C        7.45520604       4.31368622       3.92500902       0.00517702      -0.00616474      -0.00223645
C        6.21465583       6.45070372       3.69808638       0.00142711      -0.00086098       0.00496331
C        4.96635899       8.59399739       3.66613278      -0.00615525       0.00057962      -0.00023480
C        0.04032115       1.47247787       3.64710973      -0.00316154      -0.00170816       0.00092976
C       -1.21055524       3.61632815       3.67266044      -0.00213883      -0.00072476      -0.00049506
C       -2.45028496       5.75241328       3.92461802      -0.00103068      -0.00254175      -0.00497766
C       -3.68054987       7.88775653       3.96021820      -0.00064365       0.00224161       0.00382309
C       -4.90467366      10.01914393       3.86285877       0.00293569      -0.00391163      -0.00470125
C        2.50615305       1.46424871       3.77041933       0.00075585      -0.00362845      -0.01037838
P        1.41127935       3.71047454       2.68636911      -0.00002171       0.00234124      -0.00935963
C       -0.01517212       5.78842494       3.69391219      -0.00042582       0.00249916       0.00286185
C       -1.22014865       7.89937733       4.00385758      -0.00247771      -0.00206452       0.00394636
C       -2.44027029      10.02675164       4.02452577      -0.00652392      -0.00089905      -0.00119585
C        4.98305582       1.46914094       3.98071246      -0.00496721      -0.00078450       0.00443400
C        3.79082506       3.59157048       3.69296723       0.00481163      -0.01224199      -0.00113750
C        1.25631473       7.86307336       3.84266909       0.00511129       0.00535243      -0.00965702
C        0.03489218      10.01441582       4.04272156      -0.00721255       0.00735877       0.00687433
C        7.45755095       1.45857549       4.01510042      -0.00174476       0.00803523      -0.00149486
C        6.24391600       3.57962671       3.89699016      -0.00557405       0.00315599       0.00578814
C        5.04495734       5.68969849       3.51116112       0.00295972      -0.00061446      -0.00282954
C        3.71466619       7.93445301       3.52855680       0.00013638       0.00130714      -0.00442704
C        2.50731757      10.01857302       3.91959841       0.00769394       0.00342203       0.00397379
C        9.91931409       1.47466103       3.84804390      -0.00070749      -0.00168799      -0.00005223
C        8.68463738       3.60518137       3.93452180       0.00911012      -0.00246368       0.00911098
C        7.44201925       5.73940212       3.87691875       0.00796912      -0.00420116      -0.00319514
C        6.20031543       7.88031453       3.71487158      -0.00699964       0.00225265      -0.00166563
C        4.97057583      10.02048036       3.77974850       0.00438501      -0.00231559      -0.00415236
Co       2.48377101       5.01925810       4.09486393      -0.00107572      -0.00018632       0.00352618
O        2.43557984       4.97384375       5.88982479       0.00311744      -0.00719133       0.00074137
O        1.72813985       3.78162041       6.40874579       0.00400910       0.00395232       0.02290778
H        2.26789738       3.67507483       7.21845098      -0.00541644      -0.00059766      -0.01825080
