52
Lattice="12.336457 0.0 0.0 -6.168228499999997 10.683685154694365 0.0 0.0 0.0 15.0" Properties=species:S:1:pos:R:3:initial_magmoms:R:1:forces:R:3 energy=-456.3121439222473 free_energy=-456.3121439222473 stress="0.0019603425335675134 0.003856799741157573 1.2482176569324785e-06 0.003856799741157573 -0.0025443777743316127 -1.6832757238076572e-05 1.2482176569324785e-06 -1.6832757238076572e-05 -2.6635589663638218e-05" pbc="T T T"
C       -0.00111745       0.00149659       3.80268330       0.00000000       0.00158153      -0.00747098       0.00331572
C       -1.20301266       2.16208430       3.82934272       0.00000000       0.00405192      -0.00222850      -0.00602992
C       -2.42922203       4.28614107       3.82972868       0.00000000      -0.00415128       0.00152266      -0.00349159
C       -3.70013371       6.40731766       3.80635235       0.00000000       0.00190403       0.00403910      -0.00226157
C       -4.95904911       8.53216234       3.78203043       0.00000000      -0.00006299      -0.00036942      -0.00216743
C        2.45785196      -0.01228409       3.81092690       0.00000000       0.00397528      -0.00299514       0.00015239
C        1.25825834       2.14637084       3.80109375       0.00000000      -0.00219250       0.00232777       0.00139517
C        0.07289322       4.31406424       3.81561871       0.00000000      -0.00758950       0.00019779      -0.00350718
C       -1.21226999       6.42464721       3.81118390       0.00000000       0.00790553       0.00511479       0.00011360
C       -2.48166679       8.54330936       3.81736366       0.00000000      -0.00213613       0.00075684      -0.00258213
C        4.92904843      -0.00444190       3.79093782       0.00000000       0.00480669       0.00351424      -0.00346698
C        3.70191689       2.10604774       3.73439435       0.00000000      -0.00014264      -0.00094162       0.00284253
N        2.53028714       4.20741004       3.72368572       0.00000000       0.00122353      -0.00098868      -0.00168637
N        1.21000234       6.49570365       3.74125264       0.00000000       0.00151641      -0.00560978       0.00090127
C       -0.02450209       8.56107883       3.75195975       0.00000000      -0.00322923       0.00036091      -0.00405328
C        7.39972651       0.01168972       3.76388718       0.00000000      -0.00304807      -0.00100616      -0.00544926
C        6.17789859       2.12724321       3.75497204       0.00000000       0.00146506       0.00231282       0.00230488
C        4.94579402       4.23030121       3.56875603       0.00000000       0.00380471       0.00079873       0.00582977
S        3.85796802       6.50356573       2.13342200       0.00000000      -0.00555896      -0.00357212      -0.01098330
C        2.43644252       8.57643832       3.58331954       0.00000000      -0.00275659       0.00175761       0.00535688
C        9.87528406       0.02157074       3.76224929       0.00000000       0.00200743       0.00172180      -0.00234258
C        8.65611505       2.14809793       3.80248187       0.00000000      -0.00426085      -0.00511585      -0.00102689
C        7.42402688       4.26679844       3.75707790       0.00000000       0.00177146       0.00142104      -0.00065125
C        6.14712788       6.39244655       3.65300196       0.00000000      -0.00274634      -0.00285725      -0.00020303
C        4.90872533       8.53675168       3.65560150       0.00000000       0.00585299      -0.00375096       0.00223478
C        0.01841805       1.43605669       3.82047332       0.00000000       0.00292465      -0.00594061      -0.00148904
C       -1.17358557       3.59490981       3.83492284       0.00000000      -0.00619727      -0.00202844      -0.00760440
C       -2.44789331       5.70672864       3.82466040       0.00000000       0.00635918       0.00628122       0.00225930
C       -3.71695452       7.82708749       3.80841445       0.00000000      -0.00309340       0.00297855       0.00060138
C       -4.94844466       9.96026767       3.80438483       0.00000000       0.00279518      -0.00271201       0.00318997
C        2.46819491       1.41020985       3.78983703       0.00000000      -0.00204990      -0.00060417      -0.00508724
C        1.30498960       3.58034964       3.78422907       0.00000000      -0.00373750       0.00575850       0.00203727
C        0.05306125       5.74802691       3.79389310       0.00000000       0.00177606      -0.00192893       0.00028409
C       -1.24440542       7.84052007       3.80196126       0.00000000      -0.00172295       0.00380882      -0.00020672
C       -2.47599979       9.96535469       3.80933372       0.00000000       0.00608876      -0.00050755       0.00293395
C        4.94104503       1.41339020       3.76022008       0.00000000       0.00249859       0.00351632       0.00189289
C        3.70374210       3.51336514       3.65052373       0.00000000       0.00385195      -0.00130410      -0.00027412
C        1.19521314       7.85955811       3.67012169       0.00000000      -0.00510374      -0.00357202       0.00234168
C       -0.00495138       9.98081399       3.77061983       0.00000000       0.00017275       0.00010497      -0.00172760
C        7.41405309       1.43073798       3.78292255       0.00000000      -0.00443130      -0.00344107       0.00670492
C        6.18569914       3.54785195       3.70150798       0.00000000       0.00489206       0.00165455      -0.00182570
C        4.91957975       5.65824676       3.42928454       0.00000000      -0.00765736       0.00092609      -0.00297684
C        3.65867686       7.83956658       3.43627586       0.00000000       0.00172767       0.00440725       0.00717978
C        2.46563073       9.99180937       3.71195260       0.00000000      -0.00126742       0.00350258       0.00157461
C        9.89234441       1.44592266       3.80832084       0.00000000       0.00188557       0.00110402       0.00158980
C        8.66629982       3.56975792       3.80580164       0.00000000      -0.00326424      -0.00445213       0.00449036
C        7.39816337       5.69060262       3.75613637       0.00000000       0.00019259       0.00173862       0.00302429
C        6.13460450       7.81501040       3.68889565       0.00000000       0.00535898      -0.00521919       0.00240113
C        4.92711121       9.97128575       3.75768353       0.00000000       0.00164689      -0.00497835       0.00323420
Co       2.97434009       5.98745257       3.92709727       0.00000000      -0.00445033      -0.00008762      -0.01706714
O        1.93126523       5.30015212       6.30047768       1.00000000      -0.01100548       0.00727005       0.01135197
O        2.95046813       5.94904030       5.83861470       1.00000000       0.00781853       0.00478499       0.00662296
