50
Lattice="12.336457 0.0 0.0 -6.168228499999997 10.683685154694365 0.0 0.0 0.0 15.0" Properties=species:S:1:pos:R:3:forces:R:3 energy=-438.5553302768647 free_energy=-438.5553302768647 stress="-0.002924995263565752 0.0031195962012455767 1.090820659876286e-05 0.0031195962012455767 0.0034533388229483868 -1.3213966285714001e-05 1.090820659876286e-05 -1.3213966285714001e-05 -7.99823914974944e-06" pbc="T T T"
C       -0.00171500       0.02969870       3.74478000       0.00403758      -0.00726251      -0.00709523
C       -1.22539391       2.15324860       3.83966685       0.00594605       0.00276476       0.00434034
C       -2.45132341       4.28688684       3.85932472      -0.00559619      -0.00436421      -0.00644325
C       -3.70349565       6.42320742       3.78102803       0.00394264       0.00042791      -0.00783921
C       -4.95697603       8.56445825       3.68705464       0.00137924       0.00145893      -0.00394954
C        2.45700971       0.06123852       3.76980429       0.00692838       0.00290951       0.00148154
C        1.23121306       2.22095547       3.80211910      -0.00623015      -0.00987641       0.00497184
C        0.00140070       4.30114592       3.86394294      -0.00095771       0.00267838      -0.00883770
C       -1.24591089       6.43148663       3.85166494      -0.00106708       0.00041852       0.00539243
C       -2.48329461       8.57162238       3.80157168       0.00433437       0.00108746       0.00819952
C        4.92713392       0.01974596       3.81781983      -0.00184003       0.00401838      -0.01011554
C        3.72374546       2.18955806       3.73293257      -0.00012017      -0.00362152      -0.00264551
O        1.12529054       6.45448073       3.94246576      -0.00485888       0.00514805       0.00012023
C       -0.01574708       8.54584789       3.82976162      -0.00429322       0.01307857       0.00767037
C        7.40385938      -0.01390992       3.85319757       0.00042827       0.00358488       0.00726270
C        6.19302176       2.11914133       3.80575532      -0.00874013       0.00803926       0.00268922
C        5.00701517       4.21572129       3.55597940      -0.00109949      -0.00356281      -0.00280311
S        3.55672250       6.25769687       2.75339325       0.00953350       0.00542904      -0.00199336
C        2.43035681       8.51396148       3.70617517      -0.00467540      -0.01506170       0.00571121
C        9.86639341      -0.00778528       3.79579362      -0.00224651      -0.00250112      -0.00112909
C        8.65117319       2.13419489       3.86455162       0.00118767      -0.00856238      -0.00522777
C        7.43211959       4.27067373       3.77498591       0.00413114      -0.00356601      -0.00307435
C        6.17980429       6.40152430       3.54688001       0.00054954      -0.00271804      -0.00483571
C        4.90990785       8.54040178       3.55521822      -0.00019896       0.00679571       0.01107261
C        0.00761260       1.46319107       3.79692230      -0.00144352      -0.01112495       0.00207220
C       -1.22225040       3.57886689       3.86229507      -0.00189567       0.00456325      -0.00662481
C       -2.47048517       5.70824937       3.84025500      -0.00012282      -0.00314640      -0.00323143
C       -3.71876089       7.85317448       3.75592881       0.00330980       0.00210051       0.00070227
C       -4.94246661      10.00551055       3.73006795       0.00799887       0.00084587      -0.00101996
C        2.46870171       1.49806701       3.77531359      -0.00019034      -0.00090793       0.00095441
N        1.19579072       3.59642060       3.85941145      -0.00444901      -0.00680509      -0.00159990
C       -0.04847400       5.71975654       3.86662268      -0.00200636       0.00320482      -0.00222918
C       -1.26040104       7.85445131       3.83595058       0.00342954       0.00291878       0.00428906
C       -2.48384166      10.00790742       3.79490846       0.00396814       0.00082033       0.00069782
C        4.94361473       1.44229814       3.78629479      -0.00370160       0.00092017      -0.00788124
N        3.79900491       3.55700921       3.62322606       0.00180748      -0.00508901       0.00056318
C        1.17843821       7.85213271       3.78782110      -0.01016381       0.00159760       0.00542716
C       -0.00522452       9.97894941       3.83632531      -0.00193521       0.01208281       0.00664039
C        7.41910228       1.41349416       3.85665167      -0.00738814       0.00494205       0.00197023
C        6.22003968       3.52976421       3.72857167      -0.00030428       0.00511936       0.00087853
C        5.03065558       5.61229973       3.35965097       0.00119014      -0.00434973       0.00099822
C        3.66526219       7.86611791       3.42067352       0.00537386      -0.00138474       0.00647224
C        2.45950547       9.94934362       3.80993501      -0.00289149      -0.01181547       0.00309665
C        9.87936020       1.42539758       3.84726704       0.00725595      -0.00101783       0.00109396
C        8.65784615       3.56111712       3.84868275      -0.00082459      -0.01130305      -0.00130812
C        7.41684832       5.69605931       3.71634782       0.00496642      -0.00281295      -0.00903066
C        6.15480734       7.83734536       3.56818838      -0.00246026       0.00174728      -0.00766065
C        4.92854275       9.97794574       3.70880059      -0.00019626       0.00429855       0.00204888
Co       2.55649610       4.73366740       4.19188695       0.00427685       0.00576956       0.00284364
O        2.52564619       4.57721554       5.82717543      -0.00407819       0.01208355       0.00691449
