51
Lattice="12.336457 0.0 0.0 -6.168228499999997 10.683685154694365 0.0 0.0 0.0 15.0" Properties=species:S:1:pos:R:3:initial_magmoms:R:1:forces:R:3 energy=-443.7282862956297 free_energy=-443.7282862956297 stress="-0.003853718120838435 0.0027604221415454145 -5.255035115654493e-08 0.0027604221415454145 0.0038369209050555715 1.1228694618516094e-06 -5.255035115654493e-08 1.1228694618516094e-06 6.377721047952677e-06" pbc="T T T"
C        0.02329349       0.00914520       3.72248643       0.00000000      -0.00067303      -0.00263403      -0.00209298
C       -1.20491854       2.12719960       3.81226829       0.00000000       0.00431737      -0.00522278      -0.00035625
C       -2.43170284       4.26502545       3.82711473       0.00000000      -0.00591589       0.00569380      -0.00768651
C       -3.67861715       6.40420779       3.75522877       0.00000000      -0.00184803      -0.00061737      -0.00233955
C       -4.92965062       8.54639851       3.66141205       0.00000000       0.00315250       0.00363052      -0.00334955
C        2.48212565       0.04471254       3.76007693       0.00000000       0.00226633      -0.00188408      -0.00932439
C        1.25093779       2.20151781       3.77437696       0.00000000      -0.00173523       0.00033884      -0.01015162
C        0.01146336       4.27770580       3.79370488       0.00000000      -0.00589659      -0.00170053      -0.00762938
C       -1.22757504       6.41362503       3.80830785       0.00000000       0.00326683      -0.00056487       0.00438763
C       -2.45875833       8.55440610       3.78642394       0.00000000       0.00420343      -0.00244615       0.00241534
C        4.95133107       0.00064134       3.81448103       0.00000000       0.00981313       0.00427180      -0.00004103
C        3.75086060       2.17526001       3.75164597       0.00000000      -0.00363672       0.00521671      -0.00033756
O        1.14858972       6.42494860       3.84820011       0.00000000      -0.00915835       0.01044535      -0.00653586
C        0.00883702       8.52459974       3.81314287       0.00000000      -0.00023857      -0.00662812      -0.01379579
C        7.42873307      -0.03826560       3.84019269       0.00000000       0.00138323      -0.00668474       0.00527624
C        6.21668183       2.09962961       3.80955404       0.00000000       0.00376808       0.00249118      -0.00217384
C        5.03555680       4.19963298       3.55187159       0.00000000       0.00239171      -0.00384806      -0.00215058
S        3.62382441       6.26061870       2.63685861       0.00000000      -0.00034633      -0.00027835       0.00528934
C        2.45930240       8.48680986       3.66252980       0.00000000       0.00435889       0.00009537      -0.00274820
C        9.89038679      -0.03251332       3.77480670       0.00000000      -0.00432541       0.00084074      -0.00661742
C        8.67457029       2.11028478       3.84930283       0.00000000      -0.00115279       0.00315352      -0.00630692
C        7.45811543       4.25019894       3.76020853       0.00000000      -0.00922211      -0.00175721      -0.00443448
C        6.20919248       6.38208038       3.51283715       0.00000000       0.00015926       0.00068683      -0.00131369
C        4.93840908       8.52095055       3.52225762       0.00000000       0.00066549       0.00466419      -0.00911556
C        0.02883590       1.44106937       3.77382665       0.00000000       0.00386359      -0.00448080      -0.00093099
C       -1.20662448       3.55172636       3.81616263       0.00000000      -0.00583870      -0.00250612       0.00424796
C       -2.44976043       5.68806718       3.80838039       0.00000000       0.00153381       0.00544568       0.00436944
C       -3.69247243       7.83480017       3.73321569       0.00000000       0.00069293       0.00138359       0.00255590
C       -4.91593843       9.98781816       3.70896407       0.00000000      -0.00003998       0.00102294       0.00825035
C        2.49259348       1.48289008       3.77032947       0.00000000      -0.00242601       0.00073090      -0.00569325
N        1.20569764       3.57742967       3.79124143       0.00000000      -0.00504731       0.00097526      -0.00398845
C       -0.03504162       5.69607060       3.78714886       0.00000000      -0.00026913       0.00092043      -0.00026141
C       -1.23741493       7.83698299       3.81449877       0.00000000       0.00197310      -0.00530761       0.00188054
C       -2.45938820       9.99086177       3.78664414       0.00000000       0.00794122       0.00007096       0.00757680
C        4.96939589       1.42411026       3.79460105       0.00000000       0.00285254       0.00759741      -0.00190125
N        3.83076624       3.54116968       3.65153030       0.00000000       0.00312067       0.00468828       0.01467280
C        1.20551086       7.82912170       3.74457900       0.00000000       0.00130358       0.00427201      -0.00198501
C        0.01810658       9.95679547       3.82776752       0.00000000       0.00492747      -0.00962570       0.00728927
C        7.44291735       1.39002661       3.84905087       0.00000000       0.00160452      -0.00154756       0.00446918
C        6.24641549       3.50966486       3.72779375       0.00000000      -0.00178933      -0.00181832      -0.00172976
C        5.06161094       5.59303714       3.31878104       0.00000000      -0.00135126      -0.00243190       0.01306349
C        3.69733343       7.84559097       3.37007560       0.00000000       0.00077622      -0.00224244       0.00408920
C        2.48475731       9.92327211       3.78463525       0.00000000       0.00044110      -0.00396957       0.00988766
C        9.90142824       1.40009056       3.82765973       0.00000000       0.00011965      -0.00081206      -0.00173129
C        8.68156252       3.53791045       3.82903032       0.00000000      -0.00888103       0.00529251       0.00458158
C        7.44347514       5.67556731       3.69209367       0.00000000      -0.00205799      -0.00361461       0.00103015
C        6.18377857       7.81850083       3.53376762       0.00000000       0.00260236       0.00433258      -0.00144324
C        4.95450885       9.95708140       3.68424017       0.00000000      -0.00275154       0.00071599       0.00663691
Co       2.55700601       4.78043513       3.99890847       0.00000000      -0.00151269      -0.00554542       0.00938451
O        1.28869725       5.22242038       6.28734500       1.00000000      -0.00841873       0.00138665       0.01050151
O        2.48778806       4.97776264       5.87690532       1.00000000       0.01103372      -0.00219565      -0.01368996
