51
Lattice="12.336457 0.0 0.0 -6.168228499999997 10.683685154694365 0.0 0.0 0.0 15.0" Properties=species:S:1:pos:R:3:forces:R:3 energy=-451.419158259944 free_energy=-451.419158259944 stress="-0.00039600235776878433 0.0026392356401202404 1.978413994812444e-05 0.0026392356401202404 -0.0034431854505786986 1.2634893455522853e-05 1.978413994812444e-05 1.2634893455522853e-05 9.628207044591504e-06" pbc="T T T"
C       -0.00332629      -0.00039907       3.73275389      -0.00391470       0.00754942       0.00292184
C       -1.21410846       2.15213584       3.82963481      -0.00844581       0.00365102       0.00098001
C       -2.44272013       4.28025377       3.82969145      -0.00162580      -0.01072292       0.00102512
C       -3.70159141       6.40495090       3.73284805       0.00651456      -0.00575851       0.00301012
C       -4.95874447       8.53128458       3.65699386      -0.00560999      -0.00238258       0.00092886
C        2.45687543      -0.01071861       3.73553704       0.00130169      -0.00761055      -0.00057652
C        1.24585083       2.13845127       3.81843326       0.00771283      -0.00893050      -0.00247820
C        0.04841672       4.29970931       3.91464385       0.00132166       0.00156409       0.00637330
C       -1.22456935       6.41743048       3.81852844      -0.00476211       0.01061642      -0.00273656
C       -2.48032171       8.54084603       3.73555379      -0.00622802       0.00309669      -0.00044541
C        4.92853275      -0.00515913       3.74436302      -0.00685188      -0.00440964       0.00573580
C        3.69602308       2.11735424       3.74728393       0.00385574       0.00907937      -0.00161771
N        2.50595740       4.18988750       3.95994392       0.00054250       0.00506545       0.00849848
N        1.18208242       6.48294107       3.96003181       0.00394211      -0.00170029       0.00743233
C       -0.01774041       8.54978481       3.74727168       0.00899694       0.00029302      -0.00155660
C        7.39753905       0.00761535       3.76854268      -0.00587558       0.00398873       0.00059300
C        6.17415740       2.12673163       3.76845912      -0.00047910      -0.00878926       0.00090361
C        4.93562392       4.24101787       3.63630849       0.00749907      -0.00307795      -0.00041854
S        3.57888387       6.33797126       2.59484549       0.00854665       0.00687829       0.00739825
C        2.44117382       8.56161104       3.63635616       0.00111731       0.00685092      -0.00102888
C        9.87107681       0.01323840       3.74548457       0.00162774      -0.00541476      -0.00788265
C        8.64788411       2.14215583       3.80770357       0.00078090       0.00124184       0.00301291
C        7.41574085       4.26591346       3.74548591      -0.00374577       0.00590689      -0.00793077
C        6.16028786       6.39141334       3.54178893       0.00087686       0.00314981      -0.00406485
C        4.91575125       8.54703180       3.54173111       0.00416047      -0.00212656      -0.00413253
C        0.00877834       1.43077595       3.80041665      -0.00592975       0.00845903      -0.00503172
C       -1.19191070       3.58366650       3.86480628      -0.00100292      -0.00087908       0.00363121
C       -2.45602716       5.69998448       3.80055468       0.00459151      -0.01093035      -0.00531322
C       -3.71539235       7.82580678       3.70526851      -0.00249560      -0.00468369       0.00505857
C       -4.94803193       9.96080247       3.70519806      -0.00579058       0.00146036       0.00527757
C        2.46201678       1.41220082       3.76778230       0.01106024      -0.00808060       0.00147517
C        1.27870503       3.56407559       3.90509078       0.00314048      -0.00473432       0.00209583
C        0.02649808       5.73299213       3.90510448      -0.00362640       0.00609322       0.00236888
C       -1.24545284       7.83378406       3.76779275      -0.00190358       0.01307035       0.00169001
C       -2.47620641       9.96468045       3.73323608      -0.00308911      -0.00336184      -0.00541758
C        4.93716614       1.41485559       3.74769763      -0.00397396      -0.00389985       0.00341411
C        3.69073948       3.52590114       3.75108659       0.00365491       0.01190425      -0.01305138
C        1.19947163       7.84097215       3.75106938       0.01104595      -0.00222121      -0.01259294
C       -0.00566167       9.97589547       3.74775239      -0.00381696       0.00005742       0.00321116
C        7.40909792       1.42699208       3.78836847       0.00146706       0.00061286       0.00884410
C        6.17937084       3.54646774       3.73093195       0.00404600      -0.00712775       0.00067030
C        4.97118446       5.63139004       3.38732141       0.00839004      -0.00290955       0.00671223
C        3.66299845       7.89718467       3.38727373       0.00279118       0.00887642       0.00659352
C        2.46151649       9.98601797       3.73097977      -0.00376592       0.00560647       0.00069951
C        9.88347429       1.43826304       3.80376419      -0.00234966      -0.00397829       0.00056009
C        8.65611277       3.56417198       3.80377943      -0.00601630       0.00079952       0.00050764
C        7.40556585       5.68675091       3.68719552      -0.00042760       0.00745510      -0.00653352
C        6.14472357       7.81950166       3.55704119      -0.00225633      -0.00231179      -0.00209524
C        4.92828957       9.97778426       3.68715217       0.00364458      -0.00509831      -0.00671689
Co       2.70278189       5.83228937       4.70965790      -0.01464555      -0.00987687      -0.00751524
O        2.73352073       5.84993815       6.33632590      -0.00399999      -0.00230994      -0.00248656
