50
Lattice="12.336457 0.0 0.0 -6.168228499999997 10.683685154694365 0.0 0.0 0.0 15.0" Properties=species:S:1:pos:R:3:forces:R:3 energy=-438.45370859215774 free_energy=-438.45370859215774 stress="-0.0018138271535977342 -0.0022386658096428765 1.421137899836565e-05 -0.0022386658096428765 0.00593900146187166 5.0880182345561755e-06 1.421137899836565e-05 5.0880182345561755e-06 -1.1684073586705326e-05" pbc="T T T"
C       -0.00082686       0.01511402       3.86176331      -0.00574658       0.00800086       0.00240336
C       -1.25715380       2.11954742       3.85398147      -0.00859157      -0.00344128       0.00332602
C       -2.48544769       4.26063808       3.87055097       0.00405801       0.00183187      -0.00530638
C       -3.69682175       6.40971476       3.88711809       0.00870054       0.01274603      -0.00366267
C       -4.92971092       8.56095139       3.89037889      -0.00768555      -0.00802796       0.00355576
C        2.46474450       0.02694935       3.82117075      -0.00520281       0.00375882       0.00479289
C        1.20839556       2.20351659       3.79122455       0.00278849       0.01357599       0.00138669
C       -0.03713998       4.24682055       3.85676172       0.00641751      -0.00677335      -0.00121934
C       -1.24321435       6.40262401       3.87771031      -0.00908105      -0.00065151       0.00395909
C       -2.46321114       8.54926468       3.86676125       0.00267527       0.00104217       0.00598457
C        4.93668095      -0.01553016       3.71377714       0.00048812      -0.00785908      -0.01033928
C        3.67503171       2.08847470       3.38373212       0.00076568       0.00310203       0.00321143
N        1.18357208       6.33848016       3.85622727      -0.00802014       0.00356349       0.00263233
C        0.01808834       8.49067688       3.80827488      -0.00039869       0.00633596      -0.00611502
C        7.40143335      -0.04439269       3.73531593       0.01247750      -0.00130306       0.00697044
C        6.15851178       2.13112839       3.57076497      -0.00244151      -0.00378742      -0.00257222
C        5.01836792       4.36265546       3.34282624      -0.01277370       0.00613470      -0.01234625
O        3.79919820       6.44175657       3.48394332       0.00816839       0.00632511       0.00268328
C        2.48317182       8.44935481       3.77863951       0.00222478       0.01205980      -0.00023911
C        9.85253151      -0.03872721       3.81309567       0.01047116      -0.01100293       0.00159032
C        8.61647930       2.11489470       3.77763080       0.00714543      -0.00616576      -0.00398617
C        7.40078788       4.27285213       3.74820621      -0.00153940       0.00965420       0.00569005
C        6.19584775       6.43548891       3.76960099       0.00353311      -0.00124217      -0.00895630
C        4.93907049       8.53668689       3.81782387      -0.00686397      -0.00490593      -0.00286856
C       -0.00523604       1.44886243       3.84590417      -0.00551556       0.00675547       0.00493182
C       -1.26123760       3.53903793       3.86824966       0.00165561      -0.00018778       0.00316896
C       -2.47280649       5.68652758       3.88875995      -0.00232749       0.00442862       0.00210810
C       -3.69465813       7.83983925       3.89505423       0.00283708       0.00575879       0.00049128
C       -4.93162462       9.99300560       3.87777839      -0.00918498      -0.00391330       0.00819605
C        2.45213046       1.46040595       3.69507997       0.00560967       0.00159010       0.00376914
N        1.15706852       3.58219445       3.83878124      -0.00083795      -0.00927771       0.00100500
C       -0.02574738       5.68886084       3.85797187      -0.00607461      -0.00113196       0.00146750
C       -1.23177783       7.82286460       3.85559684      -0.00178595       0.00463715       0.00472663
C       -2.46851191       9.97999262       3.80736603      -0.00173772      -0.00310584      -0.00021753
C        4.92389428       1.41692629       3.54697070      -0.00567356      -0.00463160      -0.00170751
S        3.58945639       3.66181755       2.62988032      -0.00101404      -0.00053925       0.00221307
C        1.23304716       7.72231975       3.80821067       0.00172286      -0.00750748       0.00067938
C        0.00591031       9.92889522       3.75183573       0.00837698      -0.00271230      -0.00927693
C        7.38236155       1.40121185       3.69669919       0.00541323      -0.00358229       0.00518602
C        6.17213372       3.57024921       3.55886204      -0.01423338       0.00671424      -0.00837465
C        5.01913174       5.74453168       3.53072010       0.00571791      -0.00015805      -0.00852164
C        3.73851215       7.82961253       3.73577117      -0.00067358      -0.00289981      -0.00483858
C        2.46396801       9.89838302       3.77892815       0.01120436      -0.00503458       0.00475370
C        9.84813605       1.39797333       3.82222758       0.00217943      -0.01457813       0.00953362
C        8.62193950       3.54448929       3.81188918       0.00405833       0.00239253      -0.00538632
C        7.41428803       5.69573644       3.81918536       0.00960493       0.01443022       0.00000914
C        6.18680016       7.85272653       3.84663228      -0.00973882      -0.00614103      -0.00849406
C        4.93008068       9.96668162       3.84554399       0.00350268      -0.00978708      -0.00745544
Co       2.42094534       5.00062020       4.09072850       0.01338762      -0.00146849       0.00443624
O        2.53829847       5.15399678       5.72214824      -0.01804207      -0.00302103       0.00702211
