50
Lattice="12.336457 0.0 0.0 -6.168228499999997 10.683685154694365 0.0 0.0 0.0 15.0" Properties=species:S:1:pos:R:3:forces:R:3 energy=-441.3803079275812 free_energy=-441.3803079275812 stress="-0.0016030369169567984 -0.0011015722760496882 1.8785767984704633e-06 -0.0011015722760496882 0.006413225036775573 5.165902606218926e-06 1.8785767984704633e-06 5.165902606218926e-06 9.751134513455225e-07" pbc="T T T"
C       -0.00391927       0.01324454       3.84153698      -0.00774251       0.00759422       0.00857505
C       -1.25305237       2.12346204       3.83892778      -0.00822308      -0.00263135       0.00418404
C       -2.47763857       4.26457345       3.87532342       0.00307006      -0.00827641      -0.00207723
C       -3.69622416       6.41412972       3.90128631       0.00557687       0.00720706      -0.00182527
C       -4.93030185       8.56573224       3.89316986       0.00573556      -0.00122153      -0.00547084
C        2.46045386       0.03305974       3.80958639      -0.00228649      -0.00684938      -0.00285939
C        1.21106528       2.21511806       3.75649114       0.01109262       0.00991132       0.00099473
C       -0.02006207       4.25590260       3.82784054       0.00890915      -0.00021845       0.00315428
C       -1.24009397       6.40734805       3.88350120      -0.00400707      -0.00300528      -0.00204426
C       -2.46900878       8.55479880       3.87234045       0.00370608      -0.00288191      -0.00269777
C        4.93222016      -0.01016803       3.70913028      -0.00781122      -0.00547317       0.01339906
C        3.67815546       2.08962135       3.37510792       0.00033726       0.00637803       0.00371714
N        1.18314152       6.36235808       3.82872748       0.00574777      -0.00351560      -0.00242954
C        0.00478470       8.50424509       3.80978835      -0.00238605       0.00893233       0.00530515
C        7.39822345      -0.04033780       3.74720511       0.00760804       0.00588736      -0.00781430
C        6.16257744       2.12796077       3.58511304      -0.00161478      -0.00390908      -0.00514376
C        5.02812042       4.34911345       3.36080965      -0.00641288       0.00007945       0.00292579
N        3.76216805       6.38552642       3.62157124       0.00825397       0.00045214       0.00905936
C        2.46239677       8.46218738       3.78589175      -0.00426139       0.00823755      -0.00135971
C        9.85410557      -0.03813093       3.80937546       0.00276081       0.00575146       0.00002973
C        8.62188548       2.11606297       3.78807342      -0.00293436      -0.00125862       0.00152782
C        7.40909090       4.27292509       3.77338191       0.00783561       0.00391413      -0.01240164
C        6.19538262       6.43447598       3.78545976       0.00349915      -0.00239662      -0.00742611
C        4.93171448       8.52485426       3.80772796      -0.00344149      -0.00176619      -0.00261551
C       -0.00373838       1.44977593       3.82010566      -0.00132209       0.00502458       0.00760524
C       -1.25314391       3.54464729       3.85577793       0.00475360      -0.00116656      -0.00221008
C       -2.47123503       5.69180085       3.89867534      -0.00331737      -0.00272755      -0.00135500
C       -3.69965503       7.84423671       3.90419692       0.00901591       0.00332562       0.00219307
C       -4.93575327       9.99434302       3.86887664      -0.00732155      -0.00182958      -0.00594464
C        2.45196694       1.46529215       3.67342265       0.01247491      -0.00932247      -0.00154428
N        1.17247085       3.59674774       3.78590685       0.00518897      -0.00195306      -0.00189128
C       -0.01933819       5.69784344       3.84662817       0.00448856      -0.00081983       0.00119649
C       -1.23783014       7.82978216       3.86204431      -0.00324545       0.00573732      -0.00160419
C       -2.47381542       9.98558181       3.80274711      -0.00409101      -0.01168422       0.00448154
C        4.92525648       1.41989271       3.54743011      -0.00942989      -0.00281040       0.00277144
S        3.60740862       3.67611114       2.64883067      -0.01324636       0.01036500       0.00764337
C        1.22629914       7.74488509       3.80609822      -0.00375646      -0.01105595       0.00123274
C        0.00072979       9.93694799       3.75366357       0.00153293       0.00445706       0.01048143
C        7.38549193       1.40211562       3.71194509      -0.00029296       0.00151103      -0.00398667
C        6.17807874       3.56556928       3.58281438      -0.00149372       0.00391012      -0.01362168
C        4.97807367       5.74090144       3.58360173      -0.00459736      -0.01069706       0.00503460
C        3.70969409       7.75764562       3.74479069      -0.00586399      -0.00705973       0.00311923
C        2.45880043       9.90255794       3.78699511       0.00677905      -0.00057952      -0.00628880
C        9.85239148       1.39611512       3.82070484      -0.00588735       0.00182005       0.00238273
C        8.62777690       3.54712444       3.82638605       0.00448587      -0.00389737       0.00084647
C        7.41286483       5.70049201       3.83802723       0.00645677       0.00804849      -0.00965770
C        6.17860434       7.84988507       3.84898847       0.00516640       0.00098239      -0.01017557
C        4.92773954       9.95405328       3.82742765      -0.00351054      -0.00283421       0.00842842
Co       2.47686727       5.11192744       4.01457039      -0.00328930       0.00227492      -0.00206547
O        2.62099199       5.07610654       5.64512419      -0.01268918       0.00003945       0.00622179
