52
Lattice="12.336457 0.0 0.0 -6.168228499999997 10.683685154694365 0.0 0.0 0.0 15.0" Properties=species:S:1:pos:R:3:forces:R:3 energy=-440.8211461489892 free_energy=-440.8211461489892 stress="-0.006093955121780005 0.0035344230950193063 -5.763814467041723e-05 0.0035344230950193063 -0.004777063108966026 2.9428662817997665e-05 -5.763814467041723e-05 2.9428662817997665e-05 6.461331535528931e-05" pbc="T T T"
C        0.08349924      -0.07629085       3.78982980      -0.00685870      -0.02584877      -0.01014615
C       -1.12533297       2.08078773       3.71073654      -0.01432677       0.00344630      -0.01033855
C       -2.36701952       4.21114194       3.79789473      -0.00116998       0.02490743      -0.00886604
C       -3.62322110       6.33925963       3.87908444       0.00456067       0.01925911      -0.00126310
C       -4.86859647       8.46576122       3.83023513      -0.01710063      -0.01563919      -0.01835028
C        2.54570670      -0.10423965       4.02446348      -0.00783838      -0.02100799       0.02876063
C        1.36753068       2.01964147       3.80824459      -0.01527005       0.00264714       0.01080335
C        0.04312500       4.30264189       3.46144238       0.02132012      -0.01059514      -0.00352788
C       -1.20409730       6.38770919       3.65756879       0.01306259      -0.00454651      -0.01427661
C       -2.39699540       8.48102548       3.87711784      -0.02193536      -0.01139893       0.01081526
C        5.02725544      -0.08344143       4.08213886       0.00112665       0.03699927       0.01574968
C        3.78835180       1.96561633       4.45820744       0.00049669       0.01473579       0.00083722
O        1.15689808       6.43870580       3.36795247       0.03501077      -0.04552097       0.01235186
C        0.05705282       8.50092723       3.70198091      -0.01253528       0.00542691       0.02444068
C        7.49726470      -0.07748249       3.90461880       0.00138333      -0.01375450       0.01375496
C        6.29337232       2.03914777       4.28041328       0.01652836       0.01342181       0.00471108
C        5.13553747       4.22781589       4.40014177      -0.02179399       0.01730831       0.01803471
P        3.78173197       6.08019278       2.84563211      -0.02524003      -0.01765367       0.00548087
C        2.51783907       8.46691319       3.52965997      -0.00233088       0.02076880      -0.02745618
C        9.95713360      -0.07234358       3.73725530      -0.00471800       0.00112140       0.02840334
C        8.74721293       2.06061528       3.94628996      -0.01376681      -0.01642188      -0.00798227
C        7.52952630       4.19183400       4.07219934      -0.00009125      -0.00684981       0.04111760
C        6.27991594       6.33264430       3.85384659       0.03343388      -0.00358716      -0.00478147
C        5.00139832       8.45942620       3.59652955       0.01408080       0.01862714       0.03427720
C        0.10783732       1.36027717       3.75225442      -0.01784985      -0.02615489      -0.00672529
C       -1.13370631       3.51344138       3.64825160       0.00664816       0.01500344       0.00556520
C       -2.39994704       5.63329967       3.79325502      -0.00283138       0.03245602      -0.00548060
C       -3.63285745       7.76257836       3.86774600      -0.01406128      -0.00052709      -0.00402291
C       -4.85964923       9.88723737       3.87432007      -0.00685143      -0.02106939      -0.01736996
C        2.56160100       1.30632281       4.13147356      -0.00494995      -0.00930044      -0.00857228
P        1.64531906       3.62027656       3.08362149      -0.00410718       0.03925689      -0.02055036
C       -0.02742074       5.70032328       3.46525914      -0.01581957      -0.00422438      -0.05119030
C       -1.18285695       7.79678816       3.74359564      -0.01253402       0.00149620      -0.00039521
C       -2.38440304       9.89316277       4.00649277       0.00870516      -0.00892790       0.01891683
C        5.04240804       1.32571323       4.31622450       0.01139530       0.04239529      -0.03330128
P        3.67162701       3.58531039       5.17871366       0.02568152      -0.00783700      -0.00076562
C        1.25294921       7.82979898       3.50911558      -0.00500563       0.00517131      -0.01604227
C        0.08408561       9.90995427       3.90360416      -0.00998852       0.01495593       0.00776027
C        7.51170581       1.34374495       4.06023472      -0.00358859      -0.02623856      -0.00239200
C        6.32026038       3.46616720       4.29804544      -0.01520189       0.01322602      -0.00921048
C        5.09557354       5.56409590       3.91856908      -0.00292002       0.03093798       0.03255418
C        3.76548148       7.78450382       3.40493094       0.02342970       0.00727054       0.04258388
C        2.54619542       9.89574896       3.72559838       0.00315549       0.00826546      -0.00555107
C        9.97720740       1.35905556       3.80133309      -0.01630110       0.00038887      -0.02601594
C        8.75150713       3.48624292       3.95264108       0.00476253      -0.00702743       0.00562786
C        7.50410687       5.61622897       3.95669595       0.03096602      -0.00789325      -0.00428905
C        6.24264446       7.74981993       3.72414922       0.02289385       0.00173252      -0.01636243
C        5.01878792       9.89659227       3.69861679      -0.01300595       0.01016131       0.00272183
Co       2.46512874       5.22698053       4.38117192       0.00090953      -0.04599285       0.03817646
O        2.14760778       6.19954135       5.90106358      -0.00035052      -0.08629402       0.01374854
O        0.72528308       6.09450838       6.26119044       0.01922235       0.02699413      -0.07680144
H        0.83870486       5.67178615       7.13930515       0.01156951       0.01593039      -0.00516646
