50
Lattice="12.336457 0.0 0.0 -6.168228499999997 10.683685154694365 0.0 0.0 0.0 15.0" Properties=species:S:1:pos:R:3:forces:R:3 energy=-430.22628605951957 free_energy=-430.22628605951957 stress="-0.003991240186998972 0.0015250197565866005 8.85025963623223e-08 0.0015250197565866005 -0.0019193922431958088 -4.410154579023506e-06 8.85025963623223e-08 -4.410154579023506e-06 -7.745881365745575e-06" pbc="T T T"
C       -0.00601884       0.01082340       3.70230510      -0.00674250       0.00384235      -0.00357946
C       -1.22598588       2.16265912       3.59295779       0.00347213       0.00174621      -0.00675258
C       -2.46268307       4.29737339       3.75788648      -0.00022244      -0.00490068       0.00871451
C       -3.70701042       6.43030741       3.87441087       0.00584280      -0.00243447       0.01205260
C       -4.94863195       8.55848317       3.79327178      -0.00646173       0.00179089       0.01049653
C        2.45583726       0.01287533       3.88438217       0.00211233      -0.00458671      -0.00378322
C        1.26158475       2.10887780       3.50600074      -0.00202856      -0.01136409       0.00579844
C       -0.07100554       4.37082424       3.33243641      -0.00798367       0.00363198      -0.00431430
C       -1.27179929       6.45723235       3.71550854       0.01000576       0.00799375      -0.01013193
C       -2.47774942       8.56976015       3.86071935       0.00408162      -0.01556010      -0.00900037
C        4.93432367       0.01668716       3.94890819      -0.00310753      -0.00155029      -0.00012925
C        3.68979210       2.11603750       4.24293044      -0.00637682       0.01730250       0.00611579
O        1.11659323       6.47034365       3.48890571       0.00101851      -0.00734724      -0.00176426
C       -0.01326054       8.56300311       3.73128653       0.00646104      -0.00493177       0.00603344
C        7.40435318       0.00461262       3.83816886       0.00588091      -0.01482254      -0.00117167
C        6.18458568       2.14174294       4.14861991       0.00453421      -0.00515613      -0.00622503
C        5.01850620       4.31140713       4.35774553      -0.00351509      -0.00465951      -0.00031945
P        3.78803432       6.21964343       2.69435675       0.00644469       0.00102271       0.01272614
C        2.43768428       8.53306022       3.54520529      -0.00781995       0.00591351       0.00233203
C        9.86258480       0.00744498       3.68998143       0.01305081       0.00787943       0.00914304
C        8.64788308       2.14842009       3.86349180       0.00011088      -0.00778071      -0.00638614
C        7.43048114       4.28162161       4.01883513      -0.00361247       0.01129470       0.00069299
C        6.18650947       6.42387479       3.85970428      -0.01016284       0.00695775      -0.00342532
C        4.92087282       8.54726597       3.59001520      -0.00503950       0.00840245      -0.00065754
C        0.00836990       1.44543220       3.59519299      -0.00444517      -0.00355686      -0.00834890
C       -1.23560507       3.59420546       3.56079348       0.00064390      -0.00102277      -0.00382315
C       -2.48267429       5.71764390       3.79839814       0.01260763      -0.00049664       0.00159003
C       -3.71347579       7.85422046       3.85237871      -0.00162842      -0.00443251       0.00357126
C       -4.94459517       9.98448478       3.78347442      -0.00791049       0.00410940       0.00687582
C        2.46031781       1.44650774       3.89997954       0.00681814       0.00072848      -0.00313578
S        1.34863207       3.60234522       2.59921425      -0.00033138      -0.00207445      -0.00547948
C       -0.09504825       5.75769330       3.49773563      -0.00133060       0.00424319      -0.01148509
C       -1.25686600       7.87102660       3.78503988       0.01037605       0.00118261      -0.01042712
C       -2.47569450       9.99354772       3.91290148       0.00006360      -0.01625791      -0.00750856
C        4.93901295       1.43803519       4.11865428      -0.00405486       0.00866430       0.01093688
S        3.74613149       3.51168479       5.27753311      -0.00272491       0.00085904       0.01450916
C        1.18578674       7.87781491       3.58338270      -0.00311885      -0.00760266      -0.00336276
C        0.00010411       9.98818926       3.84287337       0.00030451      -0.00700292       0.00090421
C        7.40891439       1.43565925       3.96009482       0.00402182      -0.01710696      -0.00645347
C        6.21142044       3.56074355       4.20593874      -0.00057461       0.00499548      -0.00548415
C        4.97905362       5.66131017       3.90124413       0.00059438       0.00708633       0.00149902
C        3.69123207       7.86465754       3.39338604      -0.00768675       0.01340265       0.00958944
C        2.45526699       9.96978752       3.69841700       0.01236675       0.00363240       0.00249935
C        9.88172107       1.44330253       3.71996295       0.00896752       0.00480920      -0.00661253
C        8.65377704       3.57122449       3.89177814      -0.00715239      -0.00367388       0.00532940
C        7.41506337       5.70950248       3.94337811      -0.00529900       0.01200145       0.00690137
C        6.16221910       7.84145839       3.71355112      -0.00739410       0.00494580      -0.00122959
C        4.92656882       9.98218675       3.66311386       0.00271908       0.00531171       0.00544076
Co       2.49728585       4.94415405       3.83281969      -0.01084373      -0.01017159      -0.01117674
O        2.40231484       4.29731793       5.57320322       0.00506932       0.00474313      -0.00158439
