51
Lattice="12.336457 0.0 0.0 -6.168228499999997 10.683685154694365 0.0 0.0 0.0 15.0" Properties=species:S:1:pos:R:3:initial_magmoms:R:1:forces:R:3 energy=-434.3286438316432 free_energy=-434.3286438316432 stress="-0.004327029604277761 0.0025407590371947495 1.4001304583649135e-06 0.0025407590371947495 -0.0027510851758360184 -1.4859426123426829e-05 1.4001304583649135e-06 -1.4859426123426829e-05 -5.183268950150683e-06" pbc="T T T"
C       -0.02410904      -0.03755490       3.67536666       0.00000000       0.00293210      -0.00150127      -0.00905086
C       -1.23826862       2.11940430       3.60680106       0.00000000      -0.00055476      -0.00120019      -0.00424576
C       -2.47680925       4.25378757       3.78931715       0.00000000       0.00383103       0.00170278      -0.00826337
C       -3.72779507       6.38483435       3.88056122       0.00000000      -0.00004253      -0.00474336      -0.00380421
C       -4.97311940       8.50715024       3.76732959       0.00000000      -0.00052843       0.00243105      -0.00275121
C        2.43876906      -0.04627370       3.86002198       0.00000000       0.00461066       0.00620508      -0.00660610
C        1.25083959       2.06496499       3.53577151       0.00000000      -0.00150350      -0.00026360       0.00095134
C       -0.08730942       4.33601022       3.37326084       0.00000000       0.00464725       0.00001570       0.00889046
C       -1.29706564       6.41978773       3.72220190       0.00000000      -0.00084093      -0.00027483       0.01160348
C       -2.50082490       8.52318062       3.85569085       0.00000000       0.00629705      -0.00679253      -0.00155785
C        4.91767408      -0.03235023       3.95457710       0.00000000      -0.00856674       0.00192575      -0.00254540
C        3.68012045       2.05987084       4.17524159       0.00000000       0.00025621      -0.00501545       0.00595760
O        1.07487816       6.44822207       3.39141565       0.00000000      -0.00121279      -0.00077647       0.00437484
C       -0.03777794       8.52574067       3.71330995       0.00000000       0.00777354       0.00483176       0.00750727
C        7.38930155      -0.03970372       3.84315883       0.00000000       0.00031312      -0.00917311      -0.00137424
C        6.17329834       2.09263766       4.15244558       0.00000000       0.00305864      -0.00453062       0.00589032
C        5.00290319       4.26934244       4.26828899       0.00000000      -0.00934595      -0.00268165       0.00471713
P        3.68417385       6.14305202       2.68913144       0.00000000      -0.00832117       0.00936523      -0.00360160
C        2.41743036       8.49480620       3.50043131       0.00000000      -0.00215429       0.00320468       0.00029120
C        9.84797315      -0.03626913       3.67732199       0.00000000       0.00101814      -0.00034916       0.00125071
C        8.63538359       2.10253369       3.88492891       0.00000000      -0.00067420       0.00528243       0.00424317
C        7.41755714       4.23720545       4.03291122       0.00000000      -0.00567361      -0.00334501      -0.00254876
C        6.17037643       6.37216858       3.79818359       0.00000000       0.00117026      -0.00827462       0.00113616
C        4.89663397       8.49618737       3.54139423       0.00000000      -0.00615311      -0.00102986      -0.01024753
C       -0.00576895       1.40144010       3.59086457       0.00000000       0.00004363      -0.00146986       0.00598482
C       -1.24855481       3.55138238       3.59021971       0.00000000       0.00437029      -0.00134705      -0.00170434
C       -2.50223983       5.67413182       3.81988980       0.00000000       0.00041073       0.00004825       0.00665002
C       -3.73752624       7.80657473       3.84393289       0.00000000       0.00030497      -0.00382331       0.00309931
C       -4.96602138       9.93165875       3.75769482       0.00000000       0.00545241       0.00667759      -0.00642451
C        2.45163929       1.37911175       3.86821575       0.00000000       0.00210632       0.00564921       0.00400462
S        1.38686339       3.60766178       2.72969325       0.00000000       0.00443219      -0.00185621      -0.00543810
C       -0.12311046       5.72427285       3.49951531       0.00000000      -0.00316860      -0.00068651       0.00771503
C       -1.28019899       7.83101941       3.77886420       0.00000000       0.01041706      -0.00158195      -0.00049528
C       -2.49175380       9.94421815       3.90549311       0.00000000      -0.00203097      -0.00328690      -0.01431613
C        4.92801302       1.39058657       4.11247209       0.00000000      -0.00134584       0.00115425      -0.00835222
S        3.59963898       3.53509941       5.05208267       0.00000000      -0.00123349       0.00845658      -0.00258070
C        1.15942292       7.85028597       3.52446251       0.00000000       0.00397597       0.00105469       0.01070509
C       -0.01849632       9.94609250       3.84694433       0.00000000      -0.00646841       0.00523390      -0.00207566
C        7.39712726       1.38859386       3.97666259       0.00000000       0.00274560      -0.00712142      -0.00294772
C        6.19484261       3.51251487       4.19716338       0.00000000      -0.00777753      -0.00468226      -0.00316572
C        4.97033880       5.60259947       3.80495546       0.00000000      -0.00063873      -0.00511643      -0.00793381
C        3.66429500       7.81869077       3.34148747       0.00000000      -0.00916157       0.00202807       0.00535804
C        2.43941415       9.92876989       3.68291498       0.00000000       0.00254879      -0.00256076      -0.00191185
C        9.86833616       1.39909119       3.72765836       0.00000000      -0.00109945       0.00117800       0.00375947
C        8.64031969       3.52600211       3.92261935       0.00000000       0.00019272       0.00720239      -0.00557790
C        7.39570762       5.66189034       3.93200866       0.00000000       0.00232799      -0.00605928       0.00407546
C        6.13901130       7.78964103       3.66745131       0.00000000      -0.00475330      -0.00242483       0.00584053
C        4.90831220       9.93363160       3.63060667       0.00000000       0.00050854      -0.00162965      -0.00049903
Co       2.37722688       5.00500979       3.99877362       0.00000000       0.00940143       0.00533784       0.00287600
O        3.43034393       5.29505676       6.41568447       1.00000000       0.00154374       0.00955401       0.01311321
O        2.51918395       5.88045811       5.67393690       1.00000000      -0.00344054       0.00505889      -0.00997544
