52
Lattice="12.336457 0.0 0.0 -6.168228499999997 10.683685154694365 0.0 0.0 0.0 15.0" Properties=species:S:1:pos:R:3:forces:R:3 energy=-440.1356174305482 free_energy=-440.1356174305482 stress="-0.004359035088384055 0.005061770246577442 1.1438504665486233e-05 0.005061770246577442 -0.0009666564995735588 2.466070658011241e-05 1.1438504665486233e-05 2.466070658011241e-05 3.120150704898498e-05" pbc="T T T"
C        0.07413362      -0.07337772       3.70315041      -0.00043273      -0.00171414       0.00503407
C       -1.13931021       2.07993266       3.64219913       0.00390014       0.00583934      -0.00556953
C       -2.39011801       4.20957484       3.84089337       0.00287577      -0.00106767      -0.00765618
C       -3.65261792       6.33695658       3.92769044      -0.00347532       0.00063169      -0.00131426
C       -4.89592167       8.46126996       3.81190116       0.00151274       0.00943722       0.00026260
C        2.53612739      -0.05740109       3.85847480      -0.00017663      -0.00900247       0.00894206
C        1.34436685       2.03973876       3.49068475       0.00159683       0.00389371      -0.00249359
C       -0.00444885       4.30141441       3.46033075      -0.00289143      -0.00139534      -0.00310370
C       -1.21847258       6.37589366       3.84143141       0.00672374      -0.00441272       0.00761032
C       -2.42284496       8.48243637       3.93001785      -0.00004690       0.00122636      -0.00090330
C        5.00255088      -0.07911427       3.95299078       0.00249284       0.01165438      -0.00148483
C        3.82543769       2.03165781       3.89861427      -0.00177912      -0.00725338      -0.00268459
O        1.16949723       6.39578190       3.66324693       0.00179928      -0.00589230       0.00210017
C        0.04857337       8.47193062       3.85175204      -0.00561392       0.00702416      -0.00272463
C        7.48429713      -0.09720327       3.89780033       0.00031447       0.00483199      -0.00260762
C        6.27784701       2.02957089       4.00603328       0.00382987       0.00217463      -0.00567775
C        5.09677964       4.12982420       3.88599267       0.00326698       0.00330426      -0.00114775
S        3.67762539       6.14228927       2.84128401      -0.00893974       0.01393853      -0.00176354
C        2.50475479       8.43992735       3.66213481       0.00054152      -0.00158740      -0.00340621
C        9.94566900      -0.08499242       3.74408904       0.01155165       0.00371130       0.00010512
C        8.73648808       2.05219458       3.88855307      -0.00549946      -0.00356917       0.00603318
C        7.50061025       4.18466485       3.97036204       0.00516226      -0.00679553      -0.00078273
C        6.23323893       6.30135358       3.76075509      -0.00249088       0.00980681       0.00580399
C        4.98025398       8.44459986       3.61024813       0.00021883      -0.01568504       0.00257825
C        0.09963844       1.37006069       3.60162897       0.00167648       0.00465975      -0.00177948
C       -1.16021574       3.51008335       3.64621309       0.00277430       0.00183737       0.00108163
C       -2.42425988       5.62931147       3.89344039       0.00247745       0.00007868       0.00198243
C       -3.65978269       7.76155424       3.90226593      -0.00307013       0.00584848       0.00226744
C       -4.87132318       9.90040003       3.78869166      -0.00294350       0.00124122       0.00760982
C        2.57130834       1.37893212       3.77790877      -0.00243275      -0.00974410       0.00936433
S        1.46379612       3.63967661       2.81911696      -0.01705094      -0.00059738       0.00513527
C       -0.03845990       5.68534723       3.63915995       0.00761353      -0.00514161       0.00437058
C       -1.20367348       7.78633640       3.89795062      -0.00206319      -0.00123102      -0.00765402
C       -2.40952785       9.91207876       3.93122127       0.00491801       0.00165115       0.00310409
C        5.02361075       1.34679303       3.97045398       0.00540508       0.00527948      -0.00040751
O        3.89490761       3.42579702       4.01931749      -0.00448852       0.00297805      -0.00025332
C        1.24601211       7.79539457       3.70877468      -0.00352730       0.00221338      -0.00056434
C        0.07079749       9.89472580       3.91747276      -0.00325096       0.00967538      -0.00618182
C        7.49936429       1.33144228       3.95186024      -0.00591105       0.00118947      -0.00766333
C        6.28955465       3.44091956       3.99830739       0.00474500      -0.00096919       0.00595998
C        5.07196103       5.50629378       3.64377813      -0.00040777       0.00569772      -0.00302887
C        3.74479995       7.77175152       3.45443817      -0.00188995      -0.01663174       0.00164158
C        2.53769903       9.87412055       3.78552136       0.00735549       0.00337131       0.00851095
C        9.97022320       1.35286751       3.76556898       0.00228842       0.00622894       0.00976061
C        8.73105609       3.47694154       3.92314202       0.00449255      -0.00619369      -0.00146963
C        7.46706691       5.60347121       3.91581227      -0.00366676      -0.00183468      -0.00217576
C        6.21459460       7.73129909       3.70056935       0.00538598       0.00858288      -0.00279246
C        5.00253562       9.88979453       3.69049142       0.00517752      -0.01425955      -0.00555628
Co       2.46284458       5.00274463       4.56974900      -0.00247450      -0.00710208       0.00205481
O        2.09694545       5.34584245       6.26362049      -0.00711409      -0.00246099      -0.00869117
O        1.24938735       6.53772616       6.45820798      -0.00400085      -0.01485513       0.00170337
H        1.38529270       6.61595285       7.42278111      -0.00445838       0.00138868      -0.01147843
