50
Lattice="12.336457 0.0 0.0 -6.168228499999997 10.683685154694365 0.0 0.0 0.0 15.0" Properties=species:S:1:pos:R:3:forces:R:3 energy=-431.9182531953436 free_energy=-431.9182531953436 stress="-0.0021722540939205903 -0.0036877145251708603 -1.3350241971334718e-06 -0.0036877145251708603 -0.0036792543174389157 1.1962941850176123e-05 -1.3350241971334718e-06 1.1962941850176123e-05 4.443758222172634e-06" pbc="T T T"
C        0.02049732       0.00915205       3.69006778      -0.00129217      -0.00413429      -0.00678704
C       -1.24143446       2.13328641       3.49557579      -0.00588474      -0.00311455      -0.00258851
C       -2.48430153       4.27803240       3.61309839       0.00353299      -0.00181310      -0.00003786
C       -3.67146753       6.42496765       3.80858444      -0.00168371      -0.00018499      -0.00678961
C       -4.89492061       8.56120108       3.82602555       0.00178088      -0.01144194       0.00129260
C        2.49353975      -0.01925136       3.72122432      -0.00617442       0.00132899      -0.00438781
C        1.25478757       2.06469213       3.28718693      -0.00724758       0.00635355      -0.00757659
C       -0.16088542       4.27360728       2.93015810      -0.00232786      -0.00726348      -0.00020371
C       -1.25006081       6.43243292       3.41461547       0.00851043       0.00235194       0.01081911
C       -2.41626867       8.54838995       3.72335107      -0.00574375       0.00452118       0.00744179
C        4.96412983       0.00802511       3.89946287       0.00796000      -0.00695633       0.00591070
C        3.66227275       2.08650013       4.03728910       0.00837083       0.01309474      -0.00189491
S        1.41558441       6.41125588       2.59437179       0.00710974       0.00367190       0.00045665
C        0.05377084       8.54844419       3.64162840       0.00193818      -0.00200487      -0.00495561
C        7.42484295       0.01328510       3.94024825       0.00026232       0.00006009       0.01194376
C        6.16321921       2.17356305       4.11098824       0.00253441       0.00057755       0.00523397
C        5.00390903       4.41998296       4.36262667      -0.00848860       0.00379339      -0.00331350
O        3.82974002       6.51984388       4.21284554      -0.00331992      -0.00593179      -0.00314773
C        2.52638361       8.53959117       3.84354483       0.00100875       0.00335556       0.00274338
C        9.89034871       0.01416162       3.85822523      -0.00366029       0.00205533      -0.00389376
C        8.63978646       2.15308421       3.88096985      -0.00487846      -0.00383908      -0.00674890
C        7.41760119       4.29978334       4.01986684      -0.00242899       0.00436841      -0.00335914
C        6.22958435       6.47216834       4.06485704      -0.00129521       0.00699450      -0.00157057
C        4.97609626       8.57268216       3.93157910       0.00174706       0.00196837       0.00206398
C        0.00607746       1.42476116       3.46619800      -0.00531509       0.00171289       0.00119516
C       -1.28978703       3.54195504       3.34371933       0.00085767      -0.00382441       0.00392764
C       -2.46352892       5.70497190       3.62190458       0.00279543       0.00154184      -0.00627784
C       -3.65774020       7.84585383       3.78400587       0.00001780      -0.00439076       0.00759809
C       -4.90972493       9.97663048       3.72812553      -0.00504802      -0.01206266       0.00063548
C        2.46916728       1.39618671       3.66761731      -0.00038583       0.00516128      -0.00401842
S        1.32920701       3.51801739       2.29780352      -0.00474077       0.00864722       0.00792341
C       -0.12121018       5.69299892       3.02597896       0.00957921      -0.00449651       0.00037566
C       -1.18892367       7.84208799       3.57889819      -0.00312856       0.00830460      -0.00660599
C       -2.42799511       9.97104159       3.79558256       0.00030262       0.00435394      -0.00751080
C        4.93939765       1.43652919       4.05092434       0.00680752      -0.00429045       0.01477496
P        3.45537132       3.70446349       4.62074164       0.00366016       0.00568841      -0.00102790
C        1.30244355       7.88610118       3.51060743       0.00457117      -0.00276303       0.00173931
C        0.03391901       9.97841703       3.86017010       0.00905202      -0.00492821      -0.00408644
C        7.40428014       1.45003674       4.00000294      -0.00225914      -0.00165661       0.01093114
C        6.18122389       3.61005202       4.18296057      -0.00303722       0.00308807      -0.00221514
C        5.02415672       5.81919301       4.22936866      -0.00156345      -0.00089810      -0.00739032
C        3.78129381       7.87275720       3.96356096       0.00101035       0.00177844      -0.00032726
C        2.49890895       9.97459594       3.92092558      -0.00357707       0.00435542      -0.00829392
C        9.87955026       1.44074181       3.75556125      -0.00558926      -0.00091603      -0.00105731
C        8.63664431       3.57473677       3.85078486       0.00085884      -0.00356070       0.00025747
C        7.44049172       5.72154342       3.97840096      -0.00422874       0.00681104      -0.00211119
C        6.22074118       7.87509344       3.94356824       0.00054075       0.00114785       0.00154934
C        4.95655681       9.99544469       3.82428509      -0.00188269       0.00241400       0.00634362
Co       1.57674604       4.78285679       4.17196359       0.00780578      -0.00807781       0.00172539
O        2.49151083       4.16534757       5.75977217       0.00256663      -0.01095082       0.00129518
