51
Lattice="12.336457 0.0 0.0 -6.168228499999997 10.683685154694365 0.0 0.0 0.0 15.0" Properties=species:S:1:pos:R:3:initial_magmoms:R:1:forces:R:3 energy=-435.2654549351204 free_energy=-435.2654549351204 stress="-0.002677649860010877 -0.004346860495067463 9.776402302270574e-06 -0.004346860495067463 -0.0033767186048605986 4.661407658413351e-06 9.776402302270574e-06 4.661407658413351e-06 -4.719496562956208e-06" pbc="T T T"
C        0.03497632      -0.01364806       3.83141492       0.00000000       0.00798586       0.00691544       0.00029425
C       -1.22509143       2.11120067       3.61627397       0.00000000      -0.00559076       0.00159288      -0.00159103
C       -2.45313961       4.25993367       3.78322920       0.00000000      -0.00296333       0.00333445      -0.00108937
C       -3.64042734       6.40897401       4.01146114       0.00000000      -0.00283551       0.00445200      -0.00907980
C       -4.87507199       8.54613156       4.04264829       0.00000000       0.00175599      -0.00356574       0.00870832
C        2.50549275      -0.04248856       3.79765698       0.00000000      -0.00173058      -0.00326227      -0.00916054
C        1.24664117       2.01076918       3.24947684       0.00000000       0.01027480       0.00335906      -0.00392756
C       -0.14735571       4.25202157       3.05857073       0.00000000      -0.00995659       0.00015769      -0.00118116
C       -1.23036743       6.41306665       3.55875787       0.00000000       0.00221162      -0.00854862       0.00130948
C       -2.39756257       8.52980150       3.86567737       0.00000000       0.00293274       0.01183152      -0.00143108
C        4.97839109      -0.00795235       3.84107571       0.00000000      -0.00093038      -0.00681532       0.01566660
C        3.69337176       2.07011547       3.68371086       0.00000000      -0.00405838       0.00879943      -0.00186050
S        1.36506514       6.41878885       2.46092119       0.00000000       0.00442702       0.01115082       0.00981489
C        0.07058881       8.52930453       3.64980864       0.00000000      -0.00526078      -0.00503887      -0.00481888
C        7.44043034      -0.00638955       3.89312095       0.00000000       0.00276796       0.00266166       0.00516344
C        6.18142721       2.15812892       3.92194714       0.00000000      -0.00904613      -0.00647162      -0.00230505
C        5.01665577       4.40239295       3.97846947       0.00000000       0.00886713       0.01519868       0.00435396
O        3.83176130       6.48006425       4.06753797       0.00000000       0.00220947      -0.00140834       0.00289156
C        2.54085805       8.51261235       3.79785015       0.00000000      -0.00474401      -0.01082395       0.01198702
C        9.90216511      -0.01248845       3.92194250       0.00000000      -0.00235595      -0.00537172      -0.00452834
C        8.65539433       2.13350977       3.91640055       0.00000000       0.00511933       0.00396119       0.00268215
C        7.43714715       4.28678881       4.04786966       0.00000000       0.00566094      -0.01370073       0.00801992
C        6.25044689       6.45519723       4.18357591       0.00000000       0.00153033       0.00143504       0.01219593
C        4.98820046       8.54999469       4.06008894       0.00000000      -0.00988875      -0.00118223      -0.00428110
C        0.01865445       1.39653110       3.55306936       0.00000000       0.00331697       0.00825776      -0.01518114
C       -1.26979556       3.52030565       3.50471902       0.00000000      -0.00846080       0.00395911       0.00743560
C       -2.43035888       5.68839957       3.81081934       0.00000000      -0.00519938      -0.00073117      -0.00892954
C       -3.63419932       7.82931155       3.99192450       0.00000000       0.00628097       0.00965960      -0.00242094
C       -4.89463686       9.95817571       3.89696703       0.00000000       0.00337289      -0.00490476       0.00142127
C        2.47979525       1.36188324       3.56932853       0.00000000       0.00439492      -0.00332084      -0.00424014
S        1.27635220       3.49037178       2.25707947       0.00000000       0.00170897       0.00007850       0.00144295
C       -0.11140579       5.67957857       3.09556836       0.00000000       0.00664242      -0.00471947      -0.00533832
C       -1.17396343       7.82319417       3.67965658       0.00000000      -0.00500065      -0.00466919      -0.00043987
C       -2.41311199       9.95422753       3.85378519       0.00000000      -0.00232457       0.00448700      -0.00866952
C        4.95310758       1.43016717       3.83527601       0.00000000      -0.01062463      -0.00749727      -0.00168125
P        3.44976391       3.78121203       3.56096379       0.00000000       0.00520409      -0.00069479       0.00493846
C        1.31179195       7.86462635       3.45485461       0.00000000      -0.00054676       0.00724435      -0.01075085
C        0.04872958       9.96260567       3.82363059       0.00000000       0.00263993      -0.00529416       0.00012934
C        7.41821947       1.43027327       3.93491605       0.00000000       0.00126360       0.00692073       0.00426578
C        6.19150833       3.59548798       3.99266386       0.00000000      -0.00014747      -0.00143822      -0.00433083
C        5.04147284       5.79423405       4.08936518       0.00000000       0.00234719       0.01068737       0.00165633
C        3.79329616       7.85027500       3.95530512       0.00000000      -0.00844750      -0.00896665       0.00112651
C        2.51051614       9.94817893       3.90944302       0.00000000      -0.00172028      -0.00757968      -0.00243402
C        9.89351616       1.41598411       3.83814503       0.00000000      -0.00219257      -0.00172251       0.00534384
C        8.65704876       3.55664883       3.94182559       0.00000000       0.00837587      -0.00277024      -0.00130261
C        7.46408454       5.70730847       4.11335769       0.00000000       0.00152563      -0.00887648       0.00563820
C        6.23781420       7.86024843       4.13398645       0.00000000      -0.00372845       0.00163934       0.01003961
C        4.97153793       9.97151980       3.95509196       0.00000000       0.00284433       0.00149887      -0.00991167
Co       1.54139566       4.85157653       3.91950032       0.00000000       0.01057274      -0.00612466      -0.00688797
O        1.84640299       5.50188198       5.62208766       1.00000000       0.00250591      -0.01041078       0.00014273
O        2.56470308       4.32974262       5.44721356       1.00000000      -0.01098542       0.01662783       0.00110495
