52
Lattice="12.336457 0.0 0.0 -6.168228499999997 10.683685154694365 0.0 0.0 0.0 15.0" Properties=species:S:1:pos:R:3:forces:R:3 energy=-438.8639651152162 free_energy=-438.8639651152162 stress="-0.0020318643511103413 -0.0032534166514370973 1.3791195668848004e-05 -0.0032534166514370973 -0.0015266386516067404 2.0435198072134662e-05 1.3791195668848004e-05 2.0435198072134662e-05 2.7171643125918603e-05" pbc="T T T"
C        0.06403422       0.06370930       3.93201534      -0.00257322       0.00328060      -0.00084029
C       -1.19988207       2.18049609       3.71058176      -0.00267671       0.00666608      -0.00438242
C       -2.43694955       4.32853819       3.84547982       0.00519413       0.00487041       0.01084897
C       -3.62321104       6.47680804       4.06953338       0.00539434       0.00726536       0.00371044
C       -4.84916115       8.61930662       4.12017483       0.00394486       0.00176209       0.00520252
C        2.53409889       0.04325046       3.80750703       0.00655955      -0.00235956      -0.00613425
C        1.25445675       2.09144221       3.28101898      -0.00073840      -0.00707109       0.00231131
C       -0.14387480       4.31173805       3.07422816       0.00248258      -0.00650172       0.00311636
C       -1.20891624       6.47454590       3.57252003      -0.00624448       0.00058023      -0.00161811
C       -2.37514979       8.60076429       3.89258821       0.00627054      -0.00452212       0.00331370
C        5.00478792       0.06251724       3.83784754      -0.00570614      -0.00654737      -0.00810319
C        3.74388426       2.15410545       3.50828271       0.00433157       0.00550952       0.01058074
S        1.42212825       6.43310884       2.69441865       0.00146303      -0.00385971       0.00039281
C        0.09275829       8.59294312       3.71456320       0.00068049       0.00043104      -0.00274357
C        7.46583086       0.05830821       3.96665035      -0.00298759      -0.00061783       0.00003384
C        6.20920003       2.22404205       3.91847904      -0.00021049       0.00200952      -0.00071207
C        5.02515635       4.45179856       3.96817606      -0.00525004       0.00293562      -0.00710491
O        3.86011244       6.54784649       4.17236778       0.00510238      -0.00002754       0.00072792
C        2.56614050       8.58107383       3.92473041      -0.00161359      -0.00341156      -0.00662231
C        9.93013098       0.05636967       4.03632035      -0.00588622       0.00474826       0.00506581
C        8.67982038       2.19919575       4.00495901       0.00817477       0.00015219      -0.00014898
C        7.45707333       4.35024974       4.12713456       0.00100487       0.00063094       0.00442910
C        6.26737109       6.51411116       4.29381923       0.00026394      -0.00366419      -0.00221356
C        5.01663010       8.61977546       4.17485773      -0.00843844       0.00130353      -0.00373545
C        0.03925636       1.46826120       3.65011317      -0.00623507       0.00040032      -0.00758982
C       -1.25046375       3.58898694       3.56416247       0.00106451       0.00276450       0.00608411
C       -2.41928238       5.75603436       3.84874514      -0.00255197       0.00514978      -0.00143888
C       -3.61236698       7.90045441       4.04258615       0.00720090       0.00306287       0.00432372
C       -4.86230148      10.03638182       3.96554944       0.00424414       0.00363834       0.00218591
C        2.51785683       1.44621179       3.51899173       0.00402483       0.00053550      -0.00299994
S        1.13192435       3.46446030       2.16715823       0.00142508       0.01311681       0.00429670
C       -0.10804726       5.73612559       3.11314084      -0.01063116      -0.00756334       0.00156261
C       -1.15269439       7.89025659       3.71157075       0.00310809       0.00015415       0.00240283
C       -2.38899529      10.02834608       3.85935786       0.00024203      -0.00889295       0.00787491
C        4.98618437       1.49966411       3.76535610      -0.00057410      -0.00173284       0.00447803
P        3.66555137       3.85145153       3.03309757       0.00859857      -0.00746353      -0.00547571
C        1.34118285       7.93077439       3.57277862       0.00049657      -0.00345035       0.00029924
C        0.07347768      10.02953378       3.87097199      -0.00486079      -0.00069762      -0.00484323
C        7.44346911       1.49530811       3.99303381       0.00444096       0.00105039       0.00086373
C        6.21399041       3.65908158       4.02274052      -0.00732110       0.00348181       0.01058252
C        5.05496743       5.84447509       4.17226516      -0.00211239      -0.00199982       0.00508806
C        3.82175185       7.91780849       4.07682562      -0.00371381      -0.00509481       0.00297593
C        2.53674839      10.01556197       4.01916933      -0.00354074      -0.00129125      -0.00619791
C        9.91987864       1.48460088       3.94452749       0.00498899       0.00367779       0.00327411
C        8.67829276       3.62302035       4.02403504       0.00542126       0.00085583      -0.00396353
C        7.48326044       5.77106551       4.20143322       0.00648277       0.00259304      -0.00425043
C        6.26457411       7.92524818       4.23974592      -0.00342349      -0.00033645      -0.00068646
C        5.00055430      10.04362194       4.07013264      -0.00669031       0.00604071      -0.00664133
Co       1.80286014       4.57042655       4.14866114       0.00566463       0.00537454       0.00062081
O        2.44448359       4.72748979       5.81982617      -0.00914108      -0.00327375      -0.00872333
O        2.23534671       3.45457523       6.51311651      -0.01583488      -0.00818649      -0.00487239
H        1.63709159       3.77311775       7.22145726       0.01068585      -0.00547590      -0.00460466
