51
Lattice="12.336457 0.0 0.0 -6.168228499999997 10.683685154694365 0.0 0.0 0.0 15.0" Properties=species:S:1:pos:R:3:initial_magmoms:R:1:forces:R:3 energy=-435.9772075738304 free_energy=-435.9772075738304 stress="-0.00457729751285217 0.0017930446633010293 1.852919316283157e-06 0.0017930446633010293 -0.003035013668868512 1.7337782932137308e-05 1.852919316283157e-06 1.7337782932137308e-05 -2.5607790497653466e-06" pbc="T T T"
C        0.00748439      -0.02030792       3.69245539       0.00000000       0.00197927       0.00472622      -0.00848510
C       -1.21175431       2.13320922       3.59631663       0.00000000      -0.00361642      -0.00187715      -0.00451219
C       -2.44180643       4.26685412       3.76789014       0.00000000       0.00140509      -0.00328658      -0.00632017
C       -3.68987043       6.39973506       3.88681314       0.00000000       0.00737451      -0.00514694       0.00089424
C       -4.93460370       8.52827826       3.78647912       0.00000000       0.00272215      -0.00209031       0.00624663
C        2.47116492      -0.02679066       3.91747334       0.00000000       0.00239614      -0.00147447      -0.00090707
C        1.28239829       2.07429562       3.53856323       0.00000000      -0.00339006       0.00504750      -0.00091294
C       -0.04696077       4.34912506       3.27804540       0.00000000      -0.01504118      -0.00176969      -0.00273557
C       -1.26361737       6.43643946       3.67945244       0.00000000      -0.00301245       0.00208716       0.00508601
C       -2.46401792       8.53995115       3.90503059       0.00000000       0.00506102      -0.00322801      -0.00772726
C        4.95306947      -0.01491338       4.04841662       0.00000000       0.00008863      -0.00062043      -0.00907875
C        3.69868140       2.06657813       4.28351735       0.00000000      -0.00416005      -0.00151605      -0.00481802
O        1.09673308       6.47856176       3.37118286       0.00000000      -0.00787572      -0.00281858       0.00257537
C       -0.00317635       8.54185777       3.78046734       0.00000000       0.00189737      -0.00046961       0.00092376
C        7.42493139      -0.02783301       3.90461687       0.00000000       0.00143903      -0.00195962       0.00429650
C        6.20827340       2.10672671       4.20255282       0.00000000      -0.00070155       0.00203465       0.00444695
C        5.03577855       4.30004659       4.27202111       0.00000000      -0.00503369      -0.00430056      -0.00004244
P        3.79634692       6.21007860       2.60508966       0.00000000       0.00951660      -0.00076402      -0.00880697
C        2.45183405       8.50814431       3.53740891       0.00000000       0.00042539       0.00782356       0.00089667
C        9.87882599      -0.02053439       3.70374401       0.00000000       0.00483686       0.00656584      -0.00293703
C        8.66883196       2.11578785       3.90426559       0.00000000      -0.00117180       0.00349174      -0.00264887
C        7.45193757       4.25079765       4.03694453       0.00000000       0.00359247       0.00421033       0.00278586
C        6.21101450       6.39421353       3.78853970       0.00000000      -0.00520580      -0.00435741      -0.00598730
C        4.93382167       8.51924770       3.54791956       0.00000000      -0.00078142       0.00370766       0.00457635
C        0.02164763       1.41036847       3.59116077       0.00000000      -0.00294912       0.00622626       0.00644740
C       -1.21850237       3.56708180       3.54599413       0.00000000      -0.00783818      -0.00620461      -0.00997284
C       -2.46682178       5.68928615       3.80444342       0.00000000       0.00506456      -0.00458142      -0.00585728
C       -3.69969571       7.82381244       3.86911688       0.00000000       0.00570317      -0.00416405      -0.00151027
C       -4.93121343       9.95037120       3.78858943       0.00000000      -0.00029782       0.00166291       0.00810697
C        2.47554222       1.38753807       3.92312420       0.00000000      -0.00216440       0.00048097      -0.00552232
P        1.41618348       3.57248698       2.55958668       0.00000000       0.00995986       0.00875071       0.00416426
C       -0.10234697       5.74750155       3.38419526       0.00000000      -0.00943784      -0.00166804       0.00406702
C       -1.24476893       7.84472993       3.80867922       0.00000000       0.00361805      -0.00176599       0.01010378
C       -2.45916097       9.95941655       3.97934958       0.00000000       0.00268201      -0.00386954      -0.00428203
C        4.96339584       1.39830371       4.20541907       0.00000000      -0.00143877      -0.00128107       0.00743763
P        3.57425262       3.63929024       5.04439125       0.00000000      -0.00879091      -0.00051801       0.00283027
C        1.19177858       7.86348218       3.58063403       0.00000000      -0.00048377       0.00085989      -0.00418872
C        0.01609862       9.95994598       3.92917513       0.00000000       0.00063381      -0.00001911      -0.00914700
C        7.43492121       1.39984107       4.02427736       0.00000000      -0.00160082       0.00065115      -0.00392314
C        6.23419905       3.53286943       4.21422276       0.00000000       0.00221841       0.00466756       0.01121913
C        5.01481314       5.63722352       3.78267991       0.00000000      -0.01153974      -0.00141782       0.00394894
C        3.70214308       7.84310800       3.34394278       0.00000000      -0.00172799       0.00528563       0.00636547
C        2.47285105       9.94091141       3.72618888       0.00000000       0.00532450       0.00684083       0.00562659
C        9.89596763       1.41229578       3.74023184       0.00000000       0.00017878       0.00220985       0.00353754
C        8.67597844       3.54177977       3.92241489       0.00000000       0.00274323       0.00275085       0.00348317
C        7.43448169       5.67818265       3.93135750       0.00000000       0.00252056       0.00275395       0.00978861
C        6.17988933       7.81303298       3.66727432       0.00000000      -0.00029786      -0.00225802      -0.00228653
C        4.94250113       9.95337628       3.64830954       0.00000000       0.00412738       0.00412990       0.00285304
Co       2.41202455       5.04230394       3.75284177       0.00000000       0.00462043      -0.01488662      -0.00837070
O        1.44806933       5.12914903       6.09323177       1.00000000       0.00259286      -0.00516502      -0.00320021
O        2.76285430       5.25195587       5.62542768       1.00000000       0.00383523      -0.00348638       0.00147253
