50
Lattice="12.336457 0.0 0.0 -6.168228499999997 10.683685154694365 0.0 0.0 0.0 15.0" Properties=species:S:1:pos:R:3:forces:R:3 energy=-433.1856546744442 free_energy=-433.1856546744442 stress="-0.004756509994049803 0.0020859499421160416 9.172270027299028e-06 0.0020859499421160416 -0.0032112956803568666 1.3672102385417534e-05 9.172270027299028e-06 1.3672102385417534e-05 -3.5304197421369173e-06" pbc="T T T"
C       -0.00847437       0.00642078       3.68087569       0.00365372       0.00723983      -0.00711102
C       -1.22484637       2.15941775       3.56233123      -0.00239133      -0.00000749       0.00648184
C       -2.45628328       4.29215490       3.70139064       0.00415036      -0.00208695      -0.00129165
C       -3.70565650       6.42446887       3.82019293       0.00315446      -0.00121936      -0.00029536
C       -4.95051287       8.55341547       3.75845785       0.00480818       0.00154663       0.00033296
C        2.45481720      -0.00338622       3.89968774      -0.00591811      -0.00948398      -0.00184059
C        1.26744758       2.10794858       3.56088271       0.00281542       0.00500426      -0.00485048
C       -0.04005717       4.36931039       3.31075417       0.00392759       0.00445329      -0.00245002
C       -1.27823429       6.46134987       3.62155453      -0.00540029       0.00541717       0.00215672
C       -2.48103623       8.56502257       3.82938533       0.00099255       0.00480791       0.00319976
C        4.93573654       0.00842984       3.99819820      -0.00456210       0.00405875      -0.00236973
C        3.67733399       2.07688016       4.33579014      -0.00871970      -0.01084433      -0.00669842
O        1.09996966       6.48364702       3.51031974       0.00626460      -0.00678816       0.00307148
C       -0.02104580       8.56826465       3.72671648      -0.00161969      -0.00366100      -0.00638643
C        7.40605808       0.00174739       3.85979816      -0.00033562      -0.00106328      -0.00107180
C        6.19200449       2.13443484       4.19658170       0.00074898       0.00417205       0.00314291
C        5.04115878       4.33029100       4.40041563       0.00106031      -0.00316089      -0.00170376
P        3.75443496       6.19204386       2.75424530       0.00690827      -0.00126983      -0.00355024
C        2.43509997       8.53169833       3.55339949      -0.00610984      -0.00130406      -0.00377151
C        9.86184843       0.00604910       3.67733975       0.00701353       0.00104655      -0.00090445
C        8.65038771       2.14251229       3.85158281      -0.00434457       0.00550141       0.00438773
C        7.44056286       4.27714955       4.01064142       0.00251137       0.00224806       0.00294291
C        6.19214339       6.42247815       3.82676287       0.00615461       0.00127089      -0.00033478
C        4.91696702       8.54301536       3.57085253      -0.00648613      -0.00585681      -0.00045862
C        0.00905848       1.43889514       3.58213782      -0.00054959       0.00583533       0.00137191
C       -1.22852026       3.59201275       3.51288986       0.00199178      -0.00339050      -0.00007256
C       -2.48274753       5.71386345       3.72490288       0.00115596      -0.00256806       0.00126272
C       -3.71562331       7.84850006       3.80723466       0.00491040       0.00057061      -0.00063922
C       -4.94619180       9.97637524       3.76919826      -0.00089445       0.00123365       0.00168327
C        2.46044670       1.41854505       3.95552930      -0.00225496       0.00294046      -0.01111072
P        1.42973107       3.60811324       2.59546504       0.00367802       0.00713095       0.01341105
C       -0.10058932       5.76690473       3.41736550      -0.00374286       0.00135468      -0.00499064
C       -1.26146484       7.87035277       3.73647204      -0.00118522       0.00381292      -0.00120357
C       -2.47564350       9.98385343       3.92440722      -0.00634985       0.00342774       0.00603982
C        4.94157970       1.42199002       4.20274836       0.00121215       0.00636638      -0.00118818
P        3.67737628       3.59034804       5.26448065      -0.00531822      -0.01345025       0.00800826
C        1.17816902       7.88309619       3.58730002       0.00429461      -0.00956887      -0.00088307
C       -0.00231528       9.98801896       3.87016038      -0.00448237      -0.00152493      -0.00585506
C        7.41422570       1.42971555       3.98169563      -0.00153328       0.00211975      -0.00113410
C        6.22964336       3.56039655       4.24199932       0.00225369       0.00057854       0.00742153
C        4.99045064       5.66920574       3.91678670      -0.00198986      -0.00758157      -0.00071773
C        3.68379942       7.85852329       3.40185687      -0.01274723      -0.00827345      -0.00471066
C        2.45463424       9.96917652       3.70295678       0.00405365       0.00243771       0.00145815
C        9.87924967       1.43891865       3.69543826      -0.00464806       0.00193889       0.00512610
C        8.66042800       3.56807608       3.86473658      -0.00000294       0.00496653      -0.00097763
C        7.41988418       5.70435678       3.90803773       0.00253077      -0.00027502      -0.00048186
C        6.16084254       7.83719672       3.67758935      -0.00034081       0.00114684       0.00408259
C        4.92617999       9.97940418       3.64062537       0.00699983      -0.00153650      -0.00374706
Co       2.40710830       4.98615554       3.90935943       0.00292351       0.00293553       0.00504836
O        2.42108095       4.43424501       5.70301057       0.00175872      -0.00064800       0.00217086
