49
Lattice="12.336457 0.0 0.0 -6.168228499999997 10.683685154694365 0.0 0.0 0.0 15.0" Properties=species:S:1:pos:R:3:forces:R:3 energy=-424.48432561275416 free_energy=-424.48432561275416 stress="-0.00482135157734023 0.0012538579661903568 -2.8429688986962913e-06 0.0012538579661903568 -0.003063763157229257 1.3553492936791158e-05 -2.8429688986962913e-06 1.3553492936791158e-05 -2.222587962830765e-06" pbc="T T T"
C       -0.00346912      -0.00851298       3.66020603      -0.00480159      -0.00383696      -0.00318439
C       -1.22354837       2.14659959       3.59288515      -0.00207847       0.00235217       0.00057490
C       -2.45313345       4.28093204       3.79620803       0.00750365      -0.00100690       0.00411688
C       -3.69769448       6.41360244       3.88329808       0.00493209       0.00474998      -0.00186148
C       -4.94380505       8.53993559       3.75542938      -0.00127541      -0.00559018      -0.00369777
C        2.46105017      -0.01480756       3.81976954       0.00406142      -0.00282736      -0.00536080
C        1.25990921       2.09288228       3.46704952       0.00191153      -0.00150478      -0.00030560
C       -0.05716237       4.35445827       3.37998056       0.00203584       0.00312719      -0.00205448
C       -1.26439502       6.44294021       3.75399655      -0.00291333      -0.00371926      -0.00069625
C       -2.47386096       8.55112249       3.84929795       0.00474192       0.00602031      -0.00394266
C        4.93553539      -0.00021408       3.93381841       0.00322231       0.00436644       0.01176972
C        3.68058459       2.08471742       4.16698041       0.00076471       0.00609752      -0.00829467
O        1.11492737       6.46240181       3.47270539       0.00383468      -0.00752412       0.00010596
C       -0.01164040       8.54951381       3.73423862      -0.00470105      -0.00104362      -0.00505764
C        7.40659976      -0.01110190       3.83763233       0.00169548       0.00156740       0.00408286
C        6.18508779       2.12728941       4.13541875      -0.00924412      -0.00379893       0.00037122
C        5.03078489       4.31099351       4.28092794      -0.00700714      -0.00630458       0.00970847
P        3.76487803       6.20523410       2.66216372      -0.00795545       0.00425958       0.00101618
C        2.44127308       8.51903416       3.52712133      -0.00071785       0.00027380       0.00241236
C        9.86495559      -0.00836469       3.67862080       0.00139215       0.00024485       0.00420777
C        8.65064777       2.13193434       3.87866668      -0.00120264       0.00186190      -0.00645824
C        7.43921155       4.26868797       4.02869491      -0.00182573       0.00133679      -0.00493939
C        6.20309513       6.41060116       3.80205054       0.00234970       0.00169362       0.00103079
C        4.92411555       8.53003566       3.55054968       0.00052572       0.00107572       0.00204238
C        0.00780389       1.42704838       3.56270650      -0.00395069      -0.00113375      -0.00234020
C       -1.22901427       3.57623570       3.59187020       0.00475802       0.00127039       0.00303508
C       -2.47220267       5.70112326       3.83400252       0.00082629      -0.00297576      -0.00033233
C       -3.70862765       7.83616519       3.83838013       0.00621654       0.00369454      -0.00335306
C       -4.94104177       9.96380606       3.73306025      -0.00122293      -0.00704417      -0.00581061
C        2.46813293       1.41800948       3.81558908       0.00276226      -0.00023157      -0.00124075
S        1.32327617       3.58858324       2.56483547      -0.00200525       0.00873940      -0.00395610
C       -0.08506701       5.74356745       3.53973367      -0.00081290       0.00083573      -0.00195146
C       -1.25147844       7.85541404       3.79565003      -0.00351705      -0.00352640       0.00074758
C       -2.47054104       9.97422547       3.87791833       0.00745362       0.00551630      -0.00020455
C        4.93663931       1.42597944       4.09702494      -0.00503049      -0.00025042       0.00360009
S        3.58924905       3.61442787       4.98775451       0.00255883      -0.00896969      -0.00273860
C        1.18891258       7.86410105       3.57255703      -0.00172718      -0.00163304      -0.00262962
C        0.00134842       9.97373478       3.84035853       0.00042823       0.00191397       0.00522319
C        7.40992435       1.41956619       3.96436481      -0.00343983       0.00059584       0.00121191
C        6.21461611       3.54735894       4.19348925      -0.00545343      -0.00661192      -0.00096166
C        5.00055057       5.64735762       3.82077576       0.00624304      -0.00207839       0.00750128
C        3.69056595       7.85046157       3.36445592       0.00355642       0.00445574      -0.00273891
C        2.45764488       9.95588907       3.69121621       0.00297945       0.00042177       0.00467750
C        9.88334049       1.42702513       3.72273311      -0.00009051       0.00154313       0.00148230
C        8.66016941       3.55536914       3.91862622       0.00427317       0.00305621       0.00097768
C        7.42474627       5.69343015       3.93140394       0.00283588       0.00588738       0.00015021
C        6.16835763       7.82519513       3.66495467      -0.00380005      -0.00006472       0.00139436
C        4.92882022       9.96459114       3.63235438      -0.00299779      -0.00125276       0.00374903
Co       2.44732130       4.94996860       3.75119382      -0.00609208      -0.00402843      -0.00107847
