50
Lattice="12.336457 0.0 0.0 -6.168228499999997 10.683685154694365 0.0 0.0 0.0 15.0" Properties=species:S:1:pos:R:3:forces:R:3 energy=-448.59937270383534 free_energy=-448.59937270383534 stress="-0.0047001234480579844 -0.0004090086821183066 -1.0559990816151523e-05 -0.0004090086821183066 0.002730760967920385 6.826723644691517e-06 -1.0559990816151523e-05 6.826723644691517e-06 3.106147640909866e-06" pbc="T T T"
C        0.00183665       0.00672928       3.72333134      -0.00458406       0.00686351       0.00074184
C       -1.24702722       2.11672405       3.66855172       0.00563428       0.00397636       0.00401871
C       -2.48194786       4.26684785       3.60299820       0.00620270      -0.00105803       0.00861131
C       -3.70520037       6.42001509       3.61068841       0.00894419      -0.01449182       0.00628497
C       -4.92891740       8.56806728       3.68234796       0.00145246      -0.00502251      -0.00586496
C        2.46886447       0.05631741       3.74564153      -0.00781864       0.00512617       0.00491151
C        1.21285046       2.19193252       3.81805818       0.00479886      -0.00319852      -0.00285606
C       -0.04835775       4.21934771       3.77459469      -0.01049831       0.00138275       0.00705859
C       -1.25820769       6.40959226       3.71087399       0.00220021       0.00836838       0.00283221
C       -2.47047438       8.56797246       3.69000759       0.00312378       0.00199486       0.00801555
C        4.92784496       0.02341354       3.71638196      -0.00491008      -0.00117978       0.01169422
C        3.71884783       2.20032458       3.80256442       0.00810292       0.00307929       0.00650506
B        1.15375734       6.41633590       4.03990843      -0.00048917      -0.00634598      -0.01374094
C       -0.01299913       8.55758934       3.78229879       0.00486415      -0.00574424       0.00297313
C        7.40801946      -0.01713537       3.70726767      -0.00539620      -0.00320626       0.00340999
C        6.17639549       2.13067485       3.66711535      -0.00658050       0.00332394      -0.01016083
C        4.97232261       4.26074700       3.73916411      -0.00163422      -0.00210242      -0.01052748
N        3.75905836       6.37103158       3.86896481       0.00414145       0.00348381       0.00127164
C        2.49054379       8.51424767       3.82980601      -0.00163915       0.00575491      -0.00571973
C        9.87087890      -0.02454872       3.70256935       0.00928529       0.00269382       0.00375733
C        8.63568129       2.12259579       3.62468248      -0.00101995      -0.00033063      -0.00793924
C        7.40901966       4.27460708       3.59753812      -0.00136767       0.00260402      -0.00141855
C        6.17934242       6.42013784       3.66412866      -0.00814317       0.00011975      -0.01217662
C        4.93753411       8.51873154       3.74500094      -0.00603852       0.00026553      -0.00188599
C       -0.00223407       1.43516586       3.73067627       0.00359572       0.00490482       0.00219340
C       -1.26451644       3.52975274       3.65322914      -0.00018757       0.00006995      -0.00449853
C       -2.48553016       5.69830725       3.61954553       0.01212097      -0.00508518       0.00926838
C       -3.70036853       7.85096803       3.65301636       0.00793368      -0.01126636       0.00684915
C       -4.92686387      10.00003665       3.72302181      -0.00840100       0.00240217      -0.01164552
C        2.46925224       1.49416206       3.80777271       0.00826326       0.00478671      -0.00426103
N        1.14703225       3.56258057       3.89810802      -0.01561300      -0.00664432      -0.00818589
C       -0.06427677       5.64787151       3.82153620      -0.00733390       0.00427917       0.00165495
C       -1.24100949       7.84117001       3.73045745       0.00416730       0.00520135      -0.00638576
C       -2.47289994      10.00274961       3.71805912      -0.00742239       0.00452196       0.00609437
C        4.93272475       1.45083484       3.72071560      -0.00108521       0.00061533       0.00092573
N        3.78977336       3.57573192       3.85844755       0.00550855      -0.00088449      -0.00645930
C        1.23425525       7.86379293       3.88192932       0.00396027      -0.00333406       0.00662551
C       -0.00673246       9.98088186       3.72699945      -0.00482132      -0.00766268       0.01196690
C        7.40517272       1.40941251       3.65645225      -0.00751496      -0.00106351      -0.00616004
C        6.18604444       3.55343182       3.64577421      -0.00320117       0.00233613      -0.00795776
C        4.95671631       5.70837678       3.74534934      -0.00288026      -0.00236783       0.00230349
C        3.72090576       7.75949216       3.82632622      -0.00388916       0.00274828       0.00258750
C        2.47902714       9.94177564       3.73928960       0.00385962       0.00693899       0.00687333
C        9.86365530       1.40221898       3.65413486       0.00669211       0.00239488      -0.00846952
C        8.63164675       3.55127107       3.59057046       0.00243670       0.00314920      -0.00374563
C        7.40455121       5.70109413       3.60735659      -0.00326591       0.00015087      -0.00378703
C        6.17812919       7.84179654       3.69262250      -0.00643452      -0.00031702      -0.00148454
C        4.93481884       9.95060325       3.72168159       0.00285238      -0.00005708       0.01174574
Cr       2.48274685       4.89470012       4.46581357       0.00247820      -0.00942606       0.00762232
O        2.50885706       4.88409071       6.07020944       0.00955095      -0.00274811      -0.00346588
