50
Lattice="12.336457 0.0 0.0 -6.168228499999997 10.683685154694365 0.0 0.0 0.0 15.0" Properties=species:S:1:pos:R:3:forces:R:3 energy=-438.3387947675682 free_energy=-438.3387947675682 stress="-0.0015484206951268703 -0.0010867602273557267 -2.9707710415868014e-06 -0.0010867602273557267 -0.009949036170893022 -1.0186997969504214e-05 -2.9707710415868014e-06 -1.0186997969504214e-05 9.912226372539216e-06" pbc="T T T"
C       -0.01675262      -0.00164833       3.81962399      -0.00299859       0.00060822      -0.00374390
C       -1.24382460       2.16103416       3.78473918      -0.00130542      -0.00280344      -0.00803779
C       -2.48315530       4.29754463       3.76695724      -0.01387183      -0.00030892       0.00568718
C       -3.70816593       6.41665575       3.82407932      -0.00281948       0.00108343      -0.00155988
C       -4.94917757       8.54077024       3.85718451      -0.00222434      -0.00200470       0.00579738
C        2.46231442      -0.04519855       3.77398721      -0.01094471       0.00422804      -0.00096958
C        1.23669890       2.07257078       3.77875120       0.00689004       0.00093255      -0.00858492
C       -0.03374093       4.30776174       3.87365718       0.00788915      -0.00410983      -0.00590948
C       -1.21620730       6.42736595       3.88583834      -0.00387038      -0.00608856       0.00185666
C       -2.46752917       8.53818217       3.84757771       0.00623875       0.00361944      -0.00775390
C        4.92608960       0.00151023       3.68448110       0.00098922       0.00127775      -0.00556788
C        3.65691155       2.05108130       3.39463749      -0.00217151      -0.00825195      -0.01201735
B        1.43545928       6.37455584       4.05839851       0.00620476       0.00401080      -0.01204440
C        0.00220746       8.56229201       3.86500339       0.01300329      -0.00031736       0.00335556
C        7.37778618       0.04839151       3.71098101      -0.00152698       0.00482345      -0.00028385
C        6.13806203       2.16433547       3.49822279      -0.00053658      -0.00020978       0.01249353
C        4.96246388       4.34248152       3.39504406       0.01437413       0.00298804      -0.00217580
B        3.53734755       6.42966779       3.89670771      -0.00182247       0.01105369       0.00362307
C        2.45186212       8.63530545       3.85209010      -0.00687924       0.00561010       0.00970212
C        9.85722747       0.04945680       3.76919192      -0.00695962      -0.01502010      -0.00149563
C        8.61571498       2.17339585       3.67038520      -0.00337660       0.00438351      -0.00084896
C        7.38453170       4.29862157       3.64709207       0.00169491       0.00938700       0.00015088
C        6.14463069       6.43027756       3.79708125       0.00840758       0.00043558       0.00504416
C        4.92129783       8.57815951       3.83520952       0.00203164      -0.00111600       0.00644419
C       -0.01700967       1.42456577       3.80604180       0.00592553       0.00150463      -0.01010213
C       -1.24929790       3.58107398       3.79337201      -0.00661993       0.00170211       0.00293473
C       -2.46757234       5.71521691       3.82425071      -0.01028473      -0.00353876      -0.00148215
C       -3.70748587       7.83420053       3.85625597       0.00209403       0.00091129       0.00237518
C       -4.95164346       9.95529215       3.83541501      -0.00867563      -0.00078271       0.00120205
C        2.45774591       1.36708167       3.66898546       0.00007520       0.00007629       0.00556791
B        1.24470406       3.52675616       3.94521941       0.01114582      -0.00402288      -0.01555575
C        0.02537817       5.71386406       3.93583683       0.00650353      -0.00032624       0.00241752
C       -1.22902507       7.84283749       3.87672924       0.01123708      -0.00281822      -0.00285850
C       -2.46658147       9.95406633       3.77494417      -0.00605374       0.00694220      -0.00981033
C        4.91373611       1.42784246       3.50385336      -0.00188929      -0.00051989       0.00056161
S        3.47617122       3.67277207       2.77478899      -0.00338819      -0.01674456       0.00600104
C        1.25130232       7.88904298       3.92422596       0.00547597      -0.00071660       0.00558070
C       -0.00878971       9.99286184       3.75461747       0.00570011       0.00300083       0.00195470
C        7.37102033       1.46884857       3.61798194      -0.00155430       0.00428731       0.00152005
C        6.15128230       3.58366935       3.48058897       0.01328923       0.00139234       0.01265638
C        4.89763410       5.71452333       3.71770616       0.00082896       0.00119083       0.00920895
C        3.66956402       7.92637723       3.84726391      -0.00408633       0.01581601       0.00720036
C        2.44913165      10.04786910       3.77426198      -0.01085627      -0.00357718       0.00101029
C        9.85424481       1.46580490       3.73923317      -0.00478935      -0.01119977      -0.00839769
C        8.61972423       3.59108573       3.68787175      -0.01077843       0.00611349       0.00604363
C        7.38469634       5.71461927       3.76212918       0.00201423       0.00683809      -0.00749172
C        6.14892666       7.84702036       3.84959972       0.00197094      -0.00510767       0.00331430
C        4.91860618      10.00145928       3.81177660      -0.00041103      -0.00589809       0.00407751
Cr       2.70343587       4.75652449       4.65288793      -0.00697785      -0.01688405       0.00379470
O        3.17244731       4.04071167       6.00818114       0.00368869       0.00815024      -0.00488473
