50
Lattice="12.336457 0.0 0.0 -6.168228499999997 10.683685154694365 0.0 0.0 0.0 15.0" Properties=species:S:1:pos:R:3:forces:R:3 energy=-434.38022405667436 free_energy=-434.38022405667436 stress="-0.005914593577157491 -0.003721742918669698 -8.707716846656246e-06 -0.003721742918669698 -0.002933633154256368 1.0367551381201697e-05 -8.707716846656246e-06 1.0367551381201697e-05 -4.1780158499036705e-06" pbc="T T T"
C        0.02689234       0.01811841       3.80017487      -0.00230687      -0.00610962       0.00461639
C       -1.23694570       2.13430723       3.63547018      -0.00484079      -0.00018560       0.00463767
C       -2.47619909       4.28015609       3.80042424       0.00133926       0.00342539      -0.00308526
C       -3.67026156       6.43154214       3.99113244       0.00448593       0.00428569      -0.00520817
C       -4.88947504       8.57586300       3.99260190      -0.00008088       0.00243920      -0.00255313
C        2.50006004      -0.00386914       3.69301417       0.00186556      -0.00439373       0.00307408
C        1.23609403       2.08020166       3.28200632      -0.00240808      -0.00875157       0.00203641
C       -0.10022956       4.27594264       3.28944512       0.00039318      -0.00012100       0.00033348
C       -1.24245183       6.43227804       3.74024707       0.00371664       0.00785531      -0.00245402
C       -2.42354356       8.56205345       3.87864407      -0.00244439       0.00096545       0.00124050
C        4.96719871       0.01048839       3.74432435       0.00066731      -0.00504317      -0.00601941
C        3.71307129       2.09041957       3.38564223       0.00500897      -0.00378905       0.00455912
B        1.20639658       6.36197765       3.90132379      -0.00295295       0.00801026      -0.00365501
C        0.04970063       8.54340430       3.85569316      -0.00059467       0.00047886      -0.00431932
C        7.42928388       0.00727617       3.84924943       0.00115806      -0.00281780       0.00042728
C        6.17063496       2.17362183       3.75754038       0.00596642       0.00262906      -0.00707028
C        5.01793654       4.40841749       3.75867795       0.00101461      -0.00105501       0.00050566
O        3.83490105       6.49719798       3.77040785      -0.00555537       0.00150553       0.01405079
C        2.53901836       8.53786567       3.91356635      -0.00656950       0.00032856      -0.00317718
C        9.89184072       0.00585473       3.87301459      -0.00175332       0.00327185       0.00242733
C        8.63967049       2.14883645       3.85500829      -0.00321496      -0.00071267       0.00127611
C        7.41683700       4.30237831       3.98082629       0.00911390       0.00165121      -0.00565429
C        6.22730506       6.46657124       4.11137573       0.00155945      -0.00225344       0.00010074
C        4.98512470       8.57308973       4.00937861      -0.00339777      -0.00141784      -0.00387861
C        0.00880779       1.42764250       3.58238764      -0.00517805      -0.00842536      -0.00439020
C       -1.28286482       3.54001576       3.56784621      -0.00256417       0.00053541      -0.00315203
C       -2.46312947       5.71216476       3.84806360       0.00522452       0.00568877      -0.00274978
C       -3.65577039       7.85767055       3.96770566      -0.00020733       0.00335632       0.01053770
C       -4.89999688       9.99160613       3.83990869       0.00054371      -0.00073318      -0.00498498
C        2.48961315       1.39749751       3.42037277       0.00237741      -0.00755064       0.00162167
S        1.06451747       3.48683530       2.22171076      -0.00314782       0.01271615      -0.00816514
C       -0.05103115       5.70231060       3.53308514      -0.00018246       0.00115283      -0.00480357
C       -1.19118824       7.84401741       3.84163526      -0.00067255       0.00717282      -0.00572152
C       -2.42804642       9.98172530       3.78301326      -0.00039189      -0.00378588      -0.00471748
C        4.95119964       1.44854868       3.62706004       0.00521239      -0.00195921       0.00000838
S        3.61793862       3.77757083       2.99858536      -0.00545228      -0.00166530       0.00889631
C        1.30020505       7.83849077       3.89369932      -0.00354722      -0.00165636       0.00081431
C        0.03307786       9.97892364       3.82760471       0.00100270      -0.00296835       0.00131353
C        7.40161408       1.44421443       3.83651977      -0.00000392      -0.00243120      -0.00029572
C        6.17813220       3.60748800       3.85330654       0.00576050       0.00316842       0.00878513
C        5.02723339       5.79925814       3.94323071      -0.00267707      -0.00122670       0.00809986
C        3.78716499       7.86239525       3.93126084      -0.00659151       0.00291413      -0.00728207
C        2.50567381       9.97002687       3.89300073       0.00020164       0.00026863       0.00509693
C        9.87713085       1.43241987       3.80276147      -0.00565826       0.00279490      -0.00596610
C        8.63683695       3.57162975       3.90161230       0.00455365      -0.00160791       0.00109886
C        7.43769374       5.72044840       4.06176729       0.00694250       0.00100549      -0.00171644
C        6.22552526       7.88172192       4.07499246       0.00026093      -0.00002276       0.00343540
C        4.96067822       9.99294479       3.91251494      -0.00366658      -0.00157825      -0.00102449
Cr       1.73887003       4.33692288       4.33857694       0.00568619       0.00327064       0.01450240
O        1.51257306       3.74631732       5.80066020       0.00200522      -0.00862928      -0.00145183
