49
Lattice="12.336457 0.0 0.0 -6.168228499999997 10.683685154694365 0.0 0.0 0.0 15.0" Properties=species:S:1:pos:R:3:forces:R:3 energy=-429.0331504884997 free_energy=-429.0331504884997 stress="-0.005821763599118551 -0.002867878860952827 7.490046527894208e-07 -0.002867878860952827 -0.0031007392999273737 -8.674970871487057e-07 7.490046527894208e-07 -8.674970871487057e-07 -3.8416708739098655e-06" pbc="T T T"
C        0.02666840       0.02682659       3.89475007      -0.00633808       0.00252625       0.00157109
C       -1.23234411       2.13594454       3.73598656       0.00087190       0.00321173      -0.00031597
C       -2.48355273       4.28279308       3.76573528       0.00103029       0.00077912       0.00182832
C       -3.67904733       6.43128849       3.90583487      -0.00339549      -0.00389534      -0.00422783
C       -4.89563916       8.57207240       3.96620934      -0.00024504      -0.00238046      -0.00243286
C        2.50174232      -0.00600596       3.74499035      -0.00609235       0.00375565       0.00486681
C        1.26443758       2.15786896       3.58002454      -0.00191254       0.01808849      -0.00775805
C       -0.09537687       4.26967451       3.31586855      -0.00250706      -0.01052559       0.00365073
C       -1.24207573       6.42978718       3.65762803      -0.00338571       0.00236314      -0.00846390
C       -2.42703760       8.55683200       3.81340289       0.00584592      -0.00317862       0.01467541
C        4.96971885       0.00238671       3.69507262      -0.00211082      -0.00859664       0.00063863
C        3.71214927       2.07735981       3.39868518      -0.00023489      -0.00137258       0.01350854
B        1.18784410       6.37127978       3.88051100       0.00017975      -0.00596197       0.00276535
C        0.04742467       8.53641361       3.78952270       0.00644662       0.00651713      -0.00160862
C        7.42840512       0.00338179       3.80092089       0.01238811      -0.00515317       0.00314483
C        6.17099567       2.16999822       3.69868709       0.00498582       0.00009794      -0.00302960
C        5.00336699       4.40431133       3.69988246      -0.01146714      -0.01080787       0.00855621
O        3.80838591       6.48863199       3.73667441       0.00698479       0.00024227       0.01698211
C        2.53558881       8.53325649       3.87287870      -0.00378067       0.00016604       0.00840762
C        9.88862409       0.00453282       3.88880035       0.00272655       0.00687740      -0.00514086
C        8.63620414       2.14704127       3.82769508       0.00628803      -0.00149093       0.01241423
C        7.40783301       4.30095631       3.89911145       0.00505502      -0.00028884       0.00026624
C        6.21385413       6.46085398       4.02952122      -0.00460393       0.00296026      -0.00855536
C        4.97730110       8.56835954       3.98414487      -0.01665920       0.00371276      -0.00275722
C        0.01352876       1.44585502       3.77251162      -0.00071699       0.00712535      -0.00696598
C       -1.27642066       3.54428082       3.61138927      -0.00461714      -0.00146502      -0.00644066
C       -2.46985896       5.71402529       3.77030872      -0.00434949      -0.00097141      -0.00375839
C       -3.66241382       7.85562175       3.90357082       0.00485333      -0.00429223       0.00753457
C       -4.90188810       9.99077651       3.88732251      -0.00490054       0.00111021      -0.00494822
C        2.49999083       1.39966631       3.55368881      -0.00498802       0.00640629      -0.00457781
S        1.07030356       3.44019122       2.31698271       0.00681342       0.00150510      -0.01004608
C       -0.04586479       5.70801762       3.47280582      -0.00531212      -0.00547817      -0.00993439
C       -1.19270593       7.83996098       3.76222220       0.00726195       0.00388866       0.00080603
C       -2.42638284       9.97505509       3.75291030      -0.00629715      -0.00380318       0.00924256
C        4.95804800       1.43884667       3.58680392       0.00205846      -0.00886315      -0.00882117
S        3.57045531       3.75993531       3.02795232      -0.00062973       0.00504663       0.00178799
C        1.30004931       7.82910580       3.84312751      -0.00102143       0.00208097       0.00627104
C        0.03407297       9.97138770       3.76622848       0.00717055       0.00104526      -0.00045332
C        7.40081654       1.44102414       3.78681575       0.00765395      -0.00287134       0.00173436
C        6.16921907       3.60546865       3.78312486       0.00059049       0.00257805      -0.00066918
C        5.00770241       5.79645373       3.87654900       0.00213595      -0.00822858      -0.00371289
C        3.77811456       7.85556180       3.89083452      -0.00998411      -0.00235424      -0.00106797
C        2.50323720       9.96599414       3.86330534       0.01021882      -0.00228889       0.00418517
C        9.87245761       1.43068437       3.83264874       0.00471497       0.00386090       0.00247269
C        8.63002049       3.57104012       3.85099480       0.00647113      -0.00223573      -0.00281396
C        7.42752593       5.71910106       3.97231795      -0.00269368       0.00019068       0.00134951
C        6.21723172       7.87569363       4.02757558      -0.01108750       0.00688943       0.00143354
C        4.95675812       9.99270467       3.94283707      -0.00754727       0.00143696      -0.01695659
Cr       1.71792545       4.08625128       4.51735243       0.01413226       0.00204128      -0.00463670
