51
Lattice="12.336457 0.0 0.0 -6.168228499999997 10.683685154694365 0.0 0.0 0.0 15.0" Properties=species:S:1:pos:R:3:forces:R:3 energy=-455.55267310602056 free_energy=-455.55267310602056 stress="-0.005139210513194815 -0.0021277024852646284 -2.268287910859975e-06 -0.0021277024852646284 -0.0026818892396545785 -2.2006300030376737e-06 -2.268287910859975e-06 -2.2006300030376737e-06 -5.195692634530575e-06" pbc="T T T"
C       -0.01054355      -0.01022400       3.57665363       0.00177311      -0.00310856      -0.01441126
C       -1.26708944       2.10893410       3.53586349       0.00521138       0.00070105       0.00879789
C       -2.50661282       4.25583993       3.53574152       0.00271604       0.00492055       0.00849379
C       -3.71361841       6.40368284       3.57636612      -0.00160021       0.00266611      -0.01434882
C       -4.93111346       8.54730472       3.59022883      -0.00218233      -0.00199592       0.00244876
C        2.46437210       0.00161451       3.64169840       0.00084371       0.00347031       0.01271064
C        1.20867983       2.11865249       3.68966393      -0.00041344      -0.00135710       0.00903173
C       -0.06532591       4.23407753       3.72272037      -0.00427566      -0.00240203       0.01158198
C       -1.26035473       6.39511003       3.68959747      -0.00144897      -0.00035539       0.00922402
C       -2.46590702       8.54108324       3.64146407       0.00339024      -0.00074965       0.01269479
C        4.92870312      -0.00509584       3.71711981      -0.00516364      -0.00292099      -0.01353543
C        3.68874612       2.14372865       3.81941452       0.00544583      -0.00911021       0.00262644
B        2.39793952       4.25394492       4.21185617       0.00115869       0.00723826      -0.00132055
B        1.18356252       6.35736853       4.21184072       0.00709224      -0.00233128      -0.00140776
C        0.00143152       8.53032883       3.81896804      -0.00516760       0.00904442       0.00318122
C        7.39170866      -0.01370143       3.71131974       0.00674232      -0.00484031      -0.00382079
C        6.15278284       2.13221647       3.71148777      -0.00116946       0.00802128      -0.00385617
C        4.93025688       4.29101755       3.89319724      -0.00913342       0.00145551      -0.00220232
N        3.81212002       6.47267019       4.10894053       0.00192251       0.00156248       0.00046341
C        2.48179363       8.53180902       3.89280039      -0.00330126      -0.00858935      -0.00123304
C        9.85483016      -0.01954229       3.62143897       0.00025699       0.01023394      -0.00194550
C        8.61000000       2.12029947       3.57043755       0.00307997       0.00181988      -0.00102331
C        7.37923117       4.26827807       3.62117494       0.00965190      -0.00495106      -0.00144352
C        6.16913075       6.41954238       3.69519031      -0.00017878      -0.00896069      -0.01137716
C        4.94459774       8.54050017       3.69524592      -0.00825245       0.00444077      -0.01152843
C       -0.02504262       1.40449910       3.57603979       0.00280801      -0.00425330      -0.00060061
C       -1.28688717       3.52877239       3.55339869      -0.00193213      -0.00034563       0.00992266
C       -2.49567596       5.68373474       3.57587866      -0.00246290       0.00449135      -0.00077375
C       -3.70008919       7.83080075       3.59085955       0.00176794       0.00163130       0.00723023
C       -4.93609334       9.97165288       3.59110935       0.00265950      -0.00026736       0.00679827
C        2.45713065       1.42544757       3.72489604       0.00160029      -0.00027946       0.00684666
C        1.15374818       3.52226673       3.82663265      -0.00300233      -0.00202913       0.01074242
C       -0.07230493       5.64571333       3.82692134      -0.00255454      -0.00153430       0.00945299
C       -1.23643726       7.82290293       3.72457218       0.00023339       0.00104032       0.00713489
C       -2.47070973       9.96777123       3.66489728      -0.00345545      -0.00164615       0.01195840
C        4.92398122       1.42041036       3.74881936       0.00313634      -0.00462951      -0.00728151
C        3.71397570       3.56497212       3.98483414      -0.00183207      -0.01095677       0.00114310
C        1.24486939       7.84152357       3.98448730      -0.01020065       0.00383603       0.00087157
C       -0.00736940       9.96172153       3.74847882      -0.00212705       0.00521099      -0.00675844
C        7.38264776       1.41167316       3.65214934       0.00104087       0.00076534       0.00054641
C        6.15280426       3.56318564       3.72827960      -0.00335337       0.01065789      -0.00879793
C        4.95223587       5.73224420       3.89503873      -0.00263650      -0.00152529      -0.00700447
C        3.74092112       7.83021797       3.89483846      -0.00300867      -0.00099932      -0.00685688
C        2.46275036       9.95452550       3.72814964       0.00752693      -0.00874579      -0.00872869
C        9.84085394       1.40077406       3.54915608       0.00364766       0.00975017       0.00901237
C        8.60227821       3.54601366       3.54885245       0.01062731      -0.00167694       0.01001591
C        7.38881225       5.69381798       3.61544146       0.00494440      -0.00793150      -0.01436073
C        6.17573778       7.83734072       3.64873773      -0.00860168      -0.00482463      -0.01201073
C        4.92593520       9.95966156       3.61567027      -0.00455414       0.00805596      -0.01417870
Cr       2.64105090       5.79642132       5.45919720      -0.00154317      -0.00029459      -0.01483910
O        3.03748451       6.02925415       6.99054311       0.00427431       0.00259829       0.01271508
