50
Lattice="12.336457 0.0 0.0 -6.168228499999997 10.683685154694365 0.0 0.0 0.0 15.0" Properties=species:S:1:pos:R:3:forces:R:3 energy=-444.1155012702947 free_energy=-444.1155012702947 stress="-0.007137035976992337 0.0022925127524853523 -5.456863869044277e-06 0.0022925127524853523 -0.0059962915099767795 8.113290122852747e-06 -5.456863869044277e-06 8.113290122852747e-06 2.4117800740483684e-06" pbc="T T T"
C        0.00966642       0.00742940       3.72407376      -0.00283295      -0.00536862       0.00528470
C       -1.21982359       2.14668119       3.55081132       0.00012782       0.00236819       0.00126821
C       -2.46652057       4.28871075       3.66443170      -0.00246790       0.00145354       0.00079946
C       -3.70498900       6.41960601       3.82056461       0.00415050      -0.00928890       0.00042263
C       -4.93535361       8.55330338       3.86652825       0.00365367      -0.00005929       0.00114170
C        2.47551812      -0.00287024       3.77772717      -0.00223488       0.00260343       0.00366462
C        1.26396065       2.07189936       3.37886800       0.00152172       0.00434510       0.00049785
C       -0.05697875       4.33997866       3.38750618       0.00076573      -0.00447278       0.00133757
C       -1.26653809       6.45007050       3.72441559       0.00631142      -0.00076131      -0.00311309
C       -2.47310648       8.56379141       3.86272872      -0.00606721       0.00156983      -0.00740464
C        4.94852163       0.00619416       3.83658496      -0.00448288       0.00190207      -0.00193138
C        3.72640145       2.14431469       3.70004979      -0.00172357      -0.00210916       0.01057890
C        1.19626284       6.43169771       3.74322621      -0.00242540       0.00387627      -0.00427184
C       -0.00189253       8.55854650       3.85420646      -0.00079298      -0.00450684      -0.00279906
C        7.41668279       0.00755498       3.83214293      -0.00514700       0.00218818       0.00072586
C        6.19754006       2.12835243       3.79207168      -0.00270766       0.00517469       0.00182780
C        4.97050726       4.24730555       3.82043053       0.00184642      -0.00055201       0.00189582
B        3.66422640       6.38726876       4.03990605       0.00600512       0.00050559       0.00310371
C        2.46766794       8.57122065       3.90793649       0.00641858      -0.00369994       0.00327776
C        9.88426140       0.01503229       3.78721486      -0.00347980      -0.00470316      -0.00701106
C        8.65603946       2.14319676       3.73324281       0.00562984      -0.00197085       0.00255126
C        7.42291201       4.27477263       3.79209196       0.00102808      -0.00079145      -0.00007026
C        6.17672820       6.41242763       3.90034002      -0.00556137       0.00799377       0.00605073
C        4.94458025       8.56102837       3.90862917      -0.00322706       0.00080162      -0.00314891
C        0.01183203       1.42445764       3.53564407       0.00108095      -0.00216096       0.00311329
C       -1.23972439       3.57520600       3.51265351      -0.00532086       0.00324656       0.00260529
C       -2.47750121       5.71432767       3.73388221       0.00806760      -0.00197067       0.00028501
C       -3.70330736       7.84532489       3.86016089       0.00041731      -0.00792903      -0.00081903
C       -4.93009859       9.97577658       3.79773499       0.00139593      -0.00115977      -0.00290982
C        2.48742994       1.40610589       3.62909710      -0.00186311       0.00069128       0.00498040
P        1.40835055       3.68122875       2.65160682       0.00083937       0.01450585      -0.00974692
C       -0.03231530       5.76234565       3.59278509       0.00391985      -0.00339081      -0.00175286
C       -1.24354840       7.85966052       3.83028506      -0.00424014       0.00020360      -0.00846064
C       -2.46068645       9.97955424       3.84719787      -0.00490453       0.00374435       0.00030374
C        4.96007849       1.42337062       3.78892786      -0.00247417       0.00233828      -0.00147965
C        3.75795410       3.54409614       3.71748739       0.00845929      -0.00457305      -0.00751655
C        1.23862305       7.83113035       3.85276919       0.00509875      -0.00054786       0.00754911
C        0.01095793       9.97602369       3.85616352      -0.00535419      -0.00308976      -0.00221348
C        7.42853741       1.42472545       3.79045770      -0.00101153       0.00540200       0.00264877
C        6.20826323       3.54474387       3.79225758       0.00080855       0.00277779       0.00196298
C        4.97461443       5.67284243       3.92787884      -0.00243094       0.00149982      -0.00058175
C        3.69875576       7.87998681       3.96363492       0.00408925      -0.00614892      -0.00814253
C        2.47913941       9.99010003       3.84974052      -0.00361882      -0.00232672       0.00348947
C        9.89128202       1.43737075       3.68986921       0.00455360      -0.00376029      -0.00191604
C        8.65362947       3.56915387       3.73032128       0.00101838      -0.00241061      -0.00157910
C        7.41293995       5.70061250       3.83682343      -0.00314367       0.00021420       0.00276536
C        6.17050980       7.84013300       3.90190685      -0.00167460       0.00929924       0.00824825
C        4.94820025       9.98706901       3.81373621      -0.00578431      -0.00429752      -0.00251473
Cr       2.32375480       4.86731545       4.34943715       0.00162932       0.00475152       0.00461641
O        1.92411868       4.41182288       5.83341614       0.00613448      -0.00140646      -0.00761332
