50
Lattice="12.336457 0.0 0.0 -6.168228499999997 10.683685154694365 0.0 0.0 0.0 15.0" Properties=species:S:1:pos:R:3:forces:R:3 energy=-435.6148603442249 free_energy=-435.6148603442249 stress="-0.00444939361446146 -1.0452489044114917e-06 -2.0718675952897757e-07 -1.0452489044114917e-06 -0.007830896122143844 -8.175657752326206e-09 -2.0718675952897757e-07 -8.175657752326206e-09 -1.3459173786111152e-05" pbc="T T T"
C       -0.02343282      -0.01347896       3.91181433      -0.00300940      -0.00201481      -0.00432697
C       -1.25396442       2.13535526       3.96013123       0.01233761      -0.00246986       0.00158674
C       -2.49866694       4.27218861       3.88257748      -0.00460564      -0.00256501      -0.00000933
C       -3.72105340       6.40472358       3.79118168      -0.00674158      -0.00559849      -0.01001640
C       -4.96775288       8.52844017       3.78647000      -0.00307508       0.00373291       0.00398088
C        2.44895266      -0.04259549       3.90203298      -0.00521043       0.01067951       0.00125889
C        1.23122237       2.09440102       3.95638470       0.00385390       0.00248017       0.01160127
C       -0.05573667       4.27995364       4.00259209       0.01013633      -0.00235724       0.00326613
C       -1.26555044       6.41433879       3.95553430       0.00427321       0.00193331       0.00435545
C       -2.48875368       8.53163252       3.91539805      -0.00043561      -0.00725834      -0.00122813
C        4.91301316      -0.00734821       3.84006826      -0.00881445       0.00040420      -0.00756476
C        3.65552375       2.04562056       3.51227803      -0.00306382      -0.00148608      -0.00847558
B        1.27356324       6.39333229       4.08997748      -0.00481929       0.00362252       0.00173890
C       -0.01775606       8.54718478       3.97175250       0.01065353       0.00806489       0.00279930
C        7.37292013       0.01918183       3.88971429      -0.00110297      -0.00689056      -0.00031027
C        6.14370396       2.13083596       3.59988741       0.00232054       0.00771871       0.00246973
C        5.03380545       4.28668245       3.08530355       0.00567885       0.00258068       0.00222575
S        3.47937375       6.39813930       2.69094313       0.00093582       0.00315982       0.00450536
C        2.45085875       8.58780224       3.83585249      -0.00256320      -0.00775567       0.00016240
C        9.85248504       0.01537813       3.89460271      -0.00875604       0.00230403      -0.00286829
C        8.61275511       2.14249826       3.83624253      -0.00638158       0.00568010      -0.00459989
C        7.39463595       4.27119549       3.61555782       0.00144228       0.00560526      -0.00739250
C        6.17824879       6.42549430       3.42386188       0.00955615      -0.01032628       0.00539686
C        4.90924197       8.55244661       3.63989161      -0.00223521      -0.00576530      -0.00502414
C       -0.01772285       1.41918986       3.97192461       0.00974919      -0.00587875       0.00291932
C       -1.26560859       3.55208851       3.95559284       0.00526528      -0.00153708       0.00459342
C       -2.49865485       5.69440037       3.88255884      -0.00476734      -0.00044652       0.00000450
C       -3.72372683       7.82399065       3.83628008      -0.00543160      -0.00579353      -0.00489030
C       -4.96348375       9.94724886       3.88982636      -0.00165043       0.00795776      -0.00041264
C        2.45080710       1.37866908       3.83595899      -0.00144761       0.00780382      -0.00018270
B        1.27362442       3.57322238       4.09005659      -0.00580084      -0.00546355       0.00186857
C       -0.05569130       5.68644078       4.00257184       0.00918648       0.00296252       0.00311970
C       -1.25397734       7.83103201       3.95992991       0.01309603       0.00409409       0.00206171
C       -2.48386396       9.95111882       3.89445536      -0.01053709      -0.00276172      -0.00248546
C        4.90923389       1.41413971       3.63981265      -0.00234145       0.00351341      -0.00456848
S        3.47935742       3.56834588       2.69102622       0.00011325      -0.00238462       0.00358533
C        1.23125061       7.87209378       3.95620883       0.00328131      -0.00317173       0.01170656
C       -0.02345162       9.97987127       3.91172128      -0.00283375       0.00389377      -0.00488739
C        7.36870753       1.43803585       3.78635081      -0.00346398      -0.00361249       0.00434263
C        6.17817136       3.54102484       3.42386377       0.01104057       0.01024638       0.00506780
C        5.03382637       5.67986309       3.08545290       0.00474356      -0.00289352       0.00111927
C        3.65560544       7.92086218       3.51230866      -0.00426954       0.00140188      -0.00904710
C        2.44889173      10.00904140       3.90199586      -0.00453591      -0.01009503       0.00129426
C        9.84768908       1.43482901       3.91554196      -0.00075218       0.00764373      -0.00136500
C        8.61543564       3.56178098       3.79117751      -0.00773006       0.00510414      -0.00998181
C        7.39466423       5.69520862       3.61553310       0.00091566      -0.00337760      -0.00709204
C        6.14371618       7.83571388       3.59992290       0.00237769      -0.00894686       0.00268591
C        4.91293340       9.97390628       3.84018410      -0.00715086      -0.00212008      -0.00749096
Cr       2.79684104       4.98327079       4.40857359      -0.00358683       0.00042601       0.00090601
O        3.63352017       4.98336235       5.76531945       0.00615653      -0.00004289       0.01359747
