52
Lattice="12.336457 0.0 0.0 -6.168228499999997 10.683685154694365 0.0 0.0 0.0 15.0" Properties=species:S:1:pos:R:3:forces:R:3 energy=-444.1484804349146 free_energy=-444.1484804349146 stress="-0.004950678533260339 0.0023593748602162034 -3.427942913191199e-05 0.0023593748602162034 -0.010019001444445726 1.6254511296836152e-05 -3.427942913191199e-05 1.6254511296836152e-05 -1.8667332989061874e-05" pbc="T T T"
C       -0.04469311      -0.06033058       3.76915155      -0.00613334       0.00234358       0.00529005
C       -1.25988430       2.09590812       3.64476648       0.00053863       0.00529340      -0.00457177
C       -2.51474583       4.22881984       3.68632308      -0.01637314       0.00386534      -0.00497380
C       -3.75582730       6.35585151       3.74741182       0.00517575       0.00162703       0.00220931
C       -5.00357917       8.47069504       3.76417575      -0.00619459       0.00298550      -0.01823551
C        2.40894352      -0.10413416       3.98868976      -0.00026330      -0.00434521      -0.00381605
C        1.22473445       2.00754813       3.70040211       0.00496330       0.00110352      -0.00283088
C       -0.09492872       4.27587690       3.52634923       0.00077207       0.01252861      -0.01073866
C       -1.30405769       6.37135814       3.86328682       0.00934553      -0.00248918       0.00666801
C       -2.52399191       8.48022507       3.96270588      -0.00027161       0.00020523       0.00501708
C        4.88752219      -0.06404947       4.08175945       0.00328585       0.00515000       0.00331459
C        3.64156559       2.02818501       4.09558513      -0.00175274      -0.00695391       0.00508867
B        1.17944649       6.37641827       4.15866964      -0.00001462       0.00133213      -0.00003958
C       -0.05291439       8.50913866       4.05262688       0.00418444      -0.00900167       0.00286124
C        7.35678688      -0.02339703       4.00691269      -0.00564730       0.01034929      -0.00189055
C        6.12791465       2.08790290       3.99014719       0.00271117      -0.00577838       0.00074029
C        4.92119566       4.22227374       3.78427238       0.00673167      -0.00063790       0.01127060
S        3.40187733       6.24830511       3.02198419      -0.00199535       0.00551118      -0.00023678
C        2.42099926       8.55359352       3.89444389       0.00369605      -0.00385235      -0.00287954
C        9.83509512      -0.02496597       3.81274327      -0.00577541      -0.00309570       0.00468681
C        8.59973918       2.09710209       3.82137020       0.00494915      -0.00160740      -0.01259188
C        7.36787928       4.22119145       3.74093147      -0.01203326       0.00028299       0.01263873
C        6.12319528       6.35645756       3.52742533      -0.00555936       0.00793276      -0.01086312
C        4.87404114       8.49591856       3.63028156      -0.00608970       0.00164358      -0.00099599
C       -0.03289181       1.37432486       3.69557000       0.00287555       0.00500568       0.00273121
C       -1.27460360       3.51162189       3.58485746      -0.00981315       0.01311399      -0.00778477
C       -2.52767980       5.64770835       3.76109950       0.00771637       0.00084419       0.00210120
C       -3.75998092       7.77210522       3.82588405      -0.00232039       0.00300972      -0.00250479
C       -4.99399771       9.89340351       3.84771792      -0.00405463       0.00021628      -0.00664868
C        2.42035699       1.31763816       3.98507948       0.00193611      -0.00811390      -0.00899841
S        1.45545937       3.62162523       3.13338169       0.01252702      -0.00772812       0.00726046
C       -0.08471746       5.64640732       3.81829519       0.00934861       0.00223797       0.01324477
C       -1.28769043       7.78446160       3.98983547       0.00242283      -0.00360300      -0.00890378
C       -2.51660799       9.89409258       4.03770238       0.00404522       0.00005343      -0.00093168
C        4.89306051       1.36617730       4.08498917       0.00139424       0.00188566      -0.00555249
B        3.64626972       3.51135945       4.18713008       0.00294002      -0.01206241      -0.00327306
C        1.19775818       7.84799702       4.03489282       0.00869068      -0.00751848       0.01489846
C       -0.04813924       9.93818908       4.06345644      -0.00105583      -0.00277002      -0.00344358
C        7.36320136       1.39051504       3.95096259       0.00648472       0.00817803       0.00561424
C        6.14220692       3.49848183       3.84132554       0.00076529      -0.00958812       0.00108090
C        4.94731740       5.58963432       3.45523961       0.00008763      -0.00432096      -0.01405501
C        3.61476685       7.87212044       3.59221813      -0.00093451      -0.00291750      -0.00566380
C        2.43022911       9.97315125       3.92631723      -0.00995830      -0.00052472      -0.00226121
C        9.84280312       1.39719127       3.76385457       0.00349295      -0.00266958      -0.00912711
C        8.59664273       3.51392174       3.74800423      -0.01551959      -0.00181673       0.00933406
C        7.35759127       5.64076980       3.66025135      -0.00572296       0.00471631       0.00171563
C        6.10382617       7.77286280       3.60362827      -0.00988418       0.00434415       0.01069870
C        4.88760488       9.92696119       3.74150926      -0.00727893      -0.00060876       0.00628993
Cr       2.60748174       5.12524380       5.00007047       0.00871992       0.00077421       0.01209151
O        3.65145651       6.29419150       6.05776086       0.00110388      -0.00537178       0.00678117
O        2.89936265       5.56724764       7.14034372       0.01513052       0.00969516       0.00015201
H        3.63578741       5.10580436       7.58016371      -0.00138900      -0.00885317       0.00003286
