49
Lattice="12.336457 0.0 0.0 -6.168228499999997 10.683685154694365 0.0 0.0 0.0 15.0" Properties=species:S:1:pos:R:3:forces:R:3 energy=-432.6884790611241 free_energy=-432.6884790611241 stress="-0.0010919560369994229 -0.001369186142149724 7.828656589155134e-07 -0.001369186142149724 -0.009776096812413034 -8.209601158918776e-06 7.828656589155134e-07 -8.209601158918776e-06 -2.9275974400489887e-06" pbc="T T T"
C       -0.01020589      -0.01695760       3.80457835       0.01115931      -0.00321492       0.00585120
C       -1.23520694       2.14679976       3.76031694      -0.00352877      -0.00478053       0.00211765
C       -2.47053559       4.28325664       3.71460655       0.00046313      -0.00109884      -0.00302409
C       -3.69545934       6.40320533       3.76609640       0.00118594      -0.00106269       0.01395040
C       -4.93955602       8.52523428       3.82724365      -0.01024194       0.00660678      -0.00298460
C        2.46951365      -0.06031608       3.78195449       0.00629157       0.00435172      -0.00097423
C        1.24217158       2.06296479       3.83217062      -0.00102749      -0.00263578      -0.00002456
C       -0.01969727       4.29042654       3.85512102      -0.00514422      -0.00322542      -0.00342196
C       -1.19843325       6.40956319       3.81739293      -0.00723725      -0.00044962      -0.00141937
C       -2.45542479       8.52144191       3.79985805      -0.00852335       0.00722373      -0.00428973
C        4.93431564      -0.01319650       3.67116268      -0.00007056       0.00566735      -0.00084839
C        3.66224200       2.04850964       3.47605126      -0.00228926      -0.00567560      -0.00058156
B        1.45393982       6.35928381       4.01283678       0.00075723      -0.00463844       0.01034649
C        0.01497582       8.54530962       3.81696795       0.00624665      -0.00229310      -0.00650587
C        7.38673392       0.03446893       3.67732765      -0.00205565      -0.00104970      -0.00337966
C        6.14285588       2.15347240       3.49936983       0.00172363      -0.00399637      -0.00795582
C        4.96739683       4.32895575       3.45254960      -0.00311684      -0.00379897      -0.00775979
B        3.52622330       6.40635262       3.90196965      -0.00108492      -0.00237321      -0.00185894
C        2.46145500       8.61871359       3.81800481       0.00421616      -0.00443466       0.00074594
C        9.86525221       0.03360336       3.73471465      -0.00246072       0.00380584       0.00013228
C        8.62535957       2.15864553       3.62893654      -0.00772134       0.01512766       0.00838342
C        7.39630957       4.28800466       3.61570873       0.00030750      -0.00383863       0.01126165
C        6.15135898       6.41748145       3.78199652       0.01737749       0.00110219      -0.00177453
C        4.92766360       8.55970373       3.81520045      -0.00507472      -0.00072046       0.00175018
C       -0.00874344       1.41146580       3.80885024       0.00202406      -0.00394685       0.00580139
C       -1.23610746       3.56733719       3.76134750      -0.00390120      -0.00541652      -0.00795826
C       -2.45270265       5.70151772       3.75932240      -0.00278438      -0.00527348       0.00469545
C       -3.69573810       7.81960975       3.80872344      -0.01191206       0.00400336      -0.00042124
C       -4.94454352       9.93943497       3.82043304       0.01214331       0.00416873       0.00719788
C        2.46231356       1.35677449       3.72939238      -0.00440119      -0.00469941      -0.00805832
B        1.25792025       3.51944546       4.01783529       0.00016450      -0.00022080      -0.00577975
C        0.04731307       5.69703514       3.88277687      -0.00494624      -0.00273973      -0.00295912
C       -1.21569676       7.82459197       3.81780541      -0.00332171       0.00380716      -0.00180342
C       -2.45825830       9.93891080       3.75487690       0.00198625       0.00906479       0.00049747
C        4.91898348       1.41928776       3.52653901       0.00007169      -0.00168959      -0.00165207
S        3.46646867       3.67058750       2.88347869       0.00378545      -0.00500117      -0.00895011
C        1.26196094       7.87143523       3.87919476       0.00670621      -0.00583780      -0.00510970
C        0.00053222       9.97793349       3.72007289      -0.00219475       0.00130897       0.00447066
C        7.37889769       1.45560371       3.59006748       0.00098483       0.00231411       0.00067755
C        6.15480203       3.57392687       3.48842368       0.00455453      -0.00624280      -0.00177674
C        4.90212624       5.71005520       3.74354457       0.01597456       0.00428441      -0.00128221
C        3.67691992       7.90613430       3.82637591       0.00016726      -0.00410751       0.00916638
C        2.45743001      10.03224263       3.73758269      -0.00137629      -0.00479560      -0.00164407
C        9.86346763       1.45029707       3.69885059      -0.01172491       0.00904847       0.01038541
C        8.63081899       3.57760369       3.64221651      -0.00177532       0.01069058       0.00625171
C        7.39491901       5.70284341       3.72294616       0.00974611      -0.00720368       0.00849280
C        6.15794929       7.83272886       3.82859293      -0.00521919       0.00118698      -0.00859531
C        4.92610730       9.98480920       3.78711278       0.00430651       0.00155975      -0.00644011
Cr       2.72700497       4.73200955       4.85622131       0.00079038       0.01113931      -0.00294236
