51
Lattice="12.336457 0.0 0.0 -6.168228499999997 10.683685154694365 0.0 0.0 0.0 15.0" Properties=species:S:1:pos:R:3:initial_magmoms:R:1:forces:R:3 energy=-449.7763434527614 free_energy=-449.7763434527614 stress="-0.004300315737165065 0.003103400394314283 3.958058768718022e-05 0.003103400394314283 0.0004112225625715748 2.37169831813201e-05 3.958058768718022e-05 2.37169831813201e-05 9.005523306181738e-05" pbc="T T T"
C       -0.02405108      -0.03468680       3.63324628       0.00000000      -0.00175901       0.00476647       0.00329746
C       -1.25292994       2.09968301       3.42819693       0.00000000      -0.00414186       0.00054971      -0.00020444
C       -2.50194557       4.24331828       3.57622454       0.00000000       0.02449045      -0.01994332       0.00015244
C       -3.74282073       6.37496204       3.76680255       0.00000000       0.01123299       0.01847090      -0.00159865
C       -4.97618431       8.51140740       3.82666241       0.00000000      -0.00682912       0.02946325       0.00802911
C        2.44358087      -0.01588769       3.73307324       0.00000000       0.02006257       0.00085182      -0.01282685
C        1.23626259       2.07014666       3.32698489       0.00000000      -0.01037391       0.01184794       0.01454822
C       -0.09162596       4.30519162       3.24500198       0.00000000       0.00770990      -0.00333043      -0.01197026
C       -1.30136325       6.41092084       3.60074400       0.00000000      -0.00876219      -0.00804157      -0.02030084
C       -2.51180568       8.52665806       3.76531923       0.00000000       0.00566498      -0.01384885       0.00297500
C        4.91727506      -0.03558015       3.77811684       0.00000000      -0.03988095      -0.00962094      -0.00840265
C        3.71824776       2.13054512       3.76378184       0.00000000       0.02513239      -0.02025029      -0.02007348
N        1.11473714       6.38386263       3.62027082       0.00000000       0.01059868      -0.01103106       0.01389520
C       -0.03571084       8.49557299       3.73583702       0.00000000       0.00424466       0.01726850      -0.00438775
C        7.38908321      -0.06166271       3.72296658       0.00000000      -0.00662505       0.00022775       0.00269134
C        6.17218360       2.07639537       3.81596317       0.00000000       0.00674355      -0.01222925      -0.01785639
C        4.96648478       4.18041041       4.02047115       0.00000000       0.01628526      -0.02516472      -0.02056655
B        3.81695003       6.46772925       4.76098926       0.00000000      -0.11631993      -0.03818202       0.08287665
C        2.43942853       8.46898016       3.85085566       0.00000000       0.00659195       0.01450855       0.01010686
C        9.84569383      -0.05214638       3.65162918       0.00000000       0.00994155       0.02632919       0.02101238
C        8.62577096       2.08683490       3.64839486       0.00000000      -0.00783140       0.01692736       0.00273412
C        7.39784306       4.22316057       3.82014288       0.00000000       0.01353827       0.00728733      -0.00366614
C        6.14234802       6.35186148       4.00624295       0.00000000       0.01823195      -0.02302877       0.00732426
C        4.89301039       8.51394165       3.91917347       0.00000000      -0.00804221      -0.00628376       0.02953791
C       -0.01681318       1.38710099       3.44140129       0.00000000      -0.00712201      -0.00501808       0.00556458
C       -1.27475283       3.53561560       3.39701367       0.00000000       0.01514891      -0.01051495      -0.00784772
C       -2.51507795       5.67045864       3.64341184       0.00000000      -0.00149103      -0.01357059      -0.00670411
C       -3.74254583       7.80300443       3.79241245       0.00000000      -0.00814245       0.02506275       0.00644858
C       -4.96207335       9.94259350       3.73254404       0.00000000       0.00789357       0.03127706       0.01940851
C        2.46407314       1.41254314       3.61966585       0.00000000       0.00585683      -0.00380457      -0.00446582
P        1.27111984       3.57609249       2.39480597       0.00000000      -0.01238265       0.02139569      -0.02327693
C       -0.07958303       5.73406213       3.45376375       0.00000000      -0.00258580       0.00530195      -0.01407964
C       -1.28419084       7.81656325       3.70799920       0.00000000       0.00970613      -0.00163211       0.01322012
C       -2.49734807       9.95143217       3.78015917       0.00000000      -0.01335087      -0.02837070      -0.00127899
C        4.93165908       1.38867768       3.79754511       0.00000000       0.00428032      -0.02218914       0.00557058
N        3.78223740       3.49215886       3.89960039       0.00000000       0.01725258      -0.02630785       0.00634299
C        1.17501859       7.74821139       3.75493552       0.00000000       0.00513786      -0.00788515      -0.00945267
C       -0.01931616       9.91967286       3.75759449       0.00000000      -0.03200142       0.02270609       0.00107111
C        7.39838482       1.36559743       3.72885270       0.00000000       0.00296671      -0.00606063      -0.00879251
C        6.18709688       3.48787184       3.89694311       0.00000000       0.01725418      -0.00527825      -0.02277393
C        4.95600250       5.60456012       4.18548869       0.00000000       0.03584886      -0.02369318      -0.02355403
C        3.66513034       7.83503882       4.08786221       0.00000000       0.00874594       0.02947660       0.02509663
C        2.44591270       9.90421101       3.72178466       0.00000000       0.00161736       0.02207103      -0.00207830
C        9.85709118       1.37904146       3.56011461       0.00000000      -0.01313516       0.02235511       0.00946063
C        8.62404968       3.51561140       3.67716581       0.00000000       0.00842187       0.01073296       0.00733055
C        7.37951667       5.64870460       3.85444139       0.00000000       0.02416097       0.00585878       0.01160915
C        6.13371655       7.79355998       3.94496376       0.00000000       0.01447731      -0.00389014       0.00393801
C        4.91060853       9.93574777       3.71307640       0.00000000       0.00630987       0.00814317       0.00433886
Cr       2.45267334       4.93133339       3.97639651       0.00000000      -0.06287759      -0.02490609       0.06205453
O        3.25325294       6.24415311       6.11065673       1.00000000       0.03884048       0.00408931      -0.09466367
O        2.39075856       5.07610022       5.89117016       1.00000000      -0.04073427       0.01710712      -0.03981346
