50
Lattice="12.336457 0.0 0.0 -6.168228499999997 10.683685154694365 0.0 0.0 0.0 15.0" Properties=species:S:1:pos:R:3:forces:R:3 energy=-435.2777534329135 free_energy=-435.2777534329135 stress="-0.0061059289107636815 0.003644653372200673 3.31846022124601e-06 0.003644653372200673 -0.012546350824940343 1.2883688363265944e-06 3.31846022124601e-06 1.2883688363265944e-06 1.2096545339707918e-05" pbc="T T T"
C        0.00170820      -0.01095860       3.61882511      -0.00272921       0.00053376       0.01146075
C       -1.20728747       2.15085174       3.53154306      -0.00016204      -0.00122818       0.00225539
C       -2.46671098       4.28093514       3.60226117       0.00046021       0.00005847       0.00327997
C       -3.71299461       6.40358227       3.66125951       0.00218919      -0.00190061       0.00167996
C       -4.96065974       8.51679560       3.63727344      -0.00138460       0.00405373       0.00777421
C        2.45506196      -0.06272539       3.83112136      -0.00342814      -0.00206685       0.00256645
C        1.27929597       2.05729614       3.61424123       0.00184317      -0.01366685      -0.01155790
C       -0.04758854       4.33854463       3.51350530      -0.00078232       0.00083943      -0.01049077
C       -1.26471003       6.42487413       3.80559221      -0.00100740       0.00179726      -0.00118211
C       -2.48127015       8.52857607       3.83444050      -0.00366425      -0.00241131      -0.00653992
C        4.93526971      -0.02051433       3.94577646      -0.00247702       0.00343053       0.00336797
C        3.69393724       2.05202519       4.01595591      -0.01082929       0.00984926       0.00549041
B        1.21056026       6.45302793       4.14711342      -0.01622042      -0.00730993      -0.00764460
C       -0.01310211       8.56376021       3.96388040       0.00930661      -0.01020218       0.00514533
C        7.40429262       0.02769688       3.88454103       0.00558809       0.00067474       0.00369127
C        6.18169181       2.13034123       3.91654146      -0.00148171       0.00119730      -0.00439552
C        4.97756472       4.26261903       3.85156004       0.00684226       0.00073706      -0.00376722
S        3.40302997       6.24221376       3.19081692       0.00548194       0.00518506      -0.00073643
C        2.46471347       8.61273208       3.85534558       0.00015138       0.00545575      -0.00576267
C        9.88353741       0.02762594       3.68498369       0.00461853      -0.00105170       0.01063714
C        8.65213593       2.14697401       3.70957614       0.00309939       0.00051731      -0.00289812
C        7.41842308       4.26848197       3.69909747      -0.00175235       0.00072059       0.00489037
C        6.15772102       6.39782803       3.52780564      -0.00179348      -0.00107367      -0.00218188
C        4.91296689       8.53876196       3.57233849       0.00240355       0.00423385      -0.00043799
C        0.02106038       1.42736554       3.56864626      -0.00128428      -0.00404151       0.00112365
C       -1.22390238       3.56859458       3.50723933       0.00211995      -0.00015369      -0.00064658
C       -2.48339351       5.69851989       3.68286252       0.00279577      -0.00083617       0.00583945
C       -3.71778154       7.82016678       3.70792460      -0.00335519      -0.00131509      -0.00264441
C       -4.94944880       9.93934325       3.68949979      -0.00455824       0.00338807       0.01101638
C        2.46853999       1.35487906       3.86994461       0.00015253      -0.00556867      -0.00669645
S        1.53213500       3.71843632       3.17672177      -0.00618187      -0.00552716       0.00296779
C       -0.04099052       5.70491237       3.81407543      -0.00890428      -0.00066120      -0.00068449
C       -1.24708565       7.83680640       3.89711993       0.00118785      -0.00008986      -0.00428067
C       -2.47043978       9.93978472       3.88762999      -0.00486351      -0.00188524       0.00357335
C        4.94693030       1.40390838       3.98248753      -0.00988357       0.01065327       0.00363888
B        3.72621792       3.51370053       4.17822671       0.01533849       0.00591481      -0.01084076
C        1.23950809       7.91570231       3.99189028       0.00998907      -0.01020016       0.00725049
C       -0.00154234       9.98832244       3.94021576       0.00288852      -0.00369829       0.00222438
C        7.41567233       1.43894257       3.84134350       0.00302687       0.00127951      -0.00721926
C        6.20067094       3.54249272       3.83394578       0.00059773      -0.00021858      -0.00312415
C        4.98156297       5.62768558       3.54574552      -0.00073763      -0.00069012      -0.01301071
C        3.65501785       7.90852823       3.61255089      -0.00122430       0.01376496      -0.01363857
C        2.47853541      10.03026060       3.82261724       0.00450062       0.00245077       0.00167162
C        9.89474534       1.45012309       3.63244464       0.00249440      -0.00232127       0.00820525
C        8.64768565       3.56344415       3.66332622      -0.00139698       0.00102242       0.00218446
C        7.40105389       5.68587231       3.61519755       0.00037548      -0.00077732       0.00321381
C        6.14139633       7.81554057       3.54155547       0.00207468       0.00090508       0.00111570
C        4.93225085       9.97739703       3.61784897       0.00184958       0.00058801       0.01154506
Cr       2.45511914       4.97791690       4.94556151       0.00147974       0.00116878      -0.00148612
O        2.44381714       4.97220903       6.52152406      -0.00275354      -0.00152420      -0.00594221
