51
Lattice="12.336457 0.0 0.0 -6.168228499999997 10.683685154694365 0.0 0.0 0.0 15.0" Properties=species:S:1:pos:R:3:initial_magmoms:R:1:forces:R:3 energy=-454.39555334385244 free_energy=-454.39555334385244 stress="-0.003392410579148112 -0.00029446300952661584 -4.7702903197807704e-06 -0.00029446300952661584 0.0035889019753378836 -1.0498796059817185e-06 -4.7702903197807704e-06 -1.0498796059817185e-06 3.544342409415716e-06" pbc="T T T"
C        0.02103981      -0.03019403       3.65393257       0.00000000      -0.00185593       0.00611617       0.00720483
C       -1.22526595       2.08617270       3.62201203       0.00000000       0.00010281      -0.00172545       0.00403249
C       -2.45816466       4.23348085       3.58236993       0.00000000      -0.00346673       0.00036453       0.00037548
C       -3.67456582       6.38356890       3.57234251       0.00000000       0.00576107      -0.00275257       0.01276749
C       -4.90409357       8.53128160       3.61950109       0.00000000      -0.00063470       0.00363453      -0.00166450
C        2.49247183       0.01797212       3.67867173       0.00000000      -0.01324207      -0.00306482      -0.00515021
C        1.23026260       2.15162011       3.76795862       0.00000000       0.00572701       0.00211713      -0.00506945
C       -0.03326319       4.20251655       3.85990040       0.00000000      -0.00102601       0.00238258       0.00632496
C       -1.22510609       6.36419123       3.82233230       0.00000000       0.00148823       0.00270280       0.00328745
C       -2.44004270       8.52806434       3.68945499       0.00000000      -0.00785649       0.00117595       0.00434919
C        4.95338616      -0.01489467       3.65139333       0.00000000      -0.00174622      -0.00095525       0.00523791
C        3.74436309       2.15874886       3.70682363       0.00000000      -0.00543558       0.00328469       0.01016420
B        1.06473976       6.47441435       4.66188400       0.00000000      -0.00537499      -0.00495505      -0.00294799
C        0.02389600       8.52625336       3.85188998       0.00000000       0.00175127      -0.01135796      -0.00780917
C        7.42919010      -0.05195820       3.63363180       0.00000000       0.00684348      -0.00140766       0.00329048
C        6.19787844       2.09666499       3.54688738       0.00000000       0.00247056      -0.00265636      -0.01181725
C        4.99772069       4.22772553       3.63652152       0.00000000       0.00450905      -0.00464987      -0.01294525
N        3.79840502       6.34685727       3.83437263       0.00000000      -0.00095685       0.00082204      -0.00741778
C        2.48889645       8.46628446       3.84557898       0.00000000      -0.00529684      -0.00241018      -0.00117101
C        9.88646116      -0.06316963       3.62848766       0.00000000       0.00506162      -0.00231661       0.00110179
C        8.65775381       2.08853487       3.52606523       0.00000000       0.00009297       0.00163033      -0.00026060
C        7.43347178       4.24150352       3.49461578       0.00000000       0.00063350       0.00177915       0.00211278
C        6.20515714       6.38734466       3.58052503       0.00000000       0.00654125       0.00481922      -0.00813393
C        4.95605432       8.48335890       3.68639912       0.00000000       0.00140367       0.00538835       0.00589194
C        0.01462690       1.39758691       3.67602031       0.00000000       0.00435675       0.00537765      -0.00406502
C       -1.24356208       3.50231353       3.65848989       0.00000000      -0.00345358      -0.00042540       0.00309096
C       -2.45614860       5.66056729       3.63107988       0.00000000       0.00534774      -0.00168506       0.00260676
C       -3.67288575       7.81348967       3.62026956       0.00000000      -0.00295955      -0.00131054       0.00558503
C       -4.90495108       9.96335258       3.65427431       0.00000000      -0.01027663       0.00134425       0.00515203
C        2.49130866       1.45758137       3.72984792       0.00000000      -0.00207353      -0.00345639      -0.00140269
N        1.15308155       3.51029545       3.91225078       0.00000000       0.00686371       0.00428141       0.00250206
C       -0.04589762       5.61802718       4.03781430       0.00000000      -0.00151693       0.00025219       0.00556210
C       -1.21740474       7.80665550       3.81063333       0.00000000      -0.00357492       0.00018644       0.00601349
C       -2.44753852       9.96513934       3.67434849       0.00000000      -0.01032173       0.00139180       0.00329236
C        4.95794706       1.41272850       3.61589991       0.00000000      -0.00287088       0.00270035       0.00663557
N        3.82455693       3.53087772       3.77832842       0.00000000      -0.00584056       0.00734249      -0.00571002
C        1.24741418       7.84947023       4.04169414       0.00000000      -0.00231973      -0.01610327      -0.00256135
C        0.01977503       9.94795418       3.69089693       0.00000000       0.00582388      -0.00601032       0.00101364
C        7.42681466       1.37636252       3.54634162       0.00000000       0.00368020       0.00084689       0.00319531
C        6.20831934       3.52008546       3.52292191       0.00000000       0.00516092      -0.00369181      -0.00190059
C        4.98171579       5.67636448       3.66409907       0.00000000       0.00528596      -0.00018963      -0.00307850
C        3.74533874       7.72695225       3.79831377       0.00000000      -0.00445192       0.00435124       0.01059028
C        2.49187317       9.90118467       3.68326384       0.00000000       0.00455321      -0.00249132      -0.00200128
C        9.88491620       1.36730915       3.57395757       0.00000000      -0.00037989      -0.00317822       0.00149630
C        8.65488653       3.51762643       3.50769878       0.00000000      -0.00404459       0.00140980      -0.00562481
C        7.43157984       5.66763921       3.52518867       0.00000000       0.00655259       0.00101248      -0.00233808
C        6.20022974       7.80690746       3.62334788       0.00000000       0.00323038       0.00628835      -0.00594035
C        4.95331849       9.91539967       3.65755415       0.00000000       0.00509375       0.00232649      -0.00768789
Cr       2.51596609       4.84776936       4.28256679       0.00000000      -0.00732297      -0.00487892      -0.01791919
O        2.37779989       5.07379825       6.11985243       1.00000000       0.01139351       0.00028478      -0.00529482
O        1.52853150       6.29654105       6.05303602       1.00000000      -0.00142928       0.00605857       0.00703486
