50
Lattice="12.336457 0.0 0.0 -6.168228499999997 10.683685154694365 0.0 0.0 0.0 15.0" Properties=species:S:1:pos:R:3:forces:R:3 energy=-444.02591837812747 free_energy=-444.02591837812747 stress="-0.005539212077914223 0.0027525171980654437 -5.7940465494761554e-06 0.0027525171980654437 -0.0011376926584235434 1.1852331634830648e-05 -5.7940465494761554e-06 1.1852331634830648e-05 -7.0920930539033635e-06" pbc="T T T"
C        0.01115358       0.01143403       3.74365250      -0.00688115       0.00072230      -0.01159133
C       -1.22118392       2.14336899       3.57344502       0.01000326       0.00978210      -0.00649488
C       -2.46673228       4.28404275       3.67943254       0.00532016       0.00525246      -0.00315496
C       -3.70385335       6.41885930       3.81732603       0.00329027      -0.00804303       0.00057425
C       -4.93580064       8.55656287       3.86365175      -0.00081237       0.00569690       0.00324588
C        2.47813602       0.02182067       3.79095249       0.00257732       0.00967227      -0.00608744
C        1.26448017       2.10817010       3.42366397       0.00092257       0.00400374       0.00207396
C       -0.05333748       4.34426864       3.38010632      -0.00212575      -0.00023688      -0.00600046
C       -1.26506914       6.45149334       3.66794451       0.00652020       0.00159475      -0.00580891
C       -2.47496746       8.56690470       3.81447723      -0.00083924       0.00204780       0.00316278
C        4.94496677       0.00627221       3.79725549       0.00360634       0.00327494      -0.00025085
C        3.74325379       2.17207677       3.75815846      -0.00582190      -0.00070863       0.00140695
N        1.16728413       6.40920208       3.65582145      -0.00335415      -0.00241260       0.00463237
C       -0.00278161       8.53817429       3.76335451      -0.00058224      -0.00604314       0.00610023
C        7.41326499      -0.01189887       3.77455379       0.00219478      -0.01230197       0.00400551
C        6.19863066       2.11934439       3.79926855      -0.00836596       0.00182318      -0.00124050
C        4.98129190       4.21426413       3.89047664       0.00054155      -0.00354842       0.00239498
B        3.73412088       6.40047973       4.09069402      -0.00725181       0.00028956       0.01371504
C        2.44893020       8.52946117       3.84686109       0.00446011      -0.00372755       0.00192681
C        9.87716850      -0.00515435       3.76233653       0.00272982       0.00671264       0.00281594
C        8.65486829       2.13213161       3.73326375       0.00039504      -0.00305282      -0.00037770
C        7.42356742       4.26732385       3.82342050       0.00475092      -0.00090239      -0.00856911
C        6.18281416       6.40320702       3.92616964      -0.01184294       0.00011248       0.00428803
C        4.94265163       8.55365652       3.90311472      -0.00622051       0.00122220       0.00292285
C        0.01538738       1.43200493       3.57059996       0.00397429       0.00253520      -0.00418501
C       -1.23995694       3.57514220       3.53321042       0.00044399       0.00691331      -0.01125773
C       -2.47809242       5.71112526       3.72403469       0.00995015       0.00172059      -0.01136515
C       -3.70528374       7.84649982       3.84046823      -0.00129253      -0.00430423      -0.00268678
C       -4.92688595       9.98537189       3.80661089      -0.00119513       0.01055162       0.00813877
C        2.49419503       1.44618059       3.67477767      -0.00030035       0.00494565      -0.00569576
P        1.32904426       3.64721964       2.54534537      -0.00235870      -0.00132059       0.00217369
C       -0.04649983       5.77328111       3.52435312       0.00161821      -0.00311883      -0.00636962
C       -1.24840696       7.85894178       3.75478961      -0.00132265      -0.00048130      -0.00166263
C       -2.46434216       9.98969572       3.81908937       0.00343664       0.00761176      -0.00006702
C        4.95664814       1.43202392       3.79001689      -0.00827664       0.00345764       0.00748603
N        3.78507501       3.54986612       3.81918492       0.00251975      -0.00390706      -0.00536732
C        1.21405072       7.78669245       3.77106352       0.00149694      -0.00245322       0.00219794
C        0.00925346       9.96296519       3.78454913       0.00046461      -0.00762118       0.00533322
C        7.42611544       1.41202754       3.76972122      -0.00820955      -0.00675357       0.00793171
C        6.20783829       3.52942263       3.83706656       0.00298847       0.00116742      -0.00397864
C        4.98188502       5.64419482       3.97677983      -0.01189798      -0.00431841       0.00410481
C        3.69227015       7.86184391       3.95034933       0.00014761      -0.00299531       0.00923969
C        2.46830212       9.95771941       3.79240526       0.00810042      -0.00426933      -0.00500745
C        9.88818011       1.42315049       3.68878659       0.01005815       0.00883189      -0.00330972
C        8.65317225       3.55974131       3.74837543       0.00653962      -0.00026093       0.00367167
C        7.41542010       5.69521605       3.85883783      -0.00472161      -0.00187785       0.00356391
C        6.16860719       7.83390230       3.90945045      -0.00547005       0.00432336       0.00743787
C        4.94724218       9.97989577       3.80709233      -0.00692250      -0.00042868      -0.00654732
Cr       2.35278389       4.89002364       4.25328756      -0.00449831      -0.01339482       0.00477031
O        2.00408663       4.63246119       5.79159133       0.01151281      -0.00578304      -0.00223890
