51
Lattice="12.336457 0.0 0.0 -6.168228499999997 10.683685154694365 0.0 0.0 0.0 15.0" Properties=species:S:1:pos:R:3:initial_magmoms:R:1:forces:R:3 energy=-440.1027604848683 free_energy=-440.1027604848683 stress="-0.004063623889218051 -1.8632805897465808e-06 1.1765988611350525e-05 -1.8632805897465808e-06 -0.0066936851531499125 -2.9769332051950544e-05 1.1765988611350525e-05 -2.9769332051950544e-05 8.30024703994302e-06" pbc="T T T"
C       -0.00428303      -0.04551821       3.90448053       0.00000000      -0.00352319      -0.00262498      -0.01746470
C       -1.23295547       2.10071318       3.97307890       0.00000000       0.00051506      -0.00433291      -0.00231351
C       -2.47099069       4.23831346       3.98423419       0.00000000       0.00189782      -0.00555319      -0.00443982
C       -3.70230717       6.37266794       3.93350263       0.00000000      -0.00306552       0.01199460      -0.00205957
C       -4.94566006       8.49591847       3.83871717       0.00000000      -0.00575225       0.00349062      -0.00532104
C        2.46580405      -0.08016759       3.95024884       0.00000000       0.00072762      -0.00085325       0.01056167
C        1.24696706       2.05368233       3.94485562       0.00000000      -0.00526167      -0.00183767       0.01144753
C       -0.01340636       4.25277299       3.77958326       0.00000000       0.00320758       0.00835584       0.00092772
C       -1.26534288       6.38672786       3.69857603       0.00000000      -0.00545311      -0.00572559       0.00266198
C       -2.45932681       8.49642606       3.83987865       0.00000000       0.00746546      -0.00171126       0.00773859
C        4.93630498      -0.04553636       3.90420855       0.00000000       0.00020747      -0.00047952      -0.00498214
C        3.68494850       2.05310506       3.94561387       0.00000000       0.00527044       0.00242838       0.00676746
S        1.07699449       6.35570578       2.39822134       0.00000000       0.00626441      -0.01265359      -0.01114806
C       -0.00154718       8.52456007       3.55781000       0.00000000      -0.00081765       0.00271886      -0.01117543
C        7.40025676      -0.02386743       3.81092455       0.00000000       0.00099792       0.00043523       0.00185797
C        6.16453635       2.10109374       3.96970650       0.00000000       0.00270464      -0.00471488       0.01238893
C        4.94527706       4.25357512       3.77174446       0.00000000      -0.00404624       0.00855394       0.00061043
S        3.85575696       6.35881920       2.38507286       0.00000000      -0.00089903      -0.01175976      -0.00546990
C        2.46614086       8.56617076       3.30473763       0.00000000       0.00128472       0.00543343       0.00088502
C        9.86821285      -0.02411189       3.81140678       0.00000000      -0.00086455       0.00399055      -0.00903082
C        8.63412185       2.10423080       3.98931569       0.00000000      -0.00006992      -0.00216882       0.00239058
C        7.40273075       4.23827201       3.97912064       0.00000000      -0.00216210      -0.00333404       0.00127532
C        6.19752425       6.38620595       3.68774946       0.00000000       0.00390796      -0.00222048       0.00434322
C        4.93356710       8.52493902       3.55163603       0.00000000       0.00113900      -0.00179559      -0.00896079
C       -0.00256956       1.38166944       3.95383386       0.00000000      -0.00440443      -0.00450969       0.00364591
C       -1.23598471       3.52298088       3.94690027       0.00000000       0.00779187      -0.00172368       0.00162029
C       -2.47697883       5.66016860       3.91688045       0.00000000      -0.00881240      -0.00375803       0.00116529
C       -3.70235135       7.78879781       3.88102614       0.00000000      -0.00142143       0.01453768      -0.00752029
C       -4.94302596       9.91564345       3.90284083       0.00000000      -0.00404226       0.00206918       0.00237183
C        2.46574875       1.33512214       3.96323361       0.00000000       0.00193368       0.00265817      -0.00830855
B        1.34582120       3.55688240       3.86738529       0.00000000       0.00273016       0.00122401       0.01173176
C       -0.10448302       5.63659304       3.46762490       0.00000000       0.00342144       0.00830298       0.00274909
C       -1.23366059       7.80156097       3.67377811       0.00000000       0.00197981      -0.00718443      -0.00591519
C       -2.46161031       9.91602326       3.90399847       0.00000000       0.00206342      -0.00313669      -0.00663223
C        4.93449584       1.38149661       3.95370243       0.00000000       0.00483503      -0.00420849      -0.00444594
B        3.58719204       3.55591911       3.86674760       0.00000000      -0.00675878       0.00398705       0.00802233
C        1.21344421       7.90904019       3.18895837       0.00000000       0.00284446      -0.00499077       0.01739862
C       -0.00008646       9.94306351       3.77774648       0.00000000      -0.00009384       0.00445354      -0.01134033
C        7.39905826       1.39448477       3.94935087       0.00000000       0.00318109      -0.00206222       0.00299557
C        6.16756460       3.52337492       3.94141849       0.00000000      -0.00681354      -0.00006198      -0.00359984
C        5.03712072       5.63631762       3.45393200       0.00000000       0.00025422       0.00782667      -0.00104603
C        3.71869432       7.90959134       3.18249024       0.00000000      -0.00224702      -0.00435554       0.01622200
C        2.46604152       9.96293668       3.66372135       0.00000000      -0.00011087       0.00347827       0.00617320
C        9.86911349       1.39428781       3.94928556       0.00000000      -0.00186398      -0.00230835       0.01762283
C        8.63410904       3.52764781       4.01840995       0.00000000      -0.00075853      -0.00434677      -0.00351081
C        7.40887546       5.66002838       3.91062887       0.00000000       0.00461049      -0.00116502       0.00316720
C        6.16562528       7.80141876       3.66680927       0.00000000       0.00040578      -0.00598610      -0.00284896
C        4.93223442       9.94315682       3.77566010       0.00000000      -0.00209924      -0.00228097      -0.00661895
Cr       2.46747074       5.27395212       4.04109259       0.00000000       0.00479493       0.00264432       0.00053585
O        2.41755352       5.42994296       6.00827813       1.00000000      -0.00979937       0.00713692      -0.00508808
O        2.50148297       6.63373097       5.43225127       1.00000000       0.00470443       0.00812401      -0.01003720
