51
Lattice="12.336457 0.0 0.0 -6.168228499999997 10.683685154694365 0.0 0.0 0.0 15.0" Properties=species:S:1:pos:R:3:initial_magmoms:R:1:forces:R:3 energy=-439.1477396577084 free_energy=-439.1477396577084 stress="-0.006790853155348603 -0.0029696737235710554 5.727247204229861e-06 -0.0029696737235710554 -0.0022632234366622 4.33273552884708e-06 5.727247204229861e-06 4.33273552884708e-06 1.1273407385726694e-05" pbc="T T T"
C       -0.02410178       0.03033019       3.71706287       0.00000000      -0.00144171      -0.00210998      -0.00029881
C       -1.28318220       2.15114904       3.56683849       0.00000000      -0.00188902       0.00298846       0.00050360
C       -2.53212580       4.29778710       3.83666680       0.00000000      -0.00928143      -0.00680605      -0.00498987
C       -3.72692275       6.44603743       4.03129587       0.00000000       0.00556159       0.00625917      -0.00731230
C       -4.94505198       8.59267239       3.95691004       0.00000000      -0.00177447      -0.00202694       0.00776047
C        2.44950242       0.01736211       3.66329753       0.00000000       0.00382697       0.00923066       0.00597912
C        1.18974657       2.07317222       3.18356524       0.00000000      -0.00531159       0.00400968      -0.00049489
C       -0.18569398       4.32565032       3.32896022       0.00000000       0.00157130       0.00343745      -0.00393341
C       -1.29538615       6.44340433       3.88675703       0.00000000      -0.00729796      -0.00288724       0.00152754
C       -2.48229390       8.58007790       3.93670642       0.00000000       0.00070452      -0.00057013       0.00616496
C        4.91477538       0.02349579       3.76529327       0.00000000       0.00174951      -0.00520832       0.00341183
C        3.68511491       2.09340910       3.27084762       0.00000000       0.00286943       0.00087940       0.00134551
B        1.15495715       6.38217582       4.02518560       0.00000000      -0.00980865      -0.00102565      -0.00046733
C       -0.01251623       8.56229993       3.94159204       0.00000000       0.00264138       0.00130070       0.00410884
C        7.38054071       0.01714997       3.85752531       0.00000000      -0.00068127       0.00664767      -0.00159817
C        6.12740788       2.17722753       3.73719424       0.00000000       0.00063903       0.00318954      -0.01154703
C        4.96956854       4.39393614       3.69810538       0.00000000      -0.00575653       0.00186464       0.00805559
O        3.79860261       6.50816349       3.72488473       0.00000000       0.00886231       0.00065827       0.00575531
C        2.48210032       8.54679807       3.92222665       0.00000000       0.00254901      -0.00139700       0.00191516
C        9.84326256       0.01901459       3.81693678       0.00000000      -0.00257108      -0.00720782       0.00271976
C        8.59550914       2.16101151       3.83671946       0.00000000       0.00662516      -0.00718471       0.00303345
C        7.36422825       4.30944673       3.97997622       0.00000000       0.00041987       0.00907861      -0.00287366
C        6.17759995       6.47813109       4.03901270       0.00000000      -0.00064939      -0.00056106       0.00046345
C        4.93390977       8.58620756       3.92701360       0.00000000       0.00189540       0.00098310       0.00417888
C       -0.03697657       1.44577325       3.48454324       0.00000000      -0.00644898      -0.00358743      -0.00300908
C       -1.33056174       3.56887251       3.55978280       0.00000000      -0.00100907       0.00423544       0.00301336
C       -2.51831446       5.72280831       3.93545944       0.00000000      -0.00394645      -0.00359028      -0.00929683
C       -3.71351171       7.87376955       3.99383474       0.00000000       0.00162268      -0.00010665       0.00468255
C       -4.95225669      10.00961017       3.78964708       0.00000000       0.00521780      -0.00175229       0.00017303
C        2.44270099       1.41812836       3.34207449       0.00000000      -0.00123708       0.00966329      -0.00371799
S        1.11558726       3.63954428       2.42587914       0.00000000       0.00633597      -0.01151977       0.00058728
C       -0.10899398       5.69943602       3.69203224       0.00000000      -0.00652114       0.00238835      -0.00519631
C       -1.25089770       7.86107927       3.95176149       0.00000000       0.00079805      -0.00202291       0.00346002
C       -2.48463748       9.99829637       3.80307640       0.00000000       0.00118790       0.00014765      -0.00078070
C        4.90499820       1.45389958       3.59573504       0.00000000       0.00076265      -0.00276412      -0.00212454
S        3.73823906       3.72229837       2.65333410       0.00000000       0.00329156      -0.00049622       0.00358754
C        1.23396865       7.85712815       3.97464787       0.00000000       0.00295154       0.00181003      -0.00004395
C       -0.02105622       9.99486791       3.87187363       0.00000000       0.00246797       0.00320390       0.00095559
C        7.35803599       1.45244516       3.82832466       0.00000000       0.00291519       0.00304891      -0.00052905
C        6.13524841       3.60650693       3.82908986       0.00000000       0.00064034       0.00383250      -0.00309314
C        4.98991100       5.79280536       3.85813471       0.00000000       0.00084670      -0.00081602       0.00008059
C        3.73178449       7.87936612       3.89156524       0.00000000       0.00691272      -0.00191866       0.00166621
C        2.45652760       9.98268565       3.87942105       0.00000000      -0.00401057      -0.00067573      -0.00487226
C        9.83575013       1.44896125       3.75167480       0.00000000       0.00514644      -0.00561544      -0.00584323
C        8.58793483       3.58274078       3.91006616       0.00000000      -0.00525634      -0.00586759      -0.00158839
C        7.38471532       5.73052353       4.05085096       0.00000000       0.00307230       0.01276283       0.00168015
C        6.17202206       7.89484546       4.00196219       0.00000000      -0.00457202      -0.00134586      -0.00310901
C        4.91169643      10.00685894       3.83427458       0.00000000      -0.00354190       0.00008434       0.00147965
Cr       2.29007193       4.60803597       4.42828031       0.00000000      -0.00163429      -0.00613569       0.01379732
O        3.04106236       3.58033871       5.94727822       1.00000000      -0.00816091      -0.00949745      -0.00262537
O        1.77920877       3.19905027       5.70534861       1.00000000       0.00871658       0.00299245      -0.01274145
