51
Lattice="12.336457 0.0 0.0 -6.168228499999997 10.683685154694365 0.0 0.0 0.0 15.0" Properties=species:S:1:pos:R:3:initial_magmoms:R:1:forces:R:3 energy=-439.98951034902575 free_energy=-439.98951034902575 stress="-0.0019835440874833962 0.002790748465089567 6.23265486542944e-06 0.002790748465089567 -0.0023335990796410585 1.3961997873690722e-05 6.23265486542944e-06 1.3961997873690722e-05 5.5823716271185565e-08" pbc="T T T"
C        0.05384240      -0.02191568       3.88099402       0.00000000       0.00461674      -0.00770647       0.00032846
C       -1.17671665       2.11309898       3.58554083       0.00000000       0.00035828      -0.00352258       0.00001268
C       -2.46469848       4.24387100       3.52820398       0.00000000      -0.00076034       0.00349809       0.00250159
C       -3.69111151       6.37287236       3.75472638       0.00000000      -0.00500569       0.00439355      -0.00097934
C       -4.90409112       8.50218950       3.94690697       0.00000000      -0.00231518       0.00170521      -0.00038105
C        2.52123559      -0.03363580       3.95231260       0.00000000       0.00422316       0.00459918      -0.00139966
C        1.31865015       2.06672657       3.62106345       0.00000000      -0.00177723       0.00205657      -0.00234774
C       -0.12705281       4.26843606       2.95237659       0.00000000      -0.00162938       0.00550073       0.00249483
C       -1.26863658       6.40680578       3.28775653       0.00000000       0.00584085      -0.00575870       0.00562873
C       -2.42956076       8.50171931       3.75856973       0.00000000       0.00556698      -0.00446327       0.00143634
C        4.98040293      -0.05459281       3.89982632       0.00000000       0.00205434       0.00300037       0.00459676
C        3.79966794       2.06892458       4.01761608       0.00000000       0.00766890      -0.00163160       0.00280273
S        1.45249258       6.36750959       2.67091817       0.00000000      -0.01083322       0.00826701       0.00611083
C        0.03507178       8.50876780       3.59383805       0.00000000      -0.00275799       0.00070230      -0.00716656
C        7.44835815      -0.03431453       3.85289057       0.00000000      -0.00325167       0.00806623       0.00121300
C        6.23322543       2.08194488       3.96910565       0.00000000      -0.00290903       0.00470631      -0.01414217
C        5.01505634       4.16719414       4.11531255       0.00000000      -0.00587317       0.00204282       0.00977900
B        3.69669638       6.36153732       4.22211999       0.00000000       0.00188546      -0.00369920       0.00113631
C        2.50536303       8.54054444       3.82598436       0.00000000       0.00181979       0.00064982       0.00091011
C        9.92889399      -0.01415044       3.86919699       0.00000000       0.00187019       0.00003501      -0.00378689
C        8.68950312       2.10658086       3.79880192       0.00000000      -0.00115530      -0.00260119       0.00168647
C        7.43973812       4.23444755       3.88631315       0.00000000      -0.00312839      -0.01048300      -0.00634571
C        6.18141938       6.34709557       4.01723715       0.00000000       0.00201501       0.00198019       0.00624408
C        4.97216245       8.51465608       4.00882402       0.00000000       0.00142354       0.00272536      -0.00130257
C        0.06993810       1.41184527       3.68804654       0.00000000       0.00016681      -0.00704682       0.00154010
C       -1.24292264       3.51497208       3.34141025       0.00000000       0.00105903       0.00270451       0.00245615
C       -2.47852930       5.67010288       3.51506485       0.00000000      -0.00191571       0.00534854       0.00070905
C       -3.67567099       7.79432689       3.82630366       0.00000000      -0.00164518       0.00444114      -0.00014970
C       -4.89002250       9.93727470       3.94277762       0.00000000       0.00525425      -0.00219491      -0.00790463
C        2.54414266       1.40052614       3.91616787       0.00000000       0.00353889       0.00661949       0.00709701
S        1.47853262       3.63169266       2.91191111       0.00000000      -0.00109545      -0.01014222      -0.00581549
C       -0.14456845       5.66431766       2.90018400       0.00000000       0.00663571       0.00740431      -0.01108173
C       -1.21088024       7.80713564       3.52859398       0.00000000       0.00438721      -0.01036278      -0.00219004
C       -2.42176242       9.92695402       3.89663171       0.00000000       0.00391177      -0.00043487       0.00209767
C        4.99611943       1.37258540       3.98724428       0.00000000       0.00684144       0.00115522      -0.00513019
O        3.85558547       3.42557375       4.25643709       0.00000000       0.00058979      -0.00652204       0.01452411
C        1.29016063       7.87568126       3.49949504       0.00000000      -0.00399085      -0.00124143       0.01138326
C        0.04530717       9.92662748       3.80528503       0.00000000      -0.00193713       0.00510610      -0.01005743
C        7.45600777       1.38938572       3.88743991       0.00000000      -0.00416561       0.00617896      -0.00179309
C        6.22847481       3.49266096       3.99881688       0.00000000      -0.00968454       0.00036733      -0.00667900
C        4.96765683       5.58445859       4.11863869       0.00000000       0.00238369       0.00326720       0.00363639
C        3.72409352       7.82998183       4.00148343       0.00000000       0.00410375      -0.00162608      -0.00428140
C        2.51626710       9.96596839       3.86092613       0.00000000      -0.00072946       0.00500900       0.00305871
C        9.93607887       1.40747814       3.75815450       0.00000000      -0.00004448      -0.00095102       0.00330485
C        8.66743167       3.52769655       3.74786538       0.00000000       0.00319608      -0.00493594       0.00391598
C        7.42203291       5.65200195       3.89614588       0.00000000      -0.00247549      -0.00605525      -0.00975284
C        6.19187660       7.78000206       4.00811429       0.00000000      -0.00139786       0.00360496      -0.00031208
C        4.98810600       9.95390485       3.92493495       0.00000000       0.00236240      -0.00050043      -0.00089775
Cr       1.97091617       5.29304295       4.79838545       0.00000000      -0.00482462      -0.00665814       0.01218702
O        0.41363425       4.69514180       5.89217265       1.00000000      -0.00668807      -0.00092489      -0.00032045
O        0.42235723       6.02293243       5.79744018       1.00000000      -0.00178303      -0.00567269      -0.00857468
