51
Lattice="12.336457 0.0 0.0 -6.168228499999997 10.683685154694365 0.0 0.0 0.0 15.0" Properties=species:S:1:pos:R:3:initial_magmoms:R:1:forces:R:3 energy=-448.4857410745975 free_energy=-448.4857410745975 stress="-0.009030398812627316 -0.0004132754203229196 -1.3067236405597415e-05 -0.0004132754203229196 -0.006081767821165488 7.879513359427837e-06 -1.3067236405597415e-05 7.879513359427837e-06 -1.2531022138332584e-05" pbc="T T T"
C       -0.01356762       0.02664790       3.83338478       0.00000000      -0.00339229      -0.00139876      -0.00243484
C       -1.26017558       2.14556686       3.83386567       0.00000000       0.00225832      -0.00134307      -0.00505286
C       -2.48894162       4.29015639       3.81780359       0.00000000      -0.00172787       0.00389180      -0.00778329
C       -3.70611321       6.43140339       3.79127863       0.00000000      -0.00713086       0.00164377       0.00521478
C       -4.94437294       8.57196500       3.82236708       0.00000000       0.00193926       0.01414132       0.00777265
C        2.45088045       0.01906161       3.75871682       0.00000000       0.01419335       0.00259797      -0.00982691
C        1.21107674       2.16926106       3.73319906       0.00000000       0.00271062      -0.00126345       0.00472042
C       -0.04597233       4.27730357       3.89394037       0.00000000      -0.00437304       0.00276863       0.00258585
C       -1.26595912       6.43974064       3.91052068       0.00000000       0.00301119       0.00075003      -0.00351002
C       -2.48713733       8.57350092       3.84291252       0.00000000       0.00639656      -0.01358991       0.00128395
C        4.92375493       0.01050484       3.69399610       0.00000000      -0.00283681       0.00665490      -0.00801198
C        3.67995803       2.08798918       3.33398874       0.00000000       0.00307512       0.00456087       0.00124699
C        1.17775048       6.42317371       4.03911606       0.00000000       0.00604052      -0.00324113       0.01011280
C       -0.02140646       8.56008810       3.89541729       0.00000000       0.00394378       0.00338074       0.00467875
C        7.38381540       0.01572851       3.77000088       0.00000000      -0.00715385      -0.00766220       0.00802796
C        6.16874539       2.13777903       3.47609607       0.00000000       0.00205050       0.00217000      -0.00131428
C        5.02015885       4.30606489       3.24795070       0.00000000      -0.00037052      -0.00179688      -0.00837002
B        3.71139134       6.43705694       3.80588227       0.00000000      -0.00226688       0.00270573      -0.01749550
C        2.44289837       8.57704626       3.91332849       0.00000000      -0.00387655       0.00152398       0.00293493
C        9.85072404       0.01845434       3.84440510       0.00000000      -0.00523963       0.00548538      -0.00910869
C        8.61928580       2.14837078       3.72688140       0.00000000      -0.00898579      -0.00331316       0.00528714
C        7.41549395       4.28961656       3.60538681       0.00000000      -0.00105521      -0.00305775      -0.00231061
C        6.19089937       6.44059987       3.67402256       0.00000000       0.00321745      -0.00337662      -0.00109616
C        4.93676148       8.58319018       3.83937777       0.00000000      -0.00124942      -0.00110717       0.00431412
C       -0.02227435       1.44617362       3.81262876       0.00000000       0.00182424      -0.00613310       0.00546943
C       -1.27290941       3.56718804       3.85278933       0.00000000      -0.00105322       0.00057249      -0.01236620
C       -2.48438649       5.71660707       3.84148828       0.00000000      -0.00351670       0.00672324       0.00239966
C       -3.71255677       7.85801935       3.82501750       0.00000000      -0.00295236       0.00055571       0.00514692
C       -4.94755741       9.99443391       3.82429456       0.00000000       0.00744031       0.01320830       0.00373928
C        2.44903677       1.43370030       3.61818363       0.00000000       0.00624123       0.00347058      -0.00254657
C        1.15860786       3.56606921       3.80686274       0.00000000      -0.00570430      -0.00147282       0.01344013
C       -0.03750419       5.72790459       3.96197540       0.00000000       0.00044070       0.00043071      -0.00101879
C       -1.25713377       7.86110592       3.89224143       0.00000000       0.01107691      -0.00270423      -0.00108941
C       -2.48201455       9.99238851       3.77329346       0.00000000       0.00864673      -0.01076727      -0.00840701
C        4.92969030       1.42423087       3.48189450       0.00000000       0.00160964       0.01078391      -0.00291241
P        3.58742520       3.62528512       2.48042854       0.00000000       0.00174549      -0.01063625      -0.00440244
C        1.21764316       7.82630586       3.95831561       0.00000000       0.00029966       0.00014575       0.00982007
C       -0.01596147       9.98148076       3.79001069       0.00000000      -0.00852501       0.00311465       0.00577158
C        7.38788441       1.43497993       3.65642176       0.00000000      -0.00548880      -0.01064392       0.00442649
C        6.20451686       3.56016128       3.40223411       0.00000000       0.00044509       0.00075318      -0.00517493
C        4.99646821       5.70724063       3.53628209       0.00000000       0.00122951      -0.00601290       0.00431519
C        3.68932259       7.90753590       3.86607331       0.00000000      -0.00381541       0.00062089       0.00122699
C        2.44382517       9.99608780       3.85594935       0.00000000      -0.00291096       0.00041161      -0.00598896
C        9.84505832       1.43615435       3.81027632       0.00000000      -0.00414620       0.00693528       0.00433073
C        8.62685817       3.57486412       3.71992350       0.00000000      -0.00190682      -0.00165289      -0.00394726
C        7.41578418       5.71654886       3.68415690       0.00000000      -0.00268276      -0.00485714       0.00007391
C        6.16534359       7.86055979       3.79356224       0.00000000       0.00416258       0.00334619      -0.00459919
C        4.92541086      10.00214846       3.85444529       0.00000000      -0.00761124       0.00101715      -0.00139718
Cr       2.54782333       4.94154667       4.36723456       0.00000000      -0.00751300       0.00695683       0.01050349
O        2.26074341       4.76108354       6.29184976       1.00000000       0.01366618      -0.00141509      -0.00169827
O        3.28021866       3.98083439       5.90503345       1.00000000      -0.00017939      -0.01387590       0.00301951
