50
Lattice="12.336457 0.0 0.0 -6.168228499999997 10.683685154694365 0.0 0.0 0.0 15.0" Properties=species:S:1:pos:R:3:forces:R:3 energy=-450.06615480230886 free_energy=-450.06615480230886 stress="-0.005182181299882927 -0.0024180743302005888 -8.490745119800575e-06 -0.0024180743302005888 -0.002399047892119017 1.11198199117493e-06 -8.490745119800575e-06 1.11198199117493e-06 2.963323783786158e-06" pbc="T T T"
C       -0.00283504      -0.00632636       3.56755560       0.00729026      -0.00196317      -0.00302935
C       -1.26089225       2.11205497       3.53750132      -0.00082435      -0.00009946       0.00717004
C       -2.50036772       4.25960366       3.53816911      -0.00623266       0.00428878      -0.00406034
C       -3.70598250       6.40864330       3.56881660       0.00155274       0.00376462       0.00153021
C       -4.92300168       8.55196116       3.58466838       0.00357550      -0.00081164       0.00192473
C        2.47255575       0.00632762       3.64233035      -0.00529783      -0.00197509       0.00282336
C        1.21569281       2.12385960       3.67729682       0.01626766      -0.00323340       0.00083078
C       -0.05967564       4.23677051       3.70656076       0.00319022       0.00484702       0.01458279
C       -1.25171794       6.39872678       3.67666823       0.00009626       0.00642726       0.00980159
C       -2.45719270       8.54560798       3.64506055      -0.00673107      -0.00140637      -0.00695905
C        4.93746187      -0.00015904       3.71420058      -0.01368312      -0.00818956      -0.00717539
C        3.69511936       2.14981989       3.80116361       0.00233027       0.00709232      -0.00587861
B        2.40312286       4.27782051       4.15432828      -0.00477306       0.00563905      -0.00169727
B        1.20692927       6.34909357       4.15121797       0.00266083       0.00414297       0.00632679
C        0.01083521       8.53272051       3.80223794      -0.00045553      -0.00107622      -0.00721576
C        7.40058224      -0.01064951       3.70563082       0.00647591       0.00026297      -0.00193067
C        6.15955262       2.13891230       3.70334117       0.00053587       0.00016340       0.00419382
C        4.93517579       4.30177066       3.88466703      -0.00103582      -0.00401361      -0.00603799
N        3.84553609       6.49204211       4.21636685      -0.00749721      -0.00101324      -0.00375548
C        2.49398238       8.53094744       3.88373364      -0.00555629      -0.00045304       0.00465433
C        9.86226805      -0.01617916       3.61840590       0.00379796       0.00008243      -0.00194280
C        8.61704906       2.12470984       3.57382042      -0.00341452      -0.00246506       0.00003342
C        7.38562588       4.27355891       3.61697665       0.00729425      -0.00132309      -0.00243392
C        6.17663814       6.42549639       3.68794305      -0.00280228      -0.00421174       0.00519060
C        4.95355423       8.54403948       3.68728397      -0.00587162      -0.00080846      -0.00113107
C       -0.01778797       1.40832279       3.57083247       0.00985935      -0.00096389       0.00434335
C       -1.28133063       3.53157213       3.55381349      -0.00321615       0.00567794       0.00784106
C       -2.48816825       5.68833564       3.57064112      -0.00139917       0.00405348       0.00848314
C       -3.69164903       7.83584304       3.59066431       0.00155568       0.00010434      -0.00836761
C       -4.92772410       9.97628612       3.58724900       0.00249559      -0.00405757       0.00476679
C        2.46404266       1.43134953       3.71582473       0.01189362      -0.00330033      -0.00556252
C        1.16261675       3.52986349       3.79749848       0.00376704      -0.00237662       0.01617726
C       -0.06160530       5.64863746       3.79899281       0.00588845       0.00912903      -0.00076642
C       -1.22686273       7.82604525       3.71611538      -0.00421537       0.00522583       0.00075231
C       -2.46202055       9.97254553       3.66791183      -0.01720988      -0.00650084       0.00664283
C        4.93105490       1.42613878       3.74096644      -0.00441206      -0.00192962      -0.01193307
C        3.71524811       3.57459169       3.94723609      -0.00614762       0.01024367       0.00123853
C        1.25475237       7.83755927       3.94845478      -0.00099471      -0.00655943      -0.01151571
C        0.00126677       9.96490939       3.74173371      -0.00077410       0.00065127      -0.00661118
C        7.38968964       1.41610874       3.64891762       0.00139971      -0.00035663       0.00563239
C        6.15767337       3.57118732       3.72015721       0.00609424      -0.00084344      -0.00142756
C        4.96426970       5.74189841       3.91787442      -0.00674680      -0.00586788       0.00145601
C        3.75545517       7.83560710       3.91593905      -0.00925220       0.00174013       0.00768451
C        2.47190228       9.95545680       3.72253633       0.00509921      -0.00205870      -0.00979065
C        9.84766383       1.40471166       3.55396647      -0.00421586      -0.00073221      -0.00691428
C        8.60900756       3.55042757       3.55188323      -0.00060793      -0.00392405       0.00547019
C        7.39595410       5.69918968       3.60524327       0.00338622       0.00034462      -0.00969323
C        6.18341314       7.84171364       3.63848459      -0.00162476       0.00045152       0.00051009
C        4.93375147       9.96317852       3.60412638       0.00332362       0.00149830      -0.00290943
Cr       2.62764978       5.79205327       5.53765045       0.01516151      -0.00331662      -0.00132155
