50
Lattice="12.336457 0.0 0.0 -6.168228499999997 10.683685154694365 0.0 0.0 0.0 15.0" Properties=species:S:1:pos:R:3:forces:R:3 energy=-444.01678668635134 free_energy=-444.01678668635134 stress="-0.007940246307064917 -0.001257484282202656 2.5853328220227156e-06 -0.001257484282202656 -0.006848927840456451 -7.944704269449164e-06 2.5853328220227156e-06 -7.944704269449164e-06 1.0847944258011818e-05" pbc="T T T"
C       -0.00873958       0.01676414       3.82916406      -0.00944750      -0.00019785       0.00658335
C       -1.25614533       2.13871421       3.77544012       0.00236411      -0.00417368       0.00308424
C       -2.48066685       4.28053699       3.79331986       0.00560286       0.00677323       0.00133558
C       -3.69826571       6.41956825       3.84676548      -0.00175706      -0.00349844      -0.00270964
C       -4.93678306       8.56125417       3.88259633      -0.00059218       0.00139831      -0.00823176
C        2.45637890      -0.00421945       3.74944210       0.00689786       0.00796065       0.00284332
C        1.20906866       2.14279101       3.62196882      -0.00320250      -0.00082069       0.00447048
C       -0.03103901       4.26676320       3.75673503       0.00133943      -0.00362540       0.00486073
C       -1.24775224       6.42358206       3.88386925       0.00494473       0.00445234       0.00446483
C       -2.47598609       8.55581843       3.87110886       0.00561733      -0.01168098      -0.00190656
C        4.92883263      -0.00460833       3.71838003       0.00510530       0.00246703       0.00627380
C        3.68076606       2.05864325       3.33961827       0.00010603       0.00865587      -0.00683139
C        1.20991185       6.39940987       3.99446209      -0.00374613       0.00208656      -0.00159203
C       -0.00866500       8.54436215       3.91736967       0.00155722       0.00152594      -0.00101706
C        7.38465180       0.01125256       3.81490394      -0.00250129      -0.01027127      -0.00230656
C        6.16470927       2.13400527       3.55139630      -0.00487290       0.00004140       0.00155766
C        5.00789621       4.31387820       3.39607136      -0.00433724       0.00091113       0.00032102
B        3.70455550       6.44716325       3.86783052       0.01082002       0.00680658       0.00144263
C        2.44706630       8.57834073       3.95675261      -0.00226666       0.00783133      -0.00062553
C        9.85370475       0.01589210       3.87018788      -0.00218012       0.00000494      -0.00675797
C        8.61886587       2.14396976       3.75269746      -0.00405660      -0.00717919       0.00547919
C        7.41088383       4.28312958       3.68944505      -0.00225647      -0.00114800      -0.00050351
C        6.19371095       6.43624715       3.78982235       0.00040121      -0.00558657      -0.00328312
C        4.94353053       8.58230341       3.90571906       0.00290683      -0.00044261       0.00021653
C       -0.02147938       1.43214597       3.74990562      -0.00165625      -0.00323619       0.00606810
C       -1.26401032       3.55871430       3.76665664       0.00266804      -0.00329942       0.00637422
C       -2.47193836       5.70579644       3.84036185       0.00516398       0.00928995      -0.00218647
C       -3.70387807       7.84489688       3.87990440      -0.00089626      -0.00606228      -0.01326770
C       -4.94266368       9.98054617       3.83894696      -0.00160901       0.00797826       0.00181408
C        2.44850909       1.40282040       3.57399624       0.00091683       0.01234527       0.00234112
C        1.15819258       3.54211688       3.60466850      -0.00111511      -0.00402760       0.00067295
C       -0.01018405       5.71372434       3.88235112       0.00003210      -0.00192827      -0.00158147
C       -1.24325593       7.84314203       3.90137761       0.00732127      -0.00192388       0.00274831
C       -2.47467328       9.97336545       3.78667370       0.00931843      -0.00550356       0.00735013
C        4.93065078       1.41031450       3.52078723      -0.00328862       0.00583997       0.00236346
P        3.55561351       3.67413657       2.62038570       0.00423531      -0.00066606       0.00050179
C        1.23236237       7.81204067       3.97292751      -0.00199633       0.00592597       0.00019833
C       -0.00974766       9.96857283       3.82700962       0.00067627      -0.00436945      -0.00638017
C        7.38554195       1.43133387       3.70833286      -0.00737888      -0.01144938       0.00468931
C        6.19409872       3.55757709       3.51858304      -0.00598426       0.00125503       0.00498945
C        4.99068893       5.71254861       3.66140719      -0.00103160       0.00226608      -0.01566571
C        3.69409238       7.91415616       3.92687730      -0.00008168       0.00931074      -0.00423171
C        2.44616929       9.99477564       3.89821714       0.00020567       0.00314871      -0.00020849
C        9.84746310       1.43222048       3.80831161       0.00123488      -0.00302477      -0.00449327
C        8.62802325       3.56902002       3.74700836       0.00179382       0.00035592       0.00382013
C        7.41653045       5.70918096       3.77720578      -0.00196691      -0.00416487       0.00155882
C        6.17173270       7.85597143       3.87652565       0.00197229      -0.00642665       0.01005442
C        4.92978530       9.99824362       3.88650844      -0.00687287      -0.00160121      -0.00045540
Cr       2.54780386       4.86286761       4.28507997      -0.00621735      -0.01539778      -0.00724687
O        2.87815240       4.43607088       5.80008511      -0.00189000       0.01307488      -0.00699560
