50
Lattice="12.336457 0.0 0.0 -6.168228499999997 10.683685154694365 0.0 0.0 0.0 15.0" Properties=species:S:1:pos:R:3:forces:R:3 energy=-439.90576442635444 free_energy=-439.90576442635444 stress="-0.005831870714075984 -0.0017718282645982923 -5.769095758525595e-06 -0.0017718282645982923 0.001670665872777395 -8.890385521821916e-06 -5.769095758525595e-06 -8.890385521821916e-06 -8.080643474656411e-06" pbc="T T T"
C       -0.01362125       0.00432172       3.86510252       0.00397507       0.00128164      -0.00324927
C       -1.26800478       2.12751016       3.89576130      -0.00928717      -0.01148543      -0.00192405
C       -2.48495825       4.27613114       3.88147461      -0.00333725      -0.00175966      -0.00103626
C       -3.69078263       6.42107492       3.83089547       0.00234873       0.00083771      -0.00010871
C       -4.92630648       8.57159707       3.83931799       0.00880931      -0.00786635      -0.00004639
C        2.44999219       0.03629467       3.84334901      -0.00337704      -0.00213769      -0.00091974
C        1.17718063       2.13134598       3.83128814       0.00156272       0.00135271      -0.00325828
C       -0.08334103       4.27567015       3.98554876      -0.00037208       0.00499431       0.00700349
C       -1.24868743       6.41085148       3.96829590      -0.00839874      -0.00205134       0.00205446
C       -2.46622394       8.56099581       3.90114050       0.00673561       0.00385424      -0.00336402
C        4.92434583       0.00975574       3.75537389       0.00039402      -0.00322262      -0.00495367
C        3.66991035       2.11232560       3.41678683       0.00741739      -0.00745956      -0.00181787
O        1.15054080       6.41223804       4.00569690       0.00103734       0.00435256       0.01304830
C       -0.00713998       8.53142691       3.89430566       0.00147950      -0.00470132       0.00292557
C        7.38998443      -0.02160953       3.77013988      -0.00399463       0.01039789      -0.00163758
C        6.16532369       2.13350563       3.53907003      -0.00056296       0.00100954      -0.00369753
C        5.03983817       4.32995150       3.23431664      -0.00666508       0.00421464       0.00040088
C        3.79397599       6.42729202       3.50121120      -0.00661180      -0.00203375      -0.00184192
C        2.43546292       8.49131888       3.80408288       0.00486178       0.00451942       0.00471214
C        9.84579744      -0.02529314       3.82179673      -0.00688153      -0.00641649      -0.00089324
C        8.61642069       2.12598164       3.76705345       0.00251075       0.00381983       0.00324802
C        7.41978527       4.27946309       3.63997198      -0.01131173      -0.00299055      -0.00366597
C        6.22946658       6.44914333       3.60163620       0.00181499       0.00031694      -0.00042297
C        4.93446653       8.54187878       3.75087361       0.00188030       0.00787233      -0.00353002
C       -0.02411208       1.43434590       3.88257102       0.00117821       0.00130219       0.00051132
C       -1.27082848       3.55155970       3.93462481       0.00116067      -0.00456078       0.00378997
C       -2.47266373       5.69388874       3.90363594      -0.00578656      -0.00176366      -0.00283028
C       -3.69944002       7.85107592       3.86783257       0.01202676      -0.00043661       0.00330093
C       -4.94001563       9.99809675       3.87170947       0.00182939      -0.00937063       0.00258908
C        2.42727301       1.46800088       3.72547030       0.00200492       0.00006436      -0.00014388
O        1.11815494       3.53724478       3.94836974       0.01350111       0.00842140      -0.00341440
C       -0.06839091       5.67928602       4.00894331      -0.00578928       0.00187625       0.00411966
C       -1.24715876       7.83924822       3.93398169      -0.00250806      -0.00296360      -0.00098945
C       -2.48034794       9.99638758       3.84434532      -0.00102681       0.00141980      -0.00470560
C        4.91546142       1.43319515       3.55886317       0.00475697      -0.00497839       0.00034385
P        3.59885171       3.63956685       2.51582230       0.00009029      -0.00951469       0.00571266
C        1.19966717       7.83150972       3.89435188       0.00082629       0.00474771       0.00467859
C       -0.00998388       9.96586763       3.80712880      -0.00072195      -0.00252171      -0.00266106
C        7.38521403       1.41454559       3.69283600       0.00289872       0.01012750      -0.00239404
C        6.20154414       3.56269382       3.45218188      -0.01289916      -0.00201800      -0.00385559
C        5.01779086       5.75426083       3.40398664      -0.00050030       0.00149381      -0.00079993
C        3.70440715       7.79420164       3.68393277       0.00306363       0.00083303       0.00040291
C        2.44437679       9.93063316       3.80342869      -0.00844908       0.00461920       0.00132773
C        9.85018571       1.40984718       3.83907192      -0.00686233      -0.01198107       0.00142761
C        8.62569054       3.55699181       3.76998081      -0.00486815       0.00371640      -0.00293253
C        7.43154889       5.70996960       3.68599532       0.00157926      -0.00023745       0.00396870
C        6.18824622       7.85929135       3.73941956       0.00563803       0.00278651      -0.00561428
C        4.92227063       9.96087374       3.82787027       0.00181766       0.00783723      -0.00571024
Cr       2.55949641       5.04923311       4.17628332       0.01290075       0.00222556      -0.00049733
O        2.85251075       4.65825408       5.71731604       0.00011152       0.00217665       0.00735022
