52
Lattice="12.336457 0.0 0.0 -6.168228499999997 10.683685154694365 0.0 0.0 0.0 15.0" Properties=species:S:1:pos:R:3:forces:R:3 energy=-443.76474261622263 free_energy=-443.76474261622263 stress="-0.005266947927821878 0.0005834468811224451 -2.812330065038704e-06 0.0005834468811224451 -0.0033970556226326685 1.8746243613669544e-05 -2.812330065038704e-06 1.8746243613669544e-05 -6.201493754815264e-06" pbc="T T T"
C        0.02674301       0.02462635       3.96676565      -0.00403208      -0.00099261       0.00888210
C       -1.20817526       2.16215483       3.96718921       0.00087874      -0.00642845      -0.00031697
C       -2.45560408       4.30071929       4.22163936       0.00146111       0.00014134       0.00505349
C       -3.68641291       6.44093827       4.22612336       0.00262952      -0.00112622      -0.00355047
C       -4.92051929       8.57127756       4.05654327      -0.00148995       0.00295034       0.00675004
C        2.49182593       0.02302957       3.92263676      -0.00701460       0.00169437       0.00377380
C        1.24093179       2.08344086       3.47665258       0.00005174      -0.00277381      -0.00435406
C       -0.09215278       4.34907809       3.75788909      -0.00022347       0.00935952       0.00887330
C       -1.24913151       6.45769343       4.23643299       0.00197420      -0.00613526       0.00205643
C       -2.45799412       8.58601711       4.20567444       0.00432212      -0.00530989       0.00265981
C        4.96069756       0.01878963       3.99383298       0.00097411       0.00314537      -0.00080430
C        3.75826414       2.05476169       3.35935918      -0.00108843       0.00537591      -0.00490947
C        1.19742319       6.43947170       3.91045448      -0.00498570       0.00365344       0.00003441
C        0.01755364       8.56562723       4.11972491      -0.00328932      -0.00730703       0.00125701
C        7.42855021       0.01251822       4.06252537       0.00273026       0.00506410       0.00402251
C        6.21245772       2.14222819       3.81166600      -0.00312829       0.00616706       0.00373851
C        5.18590398       4.30346580       3.20362028       0.00065349      -0.00067571       0.00389021
S        3.77723194       6.51545678       2.52236900       0.00633949      -0.00600546      -0.00701747
C        2.49493973       8.56386348       3.84842570       0.00151039      -0.00565796       0.01442659
C        9.89630778       0.01766448       4.03519289       0.00030275       0.00212275      -0.00446510
C        8.66439169       2.15511848       4.11714626      -0.00249776       0.00495148       0.00177891
C        7.44659095       4.29289004       4.02729122       0.00164645      -0.00308275       0.00289988
C        6.24557213       6.44572949       3.75424135      -0.00123606       0.00062784       0.00845486
C        4.96628846       8.57490150       3.80480919       0.00206662       0.00838176      -0.00235464
C        0.02605090       1.45208037       3.83064816       0.00159389      -0.00628751      -0.00050686
C       -1.23333947       3.58489115       4.03205936       0.00093488      -0.00002956      -0.00367770
C       -2.46037735       5.72717550       4.27436177       0.00273279      -0.00219109      -0.00466400
C       -3.68675511       7.86641378       4.19038806       0.00172715       0.00084139      -0.00614759
C       -4.91069217      10.00021194       4.00459241      -0.00762058       0.00039315      -0.00387769
C        2.49600013       1.42219720       3.57334212      -0.00072084       0.00408039       0.00411334
S        1.07534488       3.63536145       2.67577089       0.00134910       0.00087141       0.00698956
C       -0.02216932       5.75416563       4.00240828       0.00077561       0.00437664       0.00967125
C       -1.22508369       7.87592539       4.22782785       0.00122818      -0.01128195       0.00117123
C       -2.44705092      10.00284534       4.06146943      -0.00200144      -0.00183152      -0.00407409
C        4.97234197       1.43006218       3.73151566      -0.00016095       0.00698187      -0.00281216
S        3.88311351       3.48802185       2.36687136      -0.00882719      -0.01181331      -0.00223065
C        1.25117698       7.82659072       3.95835713      -0.00393233      -0.00082203       0.00707444
C        0.02526483       9.98713516       4.07994783       0.00246699      -0.00341535      -0.00001553
C        7.42570416       1.44020690       4.03239777      -0.00094089       0.00836176      -0.00911902
C        6.26300926       3.56056230       3.71045663       0.00215622       0.00270398      -0.00264640
C        5.15785404       5.70396126       3.25671139       0.00345460      -0.00136513      -0.00511233
C        3.72797615       7.93665216       3.53580524       0.00305318       0.00434840      -0.00204836
C        2.49542212       9.98556420       4.02142501       0.00153891      -0.00029624      -0.00061110
C        9.90525379       1.44893534       4.08252904      -0.00436748       0.00034472      -0.00960496
C        8.66259931       3.57800129       4.17577166       0.00124479       0.00172744      -0.00175670
C        7.44088431       5.72043727       4.04632264       0.00404358      -0.00385731      -0.01118185
C        6.20025568       7.86362399       3.86125616       0.00153992       0.00376513      -0.00177259
C        4.95948685       9.99559587       3.97930627      -0.00036388       0.00569449      -0.00742696
Cr       2.58743371       4.98247031       3.72610485      -0.00185036       0.00442317      -0.00654765
O        3.21269726       4.35887488       5.43693514       0.00287833       0.01106486       0.00202079
O        1.96297538       4.08085959       6.16294199       0.00167275      -0.01281301       0.00907520
H        2.01481977       4.77753030       6.84788545      -0.00216027      -0.01211489      -0.00506100
