52
Lattice="12.336457 0.0 0.0 -6.168228499999997 10.683685154694365 0.0 0.0 0.0 15.0" Properties=species:S:1:pos:R:3:forces:R:3 energy=-451.1098620896021 free_energy=-451.1098620896021 stress="-0.007707439428989704 0.0013426708724038363 1.8826352770519781e-06 0.0013426708724038363 -0.0008320229804870371 -1.8492629841643015e-05 1.8826352770519781e-06 -1.8492629841643015e-05 -1.6644444094713506e-05" pbc="T T T"
C        0.04603254       0.04079585       3.79508741      -0.00498251      -0.00776359      -0.00373490
C       -1.18793869       2.17012451       3.59283779       0.00002857       0.00746827       0.00958923
C       -2.44353585       4.31587924       3.73052312       0.00279672      -0.00017240      -0.00903366
C       -3.67241668       6.45695778       3.90624985       0.00493554      -0.00529380      -0.00473681
C       -4.89659730       8.59530444       3.94477810       0.00190955      -0.00859906       0.00738534
C        2.51298795       0.05511160       3.86790240       0.00333245       0.00169251      -0.00210058
C        1.29498769       2.11748419       3.44306718       0.00150311      -0.00807982      -0.00813795
C       -0.06938320       4.36685205       3.30778510      -0.00699899      -0.00195414      -0.00086500
C       -1.25649146       6.48389165       3.70923722      -0.00467938      -0.00506246       0.00313703
C       -2.43854659       8.60716486       3.90587943      -0.00057227       0.01275933      -0.00427269
C        4.98705458       0.04309917       3.90104639       0.00405386       0.00015517      -0.00530650
C        3.76628084       2.21249000       3.85474757       0.00087137      -0.00407698       0.01400723
C        1.16981518       6.46060294       3.68304706       0.00951347      -0.00115043      -0.00732236
C        0.03501368       8.58452572       3.84551589      -0.00678418      -0.00170196      -0.00453668
C        7.46546296       0.01332481       3.87524362      -0.00363445      -0.00231247       0.01668997
C        6.24052146       2.16300068       3.91564242      -0.00993620      -0.00747399       0.00032586
C        5.01335347       4.31665666       3.98713879       0.00253575       0.00042787       0.00658786
O        3.84580751       6.46238491       3.91602907       0.00610029       0.01616282      -0.00893752
C        2.53999791       8.52826415       3.88655086       0.00436198       0.00945821      -0.01194961
C        9.92017844       0.01574273       3.82504377       0.00325533      -0.00707846      -0.00026790
C        8.69395715       2.16297002       3.82530340       0.00157047       0.00096772      -0.01539754
C        7.45935584       4.30954115       3.92528714       0.00235011       0.00219011       0.00638274
C        6.22623407       6.45831878       4.00496523      -0.00193566       0.00607433       0.00218289
C        4.98357394       8.57089349       3.93468159       0.00290989      -0.00132677       0.00625548
C        0.04623506       1.46260034       3.59995162      -0.00324327       0.00318147       0.00932297
C       -1.21708088       3.59945901       3.53395883      -0.00628240       0.00248014      -0.00984777
C       -2.45628166       5.74413684       3.78175188       0.00138205      -0.00748638      -0.00892885
C       -3.66466518       7.88567247       3.93015529       0.00563170      -0.00184472       0.00082911
C       -4.88869027      10.02510014       3.87848487      -0.00144249      -0.00611257      -0.00983725
C        2.51912886       1.47915407       3.74333254       0.00286337      -0.00166002       0.01111707
S        1.33954447       3.63939997       2.59376057       0.00461903      -0.00131829      -0.00514286
C       -0.03367632       5.77874809       3.53519152      -0.00473518      -0.00492353       0.00077266
C       -1.21383505       7.89692311       3.83159976      -0.01068762      -0.00132865      -0.00227414
C       -2.42355560      10.02600428       3.91308674       0.00646816       0.01224799       0.00246857
C        4.99983333       1.46498101       3.89800543      -0.00634173      -0.00459413       0.00440731
C        3.81913779       3.59029341       3.97402277      -0.00142988      -0.00392670       0.00831146
C        1.26670120       7.82733764       3.81588243       0.00414566       0.00549443      -0.01604482
C        0.05095224      10.00323455       3.88607782      -0.00255841      -0.00152951       0.00023315
C        7.47045390       1.44011557       3.88024319      -0.00498301      -0.00130748       0.00562066
C        6.25116063       3.58741434       3.94740173       0.00058478      -0.00614638       0.00489141
C        5.04592155       5.73987581       4.00385679       0.00142673       0.00706487       0.00419405
C        3.77844453       7.87064491       3.92833127       0.00625123       0.01123699       0.00834768
C        2.52975204       9.96739753       3.86858306       0.00135946       0.00298684       0.00400618
C        9.92902013       1.45427747       3.75166158       0.00402662      -0.00524400      -0.01167759
C        8.68535746       3.59152804       3.83612099       0.00507090       0.00395402       0.00122330
C        7.45176085       5.73239419       3.95819518      -0.00050094       0.00598400       0.00124825
C        6.22211305       7.88119253       3.97406979      -0.00171746       0.00088517      -0.00371125
C        4.98067701      10.00129823       3.85512715      -0.00065864      -0.01249525       0.00511458
Cr       2.45897863       5.02280515       4.24566306      -0.01024412      -0.00243218       0.00173903
O        2.49026811       5.35718087       6.08606616       0.00708436      -0.00307521       0.01337182
O        1.64603110       4.11855422       6.08272592      -0.01250690       0.01129108      -0.00328438
H        2.18876255       3.55842747       6.67221133       0.00391315       0.00330797      -0.00241427
