50
Lattice="12.336457 0.0 0.0 -6.168228499999997 10.683685154694365 0.0 0.0 0.0 15.0" Properties=species:S:1:pos:R:3:forces:R:3 energy=-446.5338567924659 free_energy=-446.5338567924659 stress="-0.008742959168123466 -0.0015409611600392381 1.324196457411958e-06 -0.0015409611600392381 -0.0037737283956876485 7.36223291026123e-06 1.324196457411958e-06 7.36223291026123e-06 5.1070775409061114e-08" pbc="T T T"
C       -0.01424860       0.00801858       3.85412718       0.00299118      -0.00151460      -0.00191944
C       -1.26477843       2.12542762       3.84237401       0.00459635      -0.00112271       0.00600837
C       -2.48821377       4.27148563       3.84510696       0.00541192       0.00010377      -0.00271055
C       -3.69848538       6.42042962       3.83456398       0.00060635      -0.00260419      -0.00290320
C       -4.92930896       8.56875617       3.85534666      -0.00349789      -0.00519773      -0.00235642
C        2.45716595       0.00821944       3.81806060      -0.00061471       0.00065272       0.00556336
C        1.20673464       2.15428760       3.73711920      -0.00358657       0.00059632       0.00503341
C       -0.03981395       4.25883696       3.86162901      -0.00303333       0.00325109       0.00109610
C       -1.26533575       6.42410973       3.93863031      -0.00321983      -0.00052645       0.00019887
C       -2.47826316       8.56219185       3.89630682       0.00202589      -0.00222808       0.01199384
C        4.92644936       0.00225862       3.76011661       0.00043482      -0.00122484      -0.00447197
C        3.67658368       2.07502399       3.41210491      -0.00553455       0.00491869       0.00003598
C        1.16660997       6.40864565       4.01341908      -0.01017704       0.00557113      -0.00273743
C       -0.01551642       8.54583804       3.92373240       0.00078196      -0.00310115      -0.00641645
C        7.38897679      -0.00866169       3.79907635       0.00438787      -0.00653861      -0.00016862
C        6.16401916       2.13316162       3.56097877      -0.00348428      -0.00395271       0.00117892
C        5.02002334       4.32968041       3.29972406       0.00188002       0.00329065      -0.00026035
C        3.77781425       6.43805067       3.55493833       0.00524532       0.00700051      -0.00681057
C        2.45934381       8.53089674       3.85862754       0.00179568       0.00018936      -0.00877942
C        9.85057825      -0.01167762       3.83510213       0.00452084       0.00349496       0.00122871
C        8.61666587       2.12989504       3.76681060       0.00035524       0.00357139       0.00139021
C        7.41148514       4.27999938       3.65879896      -0.00190356       0.00005695       0.00884854
C        6.21924337       6.45040433       3.64852064       0.00053847       0.00042038      -0.00566112
C        4.94153491       8.55526887       3.78861011      -0.00160645       0.00432957      -0.00450281
C       -0.02613231       1.42657411       3.82920698       0.00179546      -0.00270810      -0.00196934
C       -1.27329305       3.54698673       3.85653931       0.00392421      -0.00140949      -0.00271988
C       -2.48136413       5.70121036       3.87754869       0.00013456      -0.00209432       0.00653841
C       -3.70275261       7.84847745       3.87271829       0.00010769      -0.00276402       0.00304805
C       -4.94179847       9.98612021       3.86576282       0.00032771      -0.00406492      -0.00507929
C        2.44874158       1.41829461       3.67378440      -0.00445736       0.00191810      -0.00304907
C        1.15983580       3.55512050       3.72349632      -0.00966190      -0.00172297       0.00152668
C       -0.03601960       5.71033034       3.95286542      -0.00528296       0.00282821      -0.00006713
C       -1.25046620       7.84642073       3.93192407       0.00094981      -0.00295054       0.00797719
C       -2.47574095       9.98258046       3.83546267       0.00095720      -0.00085318       0.00117105
C        4.92831242       1.41780092       3.56510570      -0.00546846      -0.00034635      -0.00388174
P        3.53313985       3.66013565       2.63114828       0.00618822       0.00405524      -0.00287027
C        1.22229936       7.80598709       3.94496921       0.00072052       0.00224191       0.00047673
C       -0.01181429       9.96662040       3.83417498       0.00169137      -0.00409576      -0.00406602
C        7.38446614       1.41812578       3.71052626       0.00045410      -0.00399538       0.00243509
C        6.19051060       3.56248346       3.48554669      -0.00193171      -0.00183133       0.00070051
C        4.99852876       5.75790188       3.46378186       0.00132104       0.00394258      -0.00062198
C        3.70451524       7.82118183       3.73868036       0.00146578       0.00438095       0.00357560
C        2.45152098       9.95248982       3.83891002       0.00688393      -0.00232530       0.00559987
C        9.84201289       1.41074773       3.82555606       0.00250837       0.00391580       0.00352106
C        8.62239257       3.55975130       3.76484919       0.00279487       0.00459997      -0.00706558
C        7.42183948       5.70972901       3.71181160      -0.00060578      -0.00096705       0.00231098
C        6.18413119       7.86035421       3.77515451      -0.00542497      -0.00133661      -0.00425246
C        4.92412403       9.96981132       3.84308205       0.00262898       0.00375432      -0.00472922
Cr       2.58706742       4.96305188       4.20998875      -0.00270378      -0.00671822       0.01481142
O        2.96852069       4.62259121       5.73413274       0.00176943      -0.00088997      -0.00619858
