52
Lattice="12.336457 0.0 0.0 -6.168228499999997 10.683685154694365 0.0 0.0 0.0 15.0" Properties=species:S:1:pos:R:3:forces:R:3 energy=-456.6276653384194 free_energy=-456.6276653384194 stress="-0.005124040825296932 -3.4078925364625283e-06 8.63841139250777e-06 -3.4078925364625283e-06 0.004040567683191065 1.8513255879968516e-06 8.63841139250777e-06 1.8513255879968516e-06 -3.869932694988128e-06" pbc="T T T"
C        0.02331686       0.00318536       3.78958955      -0.00271473      -0.00222104       0.00867585
C       -1.22489427       2.11384540       3.77249055      -0.00398527      -0.00719134      -0.00774028
C       -2.45437153       4.25896376       3.68813744      -0.00354122       0.00005570      -0.00101359
C       -3.67874832       6.40721657       3.66503408       0.00040589       0.00145285      -0.00337843
C       -4.91154304       8.55552761       3.71760200       0.00596732      -0.00233004       0.00903927
C        2.49301889       0.03211844       3.80749245      -0.00144241       0.00046794       0.00230973
C        1.24788303       2.18132640       3.90948332       0.00630069       0.00455166      -0.00135573
C       -0.00722123       4.26451228       3.86313043      -0.00304504      -0.00649081       0.00399340
C       -1.23540313       6.41820394       3.73424428      -0.00427905      -0.00633040       0.00467054
C       -2.44973711       8.55859724       3.73248092      -0.00338375      -0.00511371       0.00510287
C        4.96460034      -0.00290432       3.76883768      -0.00140769      -0.00246123       0.00058085
C        3.74142208       2.18267223       3.84945084      -0.00034665       0.00266554       0.00570534
N        1.16190401       6.38707917       3.96713438       0.00953068      -0.00221138      -0.00198354
C        0.02511254       8.51271592       3.78011826       0.00265268       0.00239834       0.00243858
C        7.43804358      -0.04850763       3.74618964       0.00843329      -0.00155934       0.00596052
C        6.21134503       2.11321700       3.70589603       0.00414244      -0.00170897      -0.01230795
C        4.98553412       4.27468776       3.70956425      -0.00409213       0.00485904       0.00777075
O        3.81901467       6.40910130       3.63641841      -0.00891357       0.00517672      -0.00404600
C        2.50533245       8.44752452       3.80342246       0.00170986       0.00324944       0.00767094
C        9.88714116      -0.04699944       3.75673639      -0.01147501       0.00061330       0.00647528
C        8.66193654       2.10476789       3.69072348      -0.00388534       0.00594988       0.00649416
C        7.43721789       4.25848297       3.63456942       0.00475171       0.00343576      -0.00064745
C        6.20919620       6.41345699       3.64353596       0.00859103      -0.00287391      -0.00669322
C        4.96064792       8.52096327       3.74015264       0.00224605      -0.00075508      -0.00014065
C        0.01310350       1.42690709       3.82743220       0.00407564      -0.00013247       0.00089743
C       -1.23740064       3.53973559       3.75748145      -0.00599952      -0.00648435      -0.00163309
C       -2.45375383       5.68939626       3.68603068      -0.00736101      -0.00201359      -0.00276608
C       -3.67774450       7.83925498       3.70036050       0.00060261      -0.00329710      -0.00579977
C       -4.90518629       9.98862157       3.77600424      -0.00017153      -0.00142272       0.00226694
C        2.49409676       1.46336772       3.87814433       0.00267205       0.00239236      -0.00616519
C        1.18524783       3.58003966       3.99985024       0.00598668       0.00566153       0.00139232
C       -0.01538912       5.71865805       3.83835774       0.00286633      -0.00435611      -0.00693001
C       -1.22334275       7.83577034       3.74509846      -0.00155668      -0.00355833       0.00267412
C       -2.44595084       9.98702246       3.77141269      -0.00440424      -0.00377660       0.00178356
C        4.97466765       1.42060522       3.77079527      -0.00010946      -0.00038291      -0.00246440
C        3.79716330       3.57757276       3.89190270      -0.01226638       0.00519823       0.00479528
C        1.23332674       7.75145603       3.84498989       0.00602972       0.00111952      -0.00254602
C        0.02943571       9.94205773       3.76193353       0.00609968       0.00408284      -0.00719822
C        7.43930880       1.38315116       3.70581325       0.00479646      -0.00219235      -0.00067802
C        6.22250891       3.53870640       3.65766899       0.00189111       0.00310243      -0.00259233
C        5.02417391       5.69814967       3.65204552      -0.00002901       0.00510130      -0.00140618
C        3.75748183       7.81197513       3.75739191       0.00017938       0.00440976      -0.00057738
C        2.49639888       9.89554237       3.76529100      -0.00095348      -0.00229863       0.00808712
C        9.88501414       1.38693890       3.73570965      -0.01017568      -0.00092520      -0.00871384
C        8.66246286       3.53761853       3.65881469      -0.00052444       0.00449369       0.00325296
C        7.43750943       5.68590168       3.63983685       0.00941798       0.00037314      -0.00759618
C        6.20572846       7.83682521       3.69445693       0.00818616      -0.00183327      -0.00374103
C        4.95847678       9.95262424       3.76620478      -0.00918681       0.00130085      -0.00341822
Cr       2.51415427       5.00869660       4.45434288       0.00518006       0.00609984      -0.00159073
O        3.09514278       5.64351207       6.09419211      -0.00470794      -0.00240365       0.00371952
O        1.74676523       5.17400244       6.52654418       0.00366613      -0.00628231       0.00180330
H        2.00376297       4.48199265       7.16677619      -0.00642360       0.00439519      -0.00243712
