50
Lattice="12.336457 0.0 0.0 -6.168228499999997 10.683685154694365 0.0 0.0 0.0 15.0" Properties=species:S:1:pos:R:3:forces:R:3 energy=-444.6434329269319 free_energy=-444.6434329269319 stress="-0.004314436341572178 -0.00029648205554016387 -3.4626951042969837e-06 -0.00029648205554016387 0.004339343457104289 -2.5533144338410956e-06 -3.4626951042969837e-06 -2.5533144338410956e-06 -8.867327776410618e-06" pbc="T T T"
C        0.00088086       0.01219458       3.74496187      -0.00811170      -0.00068397       0.00529518
C       -1.25138474       2.12761324       3.72303850       0.00527479       0.00277964      -0.00817366
C       -2.48109978       4.27588982       3.68275823       0.00529499       0.00136540      -0.00451429
C       -3.70515215       6.42385736       3.67403199      -0.00461943       0.00122911       0.00929123
C       -4.93100708       8.57190048       3.71357269      -0.00049150       0.00545812      -0.00015505
C        2.46308025       0.06433069       3.72768543      -0.00173686       0.00206487      -0.00355848
C        1.19466853       2.15220040       3.75076078       0.00425982      -0.00699643      -0.00306634
C       -0.06509868       4.26331602       3.71016434      -0.00457113       0.00266784       0.00571642
C       -1.26907874       6.42038777       3.68746502       0.00547753       0.00217413      -0.00118245
C       -2.48121488       8.57373001       3.69957753      -0.00058839       0.00041078      -0.00343155
C        4.92510928       0.01642103       3.73006640       0.00467885      -0.00176298      -0.00062426
C        3.72828790       2.15954137       3.72898200       0.00621009      -0.00246516      -0.00247649
C        1.15296444       6.40230251       3.84688848       0.00607028      -0.00433427       0.00120491
C       -0.01534858       8.54282590       3.74748185      -0.00396461       0.00149616       0.01095402
C        7.40279823      -0.02432021       3.75122747       0.00708593      -0.00225700       0.00953871
C        6.17572011       2.13228259       3.72247582      -0.00045716       0.00388258      -0.01595885
C        4.99264332       4.28145973       3.72144087      -0.00458474      -0.00775172       0.00372930
N        3.79163224       6.40965608       3.90348810       0.00593837       0.00587714       0.00388690
C        2.47759073       8.49202949       3.82580657      -0.01189148      -0.00364231       0.00510048
C        9.86252859      -0.02638990       3.76242251       0.00525230       0.00724927       0.00215638
C        8.63166724       2.12559140       3.71566823      -0.00740704       0.00100263       0.00395217
C        7.40635594       4.27946554       3.69423529       0.00592989       0.00261269      -0.00051259
C        6.19008640       6.42447922       3.71773201      -0.00439058      -0.00503662      -0.00985215
C        4.94296318       8.53408569       3.77860106       0.00263886      -0.00247294      -0.00100098
C        0.00021103       1.44629606       3.74177042       0.00221981      -0.00412247      -0.00595002
C       -1.25360882       3.54850405       3.69562647      -0.00014657      -0.00008750       0.00709009
C       -2.48185590       5.70208854       3.67195948       0.00152341       0.00372916      -0.00949162
C       -3.70416562       7.85484204       3.68913741      -0.00172465       0.00203889       0.00040990
C       -4.92782679      10.01028756       3.72921036      -0.00719869       0.00659026       0.00047286
C        2.46260790       1.52149437       3.74140815       0.01034250       0.00031265       0.01665570
O        1.14231870       3.56056010       3.70018326      -0.01420442      -0.00553392       0.00888351
C       -0.03504943       5.68473975       3.73552316       0.00632730      -0.00078805      -0.00188856
C       -1.25365923       7.84689793       3.70578962      -0.00049580       0.00304805      -0.00354133
C       -2.48159758      10.01031514       3.71799120      -0.00001840       0.00015577       0.00225692
C        4.92317257       1.45196554       3.72938828       0.00572753      -0.00086278      -0.00013391
O        3.78723222       3.56885491       3.61326039      -0.01179211      -0.00371764       0.00561227
C        1.22118605       7.78441608       3.80900337      -0.01080053      -0.00642221      -0.00258466
C       -0.00804420       9.96618037       3.74287374       0.00652615      -0.00007842      -0.00149480
C        7.39582360       1.41010709       3.72870446      -0.00618338      -0.00227804       0.00055980
C        6.17918784       3.55709067       3.71234644       0.00435527       0.00324112      -0.00186582
C        4.97534692       5.70730850       3.76935748      -0.00269288      -0.00929021      -0.00896565
C        3.72884702       7.78056324       3.84340476      -0.00423729       0.00449760      -0.01059822
C        2.46828903       9.92549044       3.77952112       0.00683069      -0.00052468      -0.00030766
C        9.86614122       1.40866457       3.73224047       0.00021445       0.00967669      -0.00267770
C        8.63127537       3.55769935       3.69156232       0.00454624       0.00112149       0.01015634
C        7.40764692       5.70247380       3.68618522      -0.00467455       0.00014890      -0.00638578
C        6.17955832       7.84827204       3.73514183       0.00319212      -0.00366899      -0.00037591
C        4.93325969       9.96087922       3.76353997      -0.00181795      -0.00280976      -0.00249218
Cr       2.50357002       5.08313205       4.32443361       0.00067687       0.00012048      -0.01117810
O        2.51851629       4.71286232       5.89135725       0.00220780       0.00263666       0.01151599
