49
Lattice="12.336457 0.0 0.0 -6.168228499999997 10.683685154694365 0.0 0.0 0.0 15.0" Properties=species:S:1:pos:R:3:forces:R:3 energy=-429.70024561559507 free_energy=-429.70024561559507 stress="-0.005175884476604442 0.0005766393306255683 7.146052180017525e-06 0.0005766393306255683 -0.003790030007696016 2.3285951966882752e-05 7.146052180017525e-06 2.3285951966882752e-05 8.843365784755397e-07" pbc="T T T"
C       -0.00928951       0.00281595       3.74516550      -0.00960262       0.00101519       0.00269425
C       -1.23383069       2.15081960       3.78240448      -0.00589714       0.00081646      -0.00912602
C       -2.48288528       4.28265330       4.04194533       0.00386357      -0.00357917      -0.00592660
C       -3.71712317       6.41854341       4.01959210      -0.00468672       0.00989538      -0.00281592
C       -4.95860431       8.54486875       3.84377149      -0.00164147       0.00332190      -0.00531504
C        2.45448697      -0.01383320       3.78533966       0.00591365      -0.00444806      -0.00208236
C        1.22834667       2.08650629       3.39240520      -0.00483466       0.00361368       0.00833979
C       -0.09255691       4.34746023       3.78125945      -0.00214125      -0.00004838       0.00200143
C       -1.27738822       6.43735594       4.17404157      -0.01124428      -0.01059054      -0.00595899
C       -2.49314565       8.55655669       4.05761345       0.00617786       0.00054805       0.00520390
C        4.93159038      -0.01661461       3.88913668       0.00074339       0.00416287      -0.00066225
C        3.71430755       2.03263451       3.35902608      -0.00353722       0.01028989       0.01376077
C        1.21703937       6.38639045       4.09499779       0.00643315      -0.00447554       0.00997967
C       -0.00663193       8.53152738       4.08132235      -0.00772873       0.00060924       0.00266674
C        7.39792354      -0.01032507       3.94424992       0.00372053      -0.00338115       0.00233350
C        6.17664527       2.11971461       3.71434589       0.00196896      -0.01399189       0.00420804
C        5.10193154       4.28871131       3.24735139       0.00358046       0.00177242      -0.01738899
S        3.53304260       6.34311403       2.68166817       0.00038983       0.00420751       0.00061042
C        2.46220491       8.53629151       3.82383462       0.00273896       0.00277601      -0.00416424
C        9.86333211       0.00028515       3.83848729       0.00452706      -0.00032927      -0.00018756
C        8.63609899       2.13547028       3.92302235       0.00483707       0.00036330       0.00674751
C        7.41943061       4.27589370       3.85230958       0.00215927      -0.00025954      -0.00587693
C        6.20057033       6.42714259       3.57225096      -0.00183527       0.00226442       0.00453765
C        4.91877213       8.54762959       3.60610474       0.00798102      -0.00778972      -0.00115840
C       -0.00089073       1.44069306       3.64976127      -0.00905611       0.00293485      -0.00010033
C       -1.25138232       3.57183480       3.89785036      -0.00051375      -0.00269136      -0.00809725
C       -2.48847398       5.70777103       4.11401062      -0.01117721      -0.00479275       0.00084266
C       -3.72277033       7.84169755       3.99387993       0.00189838       0.01005295      -0.00323649
C       -4.95105032       9.97043015       3.80792180      -0.00319122       0.00233804      -0.01096762
C        2.45881546       1.39398526       3.50987012      -0.00206276       0.00019069       0.00066911
S        1.19547866       3.74909283       2.81951391       0.00155423       0.00570085       0.00008247
C       -0.02350612       5.74205101       4.07177342      -0.00525829      -0.00244636      -0.00247167
C       -1.25730542       7.85136930       4.14567380      -0.00481465      -0.00995821      -0.00504501
C       -2.48057274       9.97026565       3.92797809       0.00955859      -0.00017298       0.00552685
C        4.94033510       1.40167915       3.65969669      -0.00443952       0.00116585       0.00939291
S        3.72463494       3.54528548       2.54290385       0.00449448       0.01230813       0.00618722
C        1.23664888       7.77535596       4.00992200      -0.00010166      -0.00096472       0.00106759
C       -0.00219453       9.95374009       3.98924225      -0.00366551       0.00340256       0.00297784
C        7.39685214       1.41691190       3.88218139       0.00790572      -0.00806056       0.00939202
C        6.21923012       3.53918391       3.62763023       0.00106481      -0.01047400      -0.00647509
C        5.07947532       5.68489954       3.18835322       0.00097042       0.00783774      -0.01194773
C        3.66483901       7.89818690       3.45188030       0.00742561       0.00555354       0.00246715
C        2.46416560       9.96425962       3.90146932       0.00634819       0.00154863       0.00542379
C        9.87598634       1.43245461       3.87212500       0.00062669       0.00074158       0.00773852
C        8.63687565       3.55958794       3.97355533       0.00577651       0.00120311       0.00089403
C        7.41009781       5.70114357       3.83849340      -0.00286165       0.00562548      -0.00347775
C        6.15827726       7.84448150       3.65525801       0.00222739      -0.00443093       0.00763004
C        4.92246742       9.97468597       3.75342132      -0.00250628      -0.00723266      -0.01298175
Cr       2.68709280       4.83588997       4.41870791      -0.00208780      -0.00614254       0.00208813
