50
Lattice="12.336457 0.0 0.0 -6.168228499999997 10.683685154694365 0.0 0.0 0.0 15.0" Properties=species:S:1:pos:R:3:forces:R:3 energy=-442.24337373668016 free_energy=-442.24337373668016 stress="-0.004470388890658163 0.00018243543609490113 -3.039055729501026e-05 0.00018243543609490113 0.0004258048213218127 -5.547879526526252e-05 -3.039055729501026e-05 -5.547879526526252e-05 6.62187202902573e-05" pbc="T T T"
C        0.03595240       0.02968842       3.65773713       0.00055854      -0.00180374       0.00093646
C       -1.20260708       2.16128492       3.55248130       0.00126686      -0.00243872      -0.00002542
C       -2.46272991       4.29772268       3.67674193      -0.00087918       0.00029884      -0.00307383
C       -3.69121318       6.43914317       3.76626973      -0.00252750       0.00045514      -0.00547176
C       -4.90599186       8.57794624       3.76288893      -0.00154010      -0.00098847      -0.00384362
C        2.50427136       0.03380898       3.75616544      -0.00082044      -0.00866371      -0.00273454
C        1.28889945       2.09977392       3.38144624       0.00436293       0.00122364      -0.00077914
C       -0.04772608       4.35440155       3.47720169       0.00072202      -0.00263841      -0.00258543
C       -1.26410802       6.46562883       3.75876695      -0.00847168       0.00757715      -0.00334397
C       -2.44543780       8.58815369       3.83081384      -0.00167376      -0.00044556      -0.00739416
C        4.97639070       0.02514783       3.84304933      -0.00374355      -0.00079567      -0.00282766
C        3.74375562       2.20715320       3.81265136      -0.00285391      -0.00654830       0.00398510
C        1.17918046       6.40142689       4.00405434      -0.00296562       0.01354492      -0.00049091
C        0.03921865       8.55264045       3.88832155      -0.01035560       0.00461396      -0.00404292
C        7.44879196       0.00081634       3.82259097      -0.00126217      -0.00421247      -0.00094297
C        6.20932835       2.16094059       3.80859722      -0.01049317       0.00846969       0.00295504
C        4.93170993       4.31957170       3.84109234       0.00943356       0.02081062       0.00662882
O        3.83244906       6.48835988       3.66858032       0.02782624      -0.06759325      -0.00984921
C        2.53175248       8.51695131       3.85298945       0.01798200      -0.00878028       0.00546570
C        9.90309237       0.00627402       3.71861423      -0.00040477      -0.00671282       0.00475119
C        8.66803339       2.15123453       3.72020453      -0.00097361      -0.00014078       0.00048824
C        7.41715649       4.29579940       3.75587570      -0.01092276       0.00225393       0.00312973
C        6.19982602       6.44426168       3.76565423       0.00777922      -0.00671485      -0.00424514
C        4.97872308       8.57076373       3.74595841       0.00252513      -0.00432144       0.00608393
C        0.03529827       1.45162072       3.52387715      -0.00369142      -0.00085952      -0.00245926
C       -1.22784428       3.58428380       3.56266958       0.00073556      -0.00202009      -0.00366772
C       -2.46963052       5.72733867       3.72881281       0.00489998      -0.00233895      -0.00584230
C       -3.67429750       7.86776521       3.79221689      -0.00082604      -0.00168189      -0.00687207
C       -4.89835719      10.00742899       3.72553296      -0.00206732       0.00056305      -0.00231825
C        2.51074580       1.45777480       3.67564947       0.00180561       0.00615058       0.00141318
S        1.35130503       3.69455084       2.66971525       0.00893994       0.00377581       0.00295060
C       -0.02493839       5.76471081       3.73016147      -0.00236974       0.00043357      -0.00649423
C       -1.21677131       7.87667229       3.84201846       0.00901836      -0.00678532      -0.00743992
C       -2.43194957      10.00593699       3.83031931      -0.00262516       0.00028656      -0.00648905
C        4.97867642       1.45330445       3.82839260       0.00405089       0.00474718       0.00273196
C        3.74890018       3.59046702       3.96019161       0.00222799      -0.03244532       0.01911702
C        1.27818338       7.78343685       3.93292172      -0.00524808      -0.00989504      -0.00234529
C        0.04255259       9.97865003       3.86128804       0.00265259      -0.00319883      -0.00324929
C        7.44451648       1.43134741       3.78635816       0.00096164      -0.00057190      -0.00075519
C        6.19225754       3.59059350       3.79093845       0.00868823      -0.00532814       0.00583204
C        4.99277224       5.75401653       3.77971268      -0.07429886       0.04750438       0.02030923
C        3.77775227       7.85865446       3.77209172      -0.00999624      -0.01808342       0.00224764
C        2.51522161       9.95163433       3.80134536       0.00270866       0.00868064       0.00277845
C        9.90804070       1.44306674       3.66376034      -0.00032511      -0.00052659       0.00049773
C        8.65373043       3.57847948       3.71689401       0.00099642      -0.00231157      -0.00039800
C        7.42279628       5.71806084       3.76287477      -0.00397665      -0.01142465      -0.00100787
C        6.20872798       7.86769881       3.75089563       0.00241731       0.00012800       0.00049367
C        4.96751910       9.99634569       3.70966039      -0.00608238       0.00803762       0.00467278
Cr       2.04952739       4.61228777       4.66022749       0.02648906       0.05378823       0.10218506
O        1.49645807       4.00265717       6.04465218       0.02234606       0.02692620      -0.09866446
