50
Lattice="12.336457 0.0 0.0 -6.168228499999997 10.683685154694365 0.0 0.0 0.0 15.0" Properties=species:S:1:pos:R:3:forces:R:3 energy=-444.6631108251774 free_energy=-444.6631108251774 stress="-0.004078905073054878 0.0004224839469788509 2.8323024178150292e-06 0.0004224839469788509 0.0057229334365643285 6.452379146871236e-06 2.8323024178150292e-06 6.452379146871236e-06 1.4107437071453342e-05" pbc="T T T"
C        0.01015681       0.00813285       3.73325302      -0.00087483       0.00120861       0.00323460
C       -1.23546747       2.12990415       3.67576028      -0.00052723       0.00301987      -0.00284441
C       -2.46244416       4.27600794       3.66146000      -0.00024539       0.00233098       0.00417133
C       -3.68741941       6.42063255       3.69984063      -0.00389239      -0.00248551       0.00001197
C       -4.91520872       8.57227957       3.73820389       0.00049942       0.00093691       0.00280868
C        2.47317457       0.06447868       3.74971525      -0.00050999      -0.00022853       0.00482815
C        1.21530195       2.15088730       3.70673632       0.00573453      -0.00279685       0.00439593
C       -0.04848100       4.28754650       3.61045349       0.00437347       0.00007310      -0.00059334
C       -1.24498549       6.41912602       3.65784751       0.00216065       0.00080127      -0.00675824
C       -2.45878783       8.57096167       3.71242360      -0.00412713      -0.00455299      -0.00134830
C        4.93903686       0.02285258       3.75166061       0.00233889      -0.00016054       0.00601171
C        3.73458261       2.21092132       3.83385978       0.00308834       0.00478200       0.00397632
O        1.15369823       6.42247268       3.58074492      -0.00033866       0.00072808      -0.00695379
C        0.00037351       8.53629852       3.72146170      -0.00008740      -0.00098772      -0.00045291
C        7.41472953      -0.03047400       3.74542078       0.00079434       0.00226494      -0.00287420
C        6.19257898       2.12762066       3.76751791      -0.00053992       0.00161625      -0.00021865
C        4.98951768       4.24728169       3.86729733       0.00032246      -0.00575804      -0.00230439
C        3.78822941       6.37324585       3.92968113       0.00242642      -0.01122161      -0.00206650
C        2.45013451       8.47536748       3.78652999      -0.00153935       0.00425229      -0.00221707
C        9.87021788      -0.03339014       3.73833282       0.00313267       0.00194229      -0.00237607
C        8.64799216       2.12091331       3.70667739      -0.00695875      -0.00480514       0.00823048
C        7.42662018       4.26957963       3.73182008       0.00112370       0.00095978       0.00560481
C        6.21552083       6.41947800       3.78517506       0.00230429       0.00631312      -0.00356124
C        4.94578823       8.52594707       3.78719011      -0.00132430       0.00192909       0.00058685
C        0.01036841       1.44206814       3.70346375       0.00202995       0.00129265       0.00076464
C       -1.23785592       3.55744744       3.64270235       0.00163808       0.00441348      -0.00324810
C       -2.46536358       5.69690271       3.66699018      -0.00047652       0.00264355      -0.00072625
C       -3.69103209       7.85381668       3.71340096      -0.00325685      -0.00522067       0.00371699
C       -4.91802283      10.00736513       3.73901316      -0.00189007       0.00015790       0.00387023
C        2.46503674       1.51302530       3.77395044       0.00866507       0.00046047       0.00256000
O        1.16652869       3.55723843       3.50646792      -0.00254511      -0.00768703      -0.00355155
C       -0.05614099       5.69184760       3.62650588       0.00316202       0.00143606      -0.00338039
C       -1.24211775       7.84664608       3.69340056      -0.00127545      -0.00018540      -0.00472955
C       -2.46803444      10.01135558       3.74058289      -0.00106565      -0.00212053      -0.00285767
C        4.94177812       1.45358236       3.78294990       0.00196650       0.00306433       0.00448941
N        3.79823099       3.58325047       3.93939893      -0.00899067       0.00647519      -0.01073804
C        1.20543480       7.82791960       3.73183186      -0.00101149      -0.00093645      -0.00458227
C        0.00699651       9.96808790       3.74296831       0.00363751      -0.00069528      -0.00023242
C        7.41861033       1.40510923       3.73744814      -0.00682384      -0.00163446      -0.00017745
C        6.20473450       3.54461155       3.78240045       0.00213250      -0.00060369       0.00153472
C        4.98390760       5.69205448       3.86782710       0.01019316      -0.00475081       0.00044074
C        3.71401408       7.75722686       3.83654864      -0.00218679      -0.00342873       0.00327020
C        2.46784632       9.91639373       3.75630613       0.00234926       0.00621726      -0.00118605
C        9.88218096       1.40474483       3.70274607      -0.00249772       0.00039589       0.00139946
C        8.64972485       3.55197168       3.69380430      -0.00095780      -0.00303731       0.00158599
C        7.42854497       5.69964308       3.73373639      -0.00339270       0.00166449       0.00325979
C        6.19402366       7.84423221       3.76941165       0.00048920       0.00654262      -0.00338811
C        4.94290428       9.95352449       3.74939621       0.00129870       0.00101493       0.00694428
Cr       2.45005002       4.92145731       4.28363283      -0.00750112       0.00058305       0.01234224
O        2.10635617       4.87897454       5.86209541      -0.00102402      -0.00622320      -0.01667257
