51
Lattice="12.336457 0.0 0.0 -6.168228499999997 10.683685154694365 0.0 0.0 0.0 15.0" Properties=species:S:1:pos:R:3:initial_magmoms:R:1:forces:R:3 energy=-447.2998052224646 free_energy=-447.2998052224646 stress="-0.006586867774376445 0.002689436119646398 -6.644467154238144e-06 0.002689436119646398 9.646319832486887e-05 -1.135243839598771e-05 -6.644467154238144e-06 -1.135243839598771e-05 -8.214212344007825e-06" pbc="T T T"
C       -0.01786799      -0.01409313       3.74457930       0.00000000      -0.00520848      -0.00490939       0.00306336
C       -1.25026417       2.11150538       3.85616696       0.00000000      -0.00246400      -0.00554147       0.00301465
C       -2.47599008       4.25274195       3.85349829       0.00000000       0.00253083       0.00269532      -0.00505685
C       -3.71655541       6.39052228       3.73658952       0.00000000      -0.00098013       0.00747839      -0.00164997
C       -4.96712841       8.52866149       3.64518881       0.00000000       0.00348705       0.00908567       0.00148435
C        2.44479808       0.00496297       3.78078394       0.00000000      -0.00797719      -0.00018801       0.00115646
C        1.21680552       2.16751823       3.83043155       0.00000000      -0.00743676      -0.00007236      -0.00311814
C       -0.02226585       4.27621819       3.91276645       0.00000000       0.00026917       0.01142100       0.00134248
C       -1.27477895       6.41011397       3.88657712       0.00000000       0.00348314       0.00032300       0.00162901
C       -2.49786784       8.53814145       3.81380180       0.00000000       0.01052656      -0.00111203      -0.00270551
C        4.91881884      -0.01767801       3.83715855       0.00000000      -0.00364685      -0.00214976      -0.00144149
C        3.70729600       2.13763299       3.74228259       0.00000000       0.00766388      -0.00234537       0.00444246
O        1.09891382       6.44026082       4.02751120       0.00000000      -0.00472257       0.00527056      -0.00875104
C       -0.03102951       8.51877195       3.86153990       0.00000000      -0.00481524      -0.00475753       0.00540727
C        7.39359588      -0.04878455       3.86966571       0.00000000      -0.00300912       0.00236161      -0.00303584
C        6.18530903       2.08553902       3.77239173       0.00000000       0.00364495       0.00573878       0.00179118
C        5.00736568       4.19955289       3.44000502       0.00000000       0.00133941       0.00720508       0.00404045
S        3.59605445       6.31907399       2.50737935       0.00000000      -0.00751202      -0.00682400      -0.01005240
C        2.42421608       8.47582273       3.70290358       0.00000000      -0.01260453      -0.00272782       0.00788664
C        9.85175231      -0.04462394       3.80101750       0.00000000       0.00103501      -0.00306844      -0.00389173
C        8.63520187       2.09781609       3.84900307       0.00000000       0.00196232      -0.00433992      -0.00031302
C        7.42682333       4.23862814       3.68505831       0.00000000       0.00503216      -0.01445769      -0.00187487
C        6.18528477       6.37999281       3.40777278       0.00000000       0.00603437      -0.00579884      -0.00914655
C        4.90251494       8.51280723       3.50694711       0.00000000       0.00173280       0.00153813       0.00327817
C       -0.01821995       1.41265563       3.81894167       0.00000000      -0.00627064      -0.01022297      -0.00426230
C       -1.25817727       3.53845074       3.88530443       0.00000000       0.00181470       0.00125196       0.00038192
C       -2.49258513       5.67670534       3.83595166       0.00000000       0.00066955       0.00803742       0.00033137
C       -3.73062411       7.81912570       3.73048402       0.00000000       0.00648764       0.01089371      -0.00430290
C       -4.95532879       9.96239716       3.72041626       0.00000000      -0.00604854       0.00271178       0.00997128
C        2.45426507       1.43679908       3.79529710       0.00000000      -0.00201544       0.00036312      -0.00744898
C        1.17466498       3.56692595       3.88510849       0.00000000      -0.00914550       0.00133853       0.01768894
C       -0.08533490       5.70216723       3.92866557       0.00000000       0.00284543       0.01017287      -0.00339306
C       -1.27719446       7.82894783       3.86653912       0.00000000       0.00628623      -0.00655927       0.00806075
C       -2.49413750       9.96818929       3.81341712       0.00000000      -0.00452700      -0.00165242      -0.01717532
C        4.94028763       1.39905494       3.78763684       0.00000000       0.00767140       0.00012750       0.00007918
C        3.79314862       3.52467026       3.61560991       0.00000000       0.01383475      -0.00593963       0.00431226
C        1.16729608       7.82483720       3.81400732       0.00000000      -0.01207618      -0.00507986      -0.00115622
C       -0.01659204       9.94620215       3.86051590       0.00000000      -0.00459338      -0.00399694       0.00749862
C        7.40923405       1.37603359       3.84763451       0.00000000       0.00008873       0.00355491      -0.01149022
C        6.22311678       3.49734710       3.63321436       0.00000000      -0.00055688       0.00130836      -0.00367497
C        5.04435454       5.60328793       3.17048811       0.00000000      -0.00718909       0.00683437       0.00141853
C        3.65897505       7.84477520       3.37167880       0.00000000      -0.00768398       0.00905959       0.00455942
C        2.44826676       9.91305926       3.82053080       0.00000000      -0.00237241       0.00019987      -0.00150466
C        9.85708148       1.38417778       3.85096143       0.00000000      -0.00116506      -0.00476975       0.00812001
C        8.64147781       3.52671424       3.81067180       0.00000000       0.00712930      -0.00858467      -0.00651034
C        7.41023080       5.66552266       3.61734667       0.00000000       0.00425801      -0.01196466      -0.00313789
C        6.14796361       7.80968141       3.48345628       0.00000000       0.00718035      -0.00050175       0.00234076
C        4.91614603       9.94187179       3.69848186       0.00000000       0.00096238      -0.00148120       0.01259055
Cr       2.59732809       4.95755140       4.09955618       0.00000000       0.01571261       0.00304152      -0.00753061
O        2.30522431       4.99703101       6.03020742       1.00000000       0.00301947       0.00899553      -0.00536942
O        3.19931783       5.93715424       5.67974299       1.00000000      -0.00268124      -0.00196284       0.01210425
