50
Lattice="12.336457 0.0 0.0 -6.168228499999997 10.683685154694365 0.0 0.0 0.0 15.0" Properties=species:S:1:pos:R:3:forces:R:3 energy=-447.8678543803587 free_energy=-447.8678543803587 stress="-0.004427554462675007 -0.00010834271066367796 -8.321928978790438e-07 -0.00010834271066367796 0.0040745189962205905 -5.008143878313583e-06 -8.321928978790438e-07 -5.008143878313583e-06 -8.547578103145705e-06" pbc="T T T"
C       -0.00534194       0.00637891       3.77091637      -0.00211679       0.00103647       0.00426134
C       -1.25294176       2.11794477       3.74515489       0.00107105      -0.00377412      -0.00120453
C       -2.48227634       4.26112483       3.66679401       0.00117743      -0.00047093      -0.00065844
C       -3.70907790       6.40823469       3.65190003       0.00019615      -0.00088380       0.00714070
C       -4.94064842       8.55599736       3.71514568      -0.00560393      -0.00241374      -0.00468960
C        2.46380688       0.03182581       3.76468535      -0.00165215       0.00229263       0.00403288
C        1.22221614       2.18313263       3.85283210       0.00319367       0.00082269       0.00482212
C       -0.03102841       4.26819846       3.80348854       0.00347466      -0.00025751      -0.00132485
C       -1.26196488       6.41795096       3.68366454      -0.00111910      -0.00534703       0.00317770
C       -2.47770599       8.55846519       3.69053374       0.00407675      -0.00219727       0.00392224
C        4.93551642      -0.00174263       3.71537340       0.00326034       0.00574397       0.00605103
C        3.70918052       2.18215196       3.78612312      -0.00403271       0.00186363      -0.00240468
N        1.14841308       6.37922240       3.84698067      -0.00236342       0.00383728      -0.00196148
C       -0.00078203       8.51361631       3.72001112       0.00389392      -0.00286925       0.00022214
C        7.40876744      -0.04461051       3.70849403       0.00450625      -0.00419723       0.00520088
C        6.18099682       2.11719517       3.67750018      -0.00209333      -0.00162944      -0.00175626
C        4.94979463       4.27752754       3.70328559      -0.00016028      -0.00100043      -0.00231243
O        3.77613029       6.40496868       3.70149283       0.00380827       0.00994388      -0.00515719
C        2.47597043       8.45445786       3.77836799      -0.00235537       0.00408533       0.00808528
C        9.85755518      -0.04275228       3.73914680       0.00258224      -0.00485430       0.00316267
C        8.63245815       2.10880202       3.67557601      -0.00479147       0.00481933       0.00222022
C        7.40547844       4.26121960       3.63945345      -0.00664342       0.00431096      -0.00737708
C        6.17687011       6.41530086       3.67601746       0.00194226      -0.00348762      -0.00357764
C        4.93144777       8.52442753       3.75415298      -0.00267560      -0.00389192       0.00013922
C       -0.01336555       1.43062307       3.79353700       0.00366729       0.00068828       0.00340670
C       -1.26407806       3.54355314       3.72567162       0.00268382      -0.00310675      -0.00233839
C       -2.48273612       5.69118619       3.65623970      -0.00162066      -0.00243330       0.00557990
C       -3.70697125       7.83980628       3.68071574      -0.00084609      -0.00074969       0.00168934
C       -4.93481619       9.98890827       3.75616800      -0.00431785       0.00056883      -0.00728150
C        2.46385325       1.46048115       3.81878394      -0.00004646       0.00244483       0.00219358
C        1.17439838       3.59078503       3.92138818      -0.00324021      -0.00302290      -0.00298698
C       -0.04119681       5.71771015       3.76496814       0.00124502       0.00031610       0.00160278
C       -1.25073515       7.83609227       3.68982057       0.00425710      -0.00634832      -0.00364184
C       -2.47475771       9.98654731       3.72297778       0.00285478       0.00285322       0.00322700
C        4.94457946       1.42186393       3.72230234      -0.00412161       0.00540092      -0.00435803
C        3.74928281       3.57980582       3.81539280       0.00526569      -0.00205914      -0.00582390
C        1.20833953       7.75314578       3.78116462       0.00223140       0.00165378       0.00415585
C        0.00141140       9.94347130       3.70969234       0.00390287      -0.00135263       0.00277589
C        7.40922427       1.38770487       3.68020672      -0.00125280      -0.00322440      -0.00106422
C        6.19075965       3.54315755       3.65377897      -0.00225319      -0.00246262      -0.00542022
C        4.98991796       5.69995835       3.69345337       0.00091691       0.00119137      -0.00325923
C        3.72702228       7.81981248       3.77741802      -0.00410822       0.00531769      -0.00159391
C        2.46718439       9.90100943       3.73825418       0.00374958      -0.00129677       0.00626056
C        9.85672866       1.39171030       3.71616860      -0.00362189      -0.00252984      -0.00506002
C        8.63272425       3.54120196       3.65111442      -0.00517627       0.00852836       0.00034417
C        7.40588427       5.68795561       3.64994849       0.00053331       0.00117735      -0.00587146
C        6.17659848       7.83871274       3.71505748      -0.00399297      -0.00590817      -0.00421587
C        4.92857795       9.95632673       3.75773803       0.00104146      -0.00559861       0.00497061
Cr       2.48096376       5.01923295       4.40629448       0.00618768       0.00611501      -0.01460114
O        2.58820112       5.26065221       5.98931526      -0.00151413       0.00235582       0.01129608
