50
Lattice="12.336457 0.0 0.0 -6.168228499999997 10.683685154694365 0.0 0.0 0.0 15.0" Properties=species:S:1:pos:R:3:forces:R:3 energy=-440.47231303060323 free_energy=-440.47231303060323 stress="0.0008572533722852693 0.002800881406981164 -8.588504166470426e-06 0.002800881406981164 -0.00033952030350498157 -3.3731573249542554e-06 -8.588504166470426e-06 -3.3731573249542554e-06 -3.3698240457569393e-06" pbc="T T T"
C        0.00541468      -0.02068526       3.68576927       0.00041745       0.00401478      -0.00717760
C       -1.21748772       2.12507720       3.72548204      -0.00407148      -0.00163172       0.00690853
C       -2.44426997       4.26061180       3.74197674      -0.00977953       0.01397705      -0.01039647
C       -3.69701092       6.38649000       3.71556531      -0.01306076      -0.00600515      -0.00117950
C       -4.95257025       8.51544795       3.66715260       0.00708339       0.00482668       0.01139241
C        2.46072314       0.01744366       3.75284465      -0.00574228       0.00601161      -0.01093854
C        1.21286221       2.12550969       3.79077372      -0.00110541       0.00724275      -0.00780440
C        0.00869919       4.23283754       3.78376061      -0.00205269      -0.00621562      -0.00963279
C       -1.20452223       6.37581422       3.74431688       0.00521250       0.00293919       0.00429618
C       -2.48028782       8.52724234       3.74757463       0.00324771      -0.01394220      -0.00550794
C        4.92300756      -0.01829153       3.78730862      -0.00811916      -0.00509651      -0.00037414
C        3.73852624       2.11266719       3.81290901       0.00311287      -0.00571943       0.00363897
C        1.28199275       6.40969419       3.88528737      -0.00478450       0.01049432       0.00871723
C       -0.01621778       8.53319335       3.77408227       0.00560434       0.00326988       0.00556193
C        7.39772401      -0.00931511       3.76983369       0.00297418      -0.01377800       0.00276522
C        6.18522484       2.10173874       3.80759183       0.01063966       0.00018323      -0.00187045
C        4.98745069       4.17293268       3.74976505       0.00365978       0.00570691       0.00851685
P        3.31169790       6.16824574       3.19269141       0.01067668      -0.00477781       0.01015333
C        2.44026864       8.57057820       3.65610537      -0.00363194       0.00311349       0.00633830
C        9.87808949      -0.00908298       3.69405297      -0.00107612       0.00721635      -0.00345282
C        8.65276283       2.12132623       3.76714871      -0.00404156       0.00076546      -0.00518378
C        7.42520222       4.25018179       3.76110710      -0.00116806      -0.00884757      -0.01011748
C        6.14401006       6.35268948       3.63385150       0.00723975      -0.00385264      -0.01404357
C        4.91555096       8.51517852       3.56028921      -0.00692525      -0.00149322       0.00440495
C        0.01991391       1.41893551       3.72597060       0.00008841       0.00236746       0.00856076
C       -1.20694610       3.54422479       3.73609262      -0.00952133       0.00092767      -0.00603425
C       -2.44647749       5.67821061       3.73289425      -0.00663112       0.01456427       0.00126516
C       -3.71141342       7.81201506       3.70911439      -0.00074610      -0.00846917      -0.00340791
C       -4.93404329       9.95791930       3.69784261       0.00109087       0.00699561       0.00197109
C        2.46897660       1.46795994       3.78995253      -0.00562939       0.00598792       0.00107026
O        1.17605901       3.50583181       3.87127256       0.00633945       0.00410544      -0.00044229
C        0.05573652       5.65940969       3.78142287       0.00331711      -0.00380777       0.01022744
C       -1.24359559       7.80953412       3.76313166       0.01254553      -0.00197504       0.00190835
C       -2.48312953       9.96432103       3.76520376      -0.01018942      -0.00921681      -0.00623638
C        4.93203725       1.40863842       3.80336897       0.00656169      -0.00140712       0.00371779
O        3.79218582       3.48328759       3.84875596       0.01295370      -0.00598759       0.00814642
C        1.21503419       7.83115375       3.75968179       0.00179887       0.00709738       0.01238490
C       -0.00985904       9.95930729       3.77839857      -0.00388135      -0.00413926       0.01013514
C        7.40948654       1.40785668       3.78819416       0.00474096      -0.01213133       0.00445400
C        6.20167318       3.50823570       3.79036029       0.00281226       0.00231942      -0.00114653
C        4.94284272       5.56848361       3.61322382      -0.00344376       0.00675086      -0.00292859
C        3.65144606       7.86250658       3.49016127      -0.01097782      -0.00089765      -0.00684050
C        2.46381388       9.98260836       3.71287209       0.00495017      -0.00144998      -0.00569746
C        9.89168053       1.41579131       3.73125075      -0.00633954       0.00512900      -0.00722306
C        8.65992997       3.54448069       3.76312188      -0.00335221       0.00185263      -0.00741791
C        7.40284589       5.66876124       3.70947673      -0.00442098      -0.01455734      -0.01049364
C        6.14743893       7.79177709       3.60307069       0.00595020       0.00012808       0.00613851
C        4.93547783       9.94953397       3.64198104      -0.00265625       0.00423218       0.00094436
Cr       2.45779637       5.55302068       5.39148200       0.01057539       0.00304977      -0.00358395
O        3.19459315       6.65014461       6.33160700      -0.00024488       0.00012957       0.00551382
