51
Lattice="12.336457 0.0 0.0 -6.168228499999997 10.683685154694365 0.0 0.0 0.0 15.0" Properties=species:S:1:pos:R:3:initial_magmoms:R:1:forces:R:3 energy=-450.9758055426577 free_energy=-450.9758055426577 stress="-0.009939583265672252 -0.0011394044049477066 -7.0212851957558395e-06 -0.0011394044049477066 -0.0032078038502511897 1.716243857327028e-05 -7.0212851957558395e-06 1.716243857327028e-05 -4.8130934328587055e-06" pbc="T T T"
C       -0.01933870       0.01071997       3.85340193       0.00000000       0.00927693       0.00496716      -0.00332872
C       -1.27168668       2.12447202       3.86259569       0.00000000      -0.00685710       0.00099896       0.01076472
C       -2.50045852       4.27370344       3.83564217       0.00000000      -0.00593177      -0.00190196       0.00926309
C       -3.70869608       6.42471098       3.79517207       0.00000000       0.00362082      -0.00049871      -0.00886232
C       -4.93554411       8.57373523       3.82505519       0.00000000      -0.00512837      -0.00376214      -0.00611774
C        2.45132566       0.02066691       3.78976883       0.00000000      -0.00516227      -0.00069190       0.00666148
C        1.20398375       2.16590299       3.79183846       0.00000000      -0.00188500      -0.00409703       0.00218490
C       -0.06167243       4.26186517       3.93526954       0.00000000       0.00429461      -0.00121885      -0.00119125
C       -1.28400973       6.43081532       3.91730275       0.00000000      -0.00166144      -0.00385743       0.00447738
C       -2.48833105       8.57019026       3.85014914       0.00000000      -0.00222923       0.00233414       0.00987286
C        4.92107494       0.00645989       3.70956210       0.00000000      -0.00159862      -0.00503414      -0.00331543
C        3.67568820       2.09386756       3.37677092       0.00000000      -0.00449984       0.00393163      -0.00274607
C        1.13698910       6.41506851       3.98880412       0.00000000       0.00027762       0.01093565       0.00984840
C       -0.02614008       8.54927361       3.87603154       0.00000000       0.00605269      -0.00632429       0.00153551
C        7.38560163      -0.01135248       3.76331864       0.00000000       0.00106465      -0.00005367      -0.00425383
C        6.16330325       2.13106863       3.49206310       0.00000000       0.01084417      -0.00467836       0.00129834
C        5.02238441       4.31991859       3.20762452       0.00000000       0.00099724       0.00492994      -0.00314981
C        3.78840591       6.43131617       3.60558556       0.00000000       0.00257793      -0.00079959       0.00106618
C        2.45466712       8.52337671       3.85080185       0.00000000      -0.00144859       0.00319327      -0.00770003
C        9.84560224      -0.01389373       3.83240875       0.00000000      -0.00002692      -0.00284459      -0.00104245
C        8.61241206       2.12772659       3.73991496       0.00000000       0.00516643       0.00785168      -0.00287783
C        7.40986964       4.28060480       3.60216754       0.00000000      -0.00205538      -0.00004252       0.00683143
C        6.21280001       6.44977717       3.60322002       0.00000000       0.00869543       0.00210177      -0.00173313
C        4.93702280       8.55471058       3.79138582       0.00000000      -0.01128949      -0.00021262      -0.00810550
C       -0.03000535       1.43037534       3.85196252       0.00000000      -0.00079523       0.00536236       0.00725610
C       -1.28674140       3.54768545       3.88723785       0.00000000      -0.00258069       0.00173067       0.01172063
C       -2.49631025       5.70381079       3.85501067       0.00000000      -0.00241993      -0.00540722       0.00779470
C       -3.71107164       7.85381434       3.83263500       0.00000000      -0.00182920       0.00012912      -0.00512157
C       -4.94621958       9.99303661       3.84536187       0.00000000       0.00194302      -0.00459179       0.00281434
C        2.44583029       1.43739414       3.66656264       0.00000000      -0.00481954      -0.00240060      -0.00049050
C        1.14808316       3.56254629       3.87305326       0.00000000       0.00222671      -0.00532421       0.00243298
C       -0.06302590       5.71422784       3.96498875       0.00000000       0.00528826       0.00414998       0.00185287
C       -1.26291709       7.85358239       3.88831146       0.00000000       0.00036388      -0.00252882       0.00709137
C       -2.48315133       9.99086453       3.78968924       0.00000000      -0.00622095       0.00178279       0.00549736
C        4.92583583       1.42219201       3.50908427       0.00000000       0.00161825      -0.00208468      -0.00539581
P        3.58795743       3.60455386       2.47317961       0.00000000      -0.00975728       0.00826854      -0.00337835
C        1.20951995       7.80608005       3.91135657       0.00000000       0.00702511       0.00606633       0.00281860
C       -0.01861124       9.96961283       3.78687086       0.00000000       0.00199048      -0.00669916      -0.00881722
C        7.38243305       1.41493535       3.66578999       0.00000000       0.01321096       0.00158725      -0.00217202
C        6.19308554       3.56029823       3.40477752       0.00000000       0.00096065      -0.00148281       0.00158184
C        4.99867036       5.75035485       3.42704909       0.00000000       0.00763141       0.00772190      -0.00088511
C        3.70370838       7.81587986       3.76163937       0.00000000      -0.00996131      -0.00111910      -0.00396900
C        2.44742271       9.94818466       3.82412088       0.00000000      -0.00199748      -0.00056350      -0.00103359
C        9.83653824       1.40908632       3.82154632       0.00000000      -0.00429300      -0.00125626       0.00641159
C        8.61647104       3.55887245       3.73176290       0.00000000      -0.00360353       0.00393083      -0.00267438
C        7.41703710       5.71036810       3.66110178       0.00000000       0.00750279      -0.00202099       0.00003060
C        6.17876456       7.86077950       3.75338949       0.00000000      -0.00762553       0.00182410      -0.00862099
C        4.91946482       9.97109552       3.84473921       0.00000000       0.00556949       0.00286496      -0.01012584
Cr       2.55018355       4.98485393       4.17928915       0.00000000      -0.00744409      -0.00622790      -0.01395661
O        2.50188406       5.21218204       6.11175672       1.00000000       0.00200595       0.00030177      -0.00010916
O        3.31476404       4.19866607       5.79936592       1.00000000       0.00291630      -0.00923992       0.00006701
