52
Lattice="12.336457 0.0 0.0 -6.168228499999997 10.683685154694365 0.0 0.0 0.0 15.0" Properties=species:S:1:pos:R:3:forces:R:3 energy=-451.4342715871445 free_energy=-451.4342715871445 stress="-0.006414382495359769 -0.0027619938267091325 -4.149338456357033e-06 -0.0027619938267091325 0.00046078720330134027 1.0523336360093979e-05 -4.149338456357033e-06 1.0523336360093979e-05 6.191934218021254e-07" pbc="T T T"
C       -0.04129121      -0.03504553       3.99561942       0.00007271      -0.00617258       0.00059443
C       -1.30242860       2.07310146       4.04188255      -0.00715159       0.00242474       0.00434325
C       -2.52712685       4.21869044       4.00756838      -0.00408514       0.00319721       0.00526912
C       -3.72624162       6.37265060       3.94594924       0.00289719       0.00923570       0.00000570
C       -4.95887312       8.52309961       3.95728994       0.00056298       0.00358205      -0.00590113
C        2.43264001      -0.02574432       3.93413554       0.00125319      -0.00967657       0.01275454
C        1.17989743       2.12822783       4.00674873       0.00601316      -0.00351712      -0.00119554
C       -0.08005313       4.20337263       4.14828902       0.00379013      -0.00332699      -0.01053830
C       -1.29938785       6.37211702       4.04287630       0.00741048      -0.00106853       0.00758078
C       -2.50254986       8.51464290       3.96166071      -0.00422075       0.01055312       0.00228287
C        4.89891166      -0.04568480       3.81512172      -0.00058531      -0.00331856      -0.01854450
C        3.63508243       2.04405920       3.50306708       0.00046044       0.00567471       0.00354368
C        1.13329906       6.33668379       4.08055671       0.00027855      -0.00233997      -0.00527869
C       -0.03032235       8.47935653       3.93693358      -0.00701914      -0.00151549       0.00450263
C        7.36397909      -0.07077360       3.84113958       0.00676623       0.00857885      -0.00101746
C        6.12211790       2.09686748       3.63485170      -0.00763161      -0.00337186      -0.00483878
C        4.99418090       4.32149523       3.35594226      -0.00357129      -0.00082764      -0.00675816
O        3.79911290       6.41209355       3.61284196      -0.00888705      -0.00384571       0.01245616
C        2.45912929       8.44034921       3.90030944       0.00253351      -0.01030325       0.00240558
C        9.81921817      -0.07160553       3.93643883       0.00195999       0.00457187      -0.00150156
C        8.58041783       2.07761719       3.88083553       0.00102400       0.00185762      -0.00306596
C        7.37256898       4.23599121       3.77277571       0.00258605      -0.00807401      -0.00642863
C        6.19325267       6.40920047       3.74213095      -0.00583176       0.00785978      -0.00530754
C        4.91613483       8.50198921       3.89968152      -0.00229018       0.00825794      -0.01563697
C       -0.05490259       1.38652426       4.03449356      -0.00453039      -0.00347854       0.00419140
C       -1.31455802       3.49218275       4.08351880      -0.00435529       0.00348066      -0.00001618
C       -2.51395269       5.64888201       4.00848731       0.00251594       0.00289532       0.00797382
C       -3.72600567       7.80187330       3.96363539       0.00021599       0.01242008       0.00708096
C       -4.96654151       9.94821100       3.98404763       0.00093008      -0.00492493       0.01272063
C        2.42351536       1.40166169       3.84376600       0.00882536      -0.00665055       0.00466191
C        1.12513776       3.50572677       4.15754134       0.00218551      -0.00173643      -0.00228052
C       -0.07208044       5.65351693       4.10863977       0.00912998      -0.00258113      -0.00514711
C       -1.27470675       7.79284926       3.98054346      -0.00855802       0.00158874       0.01482526
C       -2.50231636       9.93943212       3.90733645      -0.00089479       0.00019195      -0.00587935
C        4.88894656       1.38270251       3.63931100      -0.00303594      -0.00692702      -0.01000794
S        3.54569642       3.59187886       2.67804907       0.01514906      -0.00212326       0.00237412
C        1.20350889       7.71617069       3.96722186      -0.00318058      -0.00730754       0.00100494
C       -0.03522864       9.90714156       3.85863292       0.00273878       0.00366062       0.00419522
C        7.34560107       1.36800199       3.78483475       0.00047078       0.00984150      -0.00803377
C        6.14786025       3.53064820       3.57573647      -0.00648492      -0.00637180       0.00495572
C        5.02262656       5.71808484       3.50612299      -0.00507203       0.00075089      -0.00048679
C        3.71288832       7.79918660       3.84787163       0.00118071      -0.00505887       0.00380854
C        2.43085610       9.88082584       3.89225465       0.00653279      -0.00269378      -0.00602949
C        9.80534162       1.35750779       3.96139379      -0.00484603       0.00200597       0.00241249
C        8.58721465       3.50713140       3.89485256       0.00171657      -0.00494741       0.00839717
C        7.39586306       5.65870224       3.82672559       0.00152562       0.00155101      -0.00219836
C        6.16390660       7.81918087       3.88190621      -0.00343836       0.01250349      -0.01313427
C        4.89445427       9.92566836       3.95835963      -0.00015037       0.00255743       0.00962345
Cr       2.58562464       4.88538760       4.30318720      -0.00157675       0.00241827      -0.00373869
O        3.57470993       4.51534100       5.87227882      -0.00334966      -0.00172517      -0.00123686
O        2.80045174       5.71047365       6.30538043       0.01657931       0.00478843       0.00804060
H        3.52833806       6.28663610       6.60717973      -0.00655815      -0.01256317      -0.00780242
