50
Lattice="12.336457 0.0 0.0 -6.168228499999997 10.683685154694365 0.0 0.0 0.0 15.0" Properties=species:S:1:pos:R:3:forces:R:3 energy=-434.9878207786821 free_energy=-434.9878207786821 stress="-0.004945959449210983 0.0005113778696750279 6.4430300677107385e-06 0.0005113778696750279 -0.0036650353863198377 -1.378397868542802e-05 6.4430300677107385e-06 -1.378397868542802e-05 3.5369116256972484e-06" pbc="T T T"
C       -0.01316784       0.01267041       3.81235566      -0.00830454      -0.00188747       0.00717607
C       -1.24331801       2.15526662       3.86162913       0.00859821      -0.00485957      -0.00271232
C       -2.49400083       4.28963959       4.12483336       0.00124384       0.00553043      -0.00568587
C       -3.72615369       6.42817975       4.09125404       0.00506169      -0.00299009      -0.00068940
C       -4.96177328       8.55644690       3.90430416      -0.00023806       0.00107397      -0.00104765
C        2.45158831       0.00246459       3.81124935      -0.00358629       0.00080329       0.00259557
C        1.21470402       2.08457775       3.41605450       0.00650495      -0.00299632      -0.00596284
C       -0.10851326       4.34798369       3.80839218       0.00215089       0.00834560       0.00660247
C       -1.28784309       6.44694758       4.21865287      -0.00353154       0.00433130       0.00377911
C       -2.49831342       8.57042301       4.10518955       0.00002110      -0.00639067      -0.00258404
C        4.92357610       0.00051801       3.90274315       0.00958226      -0.00198343      -0.00164614
C        3.71422000       2.03887977       3.30356098      -0.00613845       0.00625959      -0.00145942
C        1.18956908       6.40761281       4.00228867      -0.01266312       0.00976863       0.00518715
C       -0.01641686       8.54666983       4.08697237       0.00122208      -0.00743641       0.00069372
C        7.38967249       0.00002643       3.97246914       0.01487472      -0.00420622       0.00137208
C        6.17348291       2.12762518       3.71496345      -0.00647966       0.00388623      -0.00188342
C        5.12335154       4.29239193       3.16472404       0.00205792      -0.01115906       0.00323256
S        3.61178814       6.41483852       2.56781895      -0.00467463       0.01206142      -0.00922831
C        2.45702346       8.54888812       3.81098902      -0.00156399      -0.00364359      -0.00038135
C        9.85765985       0.00851573       3.90056470       0.00035616      -0.00248158      -0.00067316
C        8.62713767       2.14363765       3.98936892      -0.00185005       0.00646446       0.00244990
C        7.41050198       4.28142164       3.89199319       0.00026400       0.00646299       0.00287245
C        6.20270720       6.43563429       3.61539394      -0.00110947      -0.00567823       0.00806209
C        4.91993993       8.56176881       3.65478415      -0.00226466       0.00293118       0.00125936
C       -0.00910186       1.44608905       3.71419448       0.00916191      -0.00598186       0.00450315
C       -1.26517885       3.57577550       3.97395648       0.00357676       0.00126726       0.00158348
C       -2.49984053       5.71584526       4.18816496       0.00383359       0.00264821      -0.00479992
C       -3.72800648       7.85290452       4.05647136       0.00016661      -0.00544990       0.00101978
C       -4.95273263       9.98370476       3.85987371      -0.00818035       0.00292121       0.00109871
C        2.45644340       1.40643804       3.50404915      -0.00015150       0.00128468       0.00166168
S        1.12361438       3.71969641       2.76571619      -0.00233581      -0.00387335      -0.01322617
C       -0.04626071       5.74656553       4.06576769      -0.00511164       0.01183732       0.00253876
C       -1.26432604       7.86253767       4.17903186      -0.00077312      -0.00391533       0.00056758
C       -2.48611646       9.98499637       3.95794387       0.00275124      -0.00334464      -0.00487378
C        4.93426635       1.41290091       3.64417809      -0.00637979       0.00508798      -0.00141459
S        3.76541868       3.52595921       2.40136708       0.00627718      -0.00766961       0.00362322
C        1.22307592       7.80049395       3.97269194      -0.00221237       0.00260483      -0.00020072
C       -0.01202296       9.96927419       4.00648711       0.01531240      -0.00835867      -0.00190073
C        7.38838490       1.42694693       3.91977608      -0.00215660       0.00182128      -0.00218881
C        6.22297499       3.54539480       3.60822327       0.00485702       0.00049820       0.00352293
C        5.09342958       5.69034874       3.18700435      -0.00387108      -0.01143856       0.01063899
C        3.67173518       7.92156057       3.45012351      -0.00296297       0.00219058       0.00535414
C        2.45719495       9.97490021       3.93170261       0.00931358      -0.00809635      -0.00308546
C        9.86803654       1.43955358       3.95125782       0.00154203      -0.00017121      -0.00942833
C        8.62593995       3.56688085       4.04449463      -0.00129874       0.00994219       0.00021732
C        7.40326835       5.70892599       3.89649426       0.00433742       0.00162063       0.00080439
C        6.15783385       7.85282688       3.71050364      -0.00016804       0.00061023      -0.00206389
C        4.91886026       9.98550374       3.81880205      -0.00594850      -0.00108959       0.00738946
Cr       2.62171904       4.89328354       4.04826326      -0.00748574      -0.00630073      -0.00503923
O        2.97845388       4.30210329       5.48433863      -0.01162687       0.00914875      -0.00763057
