50
Lattice="12.336457 0.0 0.0 -6.168228499999997 10.683685154694365 0.0 0.0 0.0 15.0" Properties=species:S:1:pos:R:3:forces:R:3 energy=-442.48295461317616 free_energy=-442.48295461317616 stress="-0.0062354366271195755 0.002331874799333356 -8.73947675336891e-06 0.002331874799333356 7.294476712204742e-05 6.944505100337096e-06 -8.73947675336891e-06 6.944505100337096e-06 -3.925250124037927e-06" pbc="T T T"
C       -0.01237665      -0.00253061       3.79425163      -0.00597922      -0.00353908       0.00203261
C       -1.24651724       2.12208168       3.90136001      -0.00007824      -0.00031091      -0.00259253
C       -2.47089573       4.26198863       3.88699016      -0.00365554       0.00767555      -0.00994533
C       -3.70844035       6.40048436       3.77108726      -0.00331602       0.00176980       0.01148126
C       -4.95989305       8.54026237       3.68815110       0.00538269      -0.00575124       0.00529516
C        2.45021521       0.01605902       3.81173644      -0.00333329       0.00480228      -0.00200905
C        1.22219171       2.17545089       3.88752570      -0.00006517       0.00936762      -0.00450395
C       -0.01690216       4.28193857       3.94197788       0.00434021      -0.00289568       0.00031592
C       -1.26509749       6.41790816       3.91155876      -0.00036322       0.00015950      -0.00163772
C       -2.48983288       8.54815994       3.83712477       0.00603776      -0.00265755      -0.00632291
C        4.92281431      -0.00421828       3.84516853       0.00540379      -0.00607027       0.00052954
C        3.70665763       2.15603470       3.75710554      -0.00079348       0.00080498       0.00472968
O        1.11656399       6.42897854       3.76294910      -0.01309749       0.00916847       0.00874451
C       -0.02360295       8.52765162       3.86088196       0.00114417       0.00160444      -0.00180691
C        7.39602188      -0.03571961       3.87144414       0.00197194      -0.00128145       0.00061113
C        6.18717014       2.09939739       3.78713352      -0.00026975      -0.00064992      -0.00433201
C        4.99735106       4.21238064       3.48444800      -0.00119090      -0.00065939       0.00117447
S        3.62104142       6.32303923       2.55692636      -0.00333531       0.00218727       0.00531774
C        2.42541430       8.49569330       3.69218204       0.00240819       0.00136571       0.01031410
C        9.85577866      -0.03202238       3.82709794      -0.00781703      -0.00635784      -0.00351431
C        8.63772378       2.10959474       3.87067794       0.00458379      -0.00825806      -0.00117330
C        7.42698537       4.24866427       3.71842060       0.00230645       0.00098099      -0.00389110
C        6.19320044       6.39259601       3.46256735      -0.00613779       0.00103173       0.00118544
C        4.91137903       8.52608851       3.55163578       0.00144476       0.00433086      -0.00849013
C       -0.01406538       1.42256335       3.87183338       0.00046635       0.00112177       0.00240320
C       -1.25523787       3.54767844       3.92550641      -0.00179921       0.00424784      -0.00445013
C       -2.48469809       5.68560442       3.87084548      -0.00194636       0.00743659      -0.00239523
C       -3.72297545       7.82951963       3.76388549       0.00601948      -0.00320511       0.00290356
C       -4.94965307       9.97341214       3.76401934      -0.00230370      -0.00337544       0.00452864
C        2.45821261       1.44548756       3.82851812      -0.00427450       0.00831622       0.00350107
C        1.18751644       3.57657287       3.95235381       0.01623979       0.01070179       0.00321400
C       -0.07591999       5.70614972       3.91525376      -0.00209035      -0.00448549       0.00091338
C       -1.27023723       7.83777884       3.88234462       0.00553136      -0.00197342      -0.01144569
C       -2.48820924       9.97851683       3.82998766       0.00025094       0.00003336       0.00030994
C        4.94247379       1.41315283       3.79693759      -0.00015286      -0.00395283       0.00395941
C        3.77364819       3.54895047       3.62994302      -0.00251958       0.00031407       0.00464284
C        1.17491939       7.83919613       3.77233020      -0.00083970       0.00383242      -0.00166351
C       -0.01233316       9.95703942       3.86527932       0.00712480      -0.00314466       0.00051618
C        7.41110407       1.38958467       3.85730690       0.00079555      -0.00229598       0.00116944
C        6.22177145       3.51121322       3.66550629       0.00081501       0.00139773      -0.00299589
C        5.04581803       5.61854618       3.23879824      -0.00404012      -0.00322862      -0.00391335
C        3.66901245       7.86259625       3.39112260       0.00111876       0.00742528      -0.00382611
C        2.45077733       9.92902291       3.82475471      -0.00364455      -0.00266811      -0.00096784
C        9.86074951       1.39627929       3.88307499       0.00285787      -0.00922630       0.00197541
C        8.64393349       3.53792374       3.83785193       0.00108471      -0.00370321       0.00451026
C        7.41672199       5.67640244       3.65787430      -0.00479062       0.00306916       0.00340272
C        6.15593413       7.82122570       3.53462172       0.00173203       0.00087050      -0.00469831
C        4.92187800       9.95358743       3.74190552      -0.00815504      -0.00130339      -0.00015906
Cr       2.56901325       5.01804584       4.16239751       0.00542640      -0.01025353      -0.01278165
O        2.85290346       5.46661564       5.67859637       0.00150223      -0.00276847       0.00983442
