50
Lattice="12.336457 0.0 0.0 -6.168228499999997 10.683685154694365 0.0 0.0 0.0 15.0" Properties=species:S:1:pos:R:3:forces:R:3 energy=-447.60805443186433 free_energy=-447.60805443186433 stress="-0.006711182926488049 0.00036075665841935593 -7.335804160138105e-06 0.00036075665841935593 0.0037824368312974308 8.02434816898973e-07 -7.335804160138105e-06 8.02434816898973e-07 7.545090240025503e-06" pbc="T T T"
C       -0.00534210       0.01719091       3.70110350      -0.00557038      -0.00313026       0.01204597
C       -1.26052773       2.12156625       3.69945831       0.00335167      -0.00122051       0.00094554
C       -2.49765483       4.26990772       3.65806508       0.00982601      -0.00064258       0.00815147
C       -3.71338253       6.42393681       3.63048730      -0.00088506      -0.00389139      -0.00174967
C       -4.93661705       8.57566844       3.65695600      -0.00046813      -0.00472437      -0.00036794
C        2.46855113       0.05689512       3.72363213       0.00078487       0.00530337       0.00789735
C        1.22403426       2.21212176       3.79408512      -0.00348796       0.00207485       0.01238889
C       -0.05961991       4.26154833       3.81410740      -0.00629645       0.00841893       0.00454098
C       -1.28581009       6.42913417       3.73969734      -0.00031220       0.00285949      -0.00409676
C       -2.48706990       8.57369819       3.70419146       0.00695459      -0.00807349      -0.00498920
C        4.92740322       0.00777410       3.74912458      -0.00224635      -0.00364226       0.00432975
C        3.73159667       2.14459232       3.76012700       0.00665525       0.00763580       0.00462259
C        1.13917614       6.39246944       3.96965709       0.00296860      -0.00349145       0.00213013
C       -0.01745852       8.53337833       3.80298921      -0.00066116       0.00027574      -0.00020336
C        7.40202500      -0.03545269       3.75571470       0.00120283      -0.00324997      -0.00650703
C        6.17868114       2.12244543       3.71066944      -0.00531753       0.00042225      -0.00940019
C        4.99537187       4.27538077       3.69849854      -0.00195736      -0.00229128      -0.00412963
N        3.78007009       6.39420063       3.80749511       0.01005469       0.00593592      -0.01374142
C        2.47443134       8.48285023       3.83042303      -0.00567172       0.00410961      -0.00361708
C        9.85738308      -0.03352888       3.72216328       0.00599705       0.00283019      -0.00147715
C        8.62674457       2.11657085       3.67637218      -0.00207401      -0.00093138       0.00370843
C        7.40216504       4.27554658       3.63452217       0.00018912       0.00373223       0.00131106
C        6.18465726       6.42130073       3.63051624      -0.00937604      -0.00248635      -0.00645848
C        4.93811209       8.53069244       3.70888200      -0.00414064      -0.00057880      -0.00425196
C       -0.01032875       1.44180080       3.72683344      -0.00220263      -0.00351113       0.00707524
C       -1.28616046       3.54340523       3.70643874       0.00754686      -0.00146268      -0.00441136
C       -2.49781591       5.70423555       3.66325858       0.00192602      -0.00116065       0.00759716
C       -3.71074111       7.85606247       3.65496807       0.00448393      -0.00570019       0.00081743
C       -4.93243827      10.00774034       3.69198553      -0.00298977       0.00048931       0.00734525
C        2.48783645       1.49423954       3.77009193       0.00575106       0.01111595      -0.00158692
C        1.14545626       3.58831179       3.89584113      -0.01162611       0.00184766      -0.00105386
C       -0.06416371       5.70922758       3.84496371      -0.00355388       0.00793254      -0.00077184
C       -1.26278654       7.85092079       3.74842720       0.00529671      -0.00254487      -0.00335067
C       -2.47953544      10.00556405       3.72604309      -0.00056571      -0.00626616      -0.00194858
C        4.93632702       1.43819442       3.74287254      -0.00083750      -0.00140638       0.00142187
O        3.78882264       3.55642257       3.67565240       0.00513873      -0.00077402      -0.00606521
C        1.21978706       7.77629485       3.87663069      -0.00489490       0.00044923       0.00740350
C       -0.00714291       9.95486923       3.77027892      -0.00068481      -0.00081136       0.00411751
C        7.39525699       1.39952271       3.71007300      -0.00530178      -0.00275931       0.00209697
C        6.17955595       3.55056441       3.67629803      -0.00242804       0.00211207      -0.01355165
C        4.96620690       5.69913509       3.69065716      -0.00227413      -0.00441865      -0.00748217
C        3.72412490       7.76697346       3.78661855      -0.00164518       0.00542355      -0.00312059
C        2.46546627       9.91376757       3.76772265       0.00564272       0.00409937       0.00287156
C        9.84986062       1.39490153       3.69146334       0.00220437       0.00164855       0.00226320
C        8.62034212       3.55050827       3.64402660       0.00492802       0.00261465      -0.00137056
C        7.39989906       5.69954667       3.61366152      -0.00680109       0.00278192       0.00848270
C        6.17461073       7.84623532       3.65484436      -0.00642434      -0.00383023      -0.00334262
C        4.92917198       9.95789327       3.70819219      -0.00155121      -0.00304492       0.00172706
Cr       2.52216181       5.03101190       4.42441336       0.00619378      -0.00768063       0.00105143
O        2.78599024       4.91052741       6.00132728       0.00514920      -0.00038792      -0.00729715
