49
Lattice="12.336457 0.0 0.0 -6.168228499999997 10.683685154694365 0.0 0.0 0.0 15.0" Properties=species:S:1:pos:R:3:forces:R:3 energy=-436.94220109706106 free_energy=-436.94220109706106 stress="-0.0031792827066838107 -0.005152330706863768 4.638143859846499e-06 -0.005152330706863768 0.002937916676519194 7.69707260914734e-06 4.638143859846499e-06 7.69707260914734e-06 1.4572840753888846e-06" pbc="T T T"
C       -0.00756961      -0.00063267       3.84928038      -0.00165999      -0.00080978       0.00669200
C       -1.27601187       2.11090609       3.88061320      -0.00432700      -0.01879918      -0.00128168
C       -2.48212011       4.25853432       3.75436470       0.00354707       0.00633049       0.00931092
C       -3.66986725       6.41536966       3.65694755       0.00076216       0.00648786       0.00690574
C       -4.90964087       8.56409319       3.71962183      -0.00100102      -0.00007328      -0.00906798
C        2.47020864       0.00521403       3.89428389       0.00298759      -0.00299077      -0.00206525
C        1.19790074       2.15216891       4.06799806       0.00538287       0.00416320       0.01560119
C       -0.04141388       4.23033334       4.10148186      -0.00603925       0.00514308      -0.00770559
C       -1.23626118       6.40316339       3.87161611       0.00124998       0.00341569       0.00338520
C       -2.44896421       8.55070914       3.80683262       0.00666541      -0.01200274       0.00235721
C        4.93847494      -0.00107751       3.75655402       0.00271001      -0.00060535      -0.00614139
C        3.64874138       2.11312657       3.64651012       0.00581563       0.01900121       0.00069607
C        1.20637349       6.35015121       4.21782633      -0.00722957       0.00212071       0.00470802
C        0.02909750       8.50558830       3.86111886      -0.00536267      -0.00401913      -0.00150062
C        7.39888589      -0.03102088       3.69842102       0.00735400       0.00480958       0.00580323
C        6.13954894       2.15223881       3.53485105      -0.00549855      -0.01561871      -0.00469428
C        5.00471888       4.39503321       3.26413346      -0.00890259      -0.01201674      -0.00220587
O        3.83371071       6.48900419       3.25920886       0.00908093       0.01033437      -0.00575944
C        2.50444685       8.46769210       3.74342025      -0.00808757       0.00945863       0.00792809
C        9.85125830      -0.03297917       3.72778752       0.00591929      -0.00499621       0.00163362
C        8.61008162       2.12084767       3.65837767       0.00115752      -0.00095991       0.00180872
C        7.41126105       4.28512006       3.50399583      -0.00657427      -0.00078461       0.01314906
C        6.24087423       6.46378758       3.41432854      -0.00354473       0.00946132      -0.01185001
C        4.96259716       8.55080476       3.61293215      -0.00110711       0.00794070      -0.00314318
C       -0.03137180       1.41630252       3.95903187       0.00518428      -0.00444323      -0.01181833
C       -1.27715946       3.53098355       3.90764313      -0.00172503      -0.01161561      -0.00988607
C       -2.45572971       5.68951712       3.75382906       0.00384884       0.01103712       0.01251314
C       -3.67262209       7.84282634       3.72901876       0.00242163       0.00023160      -0.00500731
C       -4.92840128       9.98200024       3.84382942      -0.00266372      -0.00379242       0.01084391
C        2.44688241       1.43076334       3.93111799       0.00690802       0.00410561       0.00188416
C        1.13723084       3.52112508       4.30229014      -0.00804226       0.00647439      -0.00047815
C       -0.00839018       5.68548446       4.06490038      -0.00353489       0.00625825      -0.00818419
C       -1.21664206       7.82426986       3.84637732       0.00084442      -0.00600071      -0.00225374
C       -2.45801128       9.97728737       3.82964462       0.00735911      -0.01029970      -0.00517065
C        4.91082726       1.44110216       3.63191557      -0.00366723       0.00415777      -0.00074049
S        3.42153545       3.75754706       3.11459034       0.01494482      -0.00339104       0.01192573
C        1.26822945       7.72520030       3.94277589      -0.00760679      -0.00194690      -0.00993761
C        0.00773022       9.94077419       3.76581294       0.00477005      -0.00139310      -0.00475226
C        7.37130773       1.41325389       3.61854239       0.00326836      -0.00350947      -0.00143744
C        6.16148934       3.59173709       3.41932871      -0.00561281      -0.01881000      -0.00323783
C        5.04087043       5.79745289       3.26051702      -0.00398947      -0.00002401       0.01260289
C        3.76312431       7.83571008       3.55811084      -0.00382169       0.01155945       0.00249772
C        2.46720823       9.90897442       3.71064511       0.00587272       0.00716082       0.00458156
C        9.83470518       1.39776048       3.75339648      -0.00506110      -0.01206556       0.00372954
C        8.62637163       3.55123259       3.63219365       0.00176758       0.00582421       0.00046559
C        7.44426273       5.70777892       3.51254929      -0.00427382       0.00760253      -0.00178986
C        6.21328118       7.86990155       3.57343464      -0.00253687       0.00767447      -0.01659869
C        4.92989504       9.96667518       3.74056343       0.00157823       0.00284305      -0.00788825
Cr       2.50443843       4.85471215       5.05015470       0.00046951      -0.01262794       0.00357288
