52
Lattice="12.336457 0.0 0.0 -6.168228499999997 10.683685154694365 0.0 0.0 0.0 15.0" Properties=species:S:1:pos:R:3:forces:R:3 energy=-453.72133019173697 free_energy=-453.72133019173697 stress="-0.00546125032776128 0.0009087474935973791 2.392573286405559e-05 0.0009087474935973791 0.005155253513632588 8.555375178008254e-06 2.392573286405559e-05 8.555375178008254e-06 -5.621695684551837e-06" pbc="T T T"
C        0.03696674      -0.02927704       3.79165765      -0.00459588      -0.00912278      -0.00395530
C       -1.20724044       2.09095513       3.72143359      -0.00257138       0.00013000       0.00322826
C       -2.43675848       4.23745323       3.65522505      -0.00932993      -0.00135342      -0.00223788
C       -3.66418826       6.38250381       3.67629384       0.00473163       0.00560000       0.00285521
C       -4.89012416       8.53447769       3.75062424       0.00707150       0.00793592      -0.00275462
C        2.49955835       0.02616253       3.81489066       0.00621048      -0.00085427      -0.01388033
C        1.24155549       2.11768021       3.79888206       0.00111457      -0.00737694      -0.01153846
C       -0.02830856       4.24935493       3.64770145       0.00020500      -0.00391631      -0.01117978
C       -1.22597586       6.38338834       3.65736490      -0.00308742       0.00545949      -0.00804183
C       -2.43547514       8.53318593       3.73950818      -0.00513892      -0.00185399      -0.00226792
C        4.96743297      -0.01953083       3.80774186      -0.00781129      -0.00585453      -0.00108786
C        3.76906531       2.16433126       3.89459362       0.00009041       0.00475749       0.00281143
O        1.14410861       6.38898375       3.84870994       0.00485056      -0.00090872      -0.01059491
C        0.02216852       8.49807475       3.77726801      -0.00634784       0.00623194      -0.00393542
C        7.44275041      -0.07227431       3.79354719       0.00883968      -0.00623257      -0.01455944
C        6.22402036       2.08386809       3.78873384       0.00279312       0.00090492       0.00084736
C        5.02834836       4.20415134       3.86286498      -0.00317425      -0.00124770       0.00806380
C        3.82500998       6.33494981       3.93391899      -0.00486525       0.00836292      -0.00077546
C        2.47696239       8.43330282       3.83208856       0.00441273      -0.00436110       0.01118204
C        9.89790150      -0.07347488       3.78242133      -0.00378891       0.00571159      -0.00868278
C        8.67692185       2.07972855       3.72601491       0.00222078      -0.00275954      -0.00128335
C        7.45664133       4.22907617       3.70626593       0.00562526      -0.00054420       0.00545405
C        6.24315146       6.38029486       3.74846330      -0.00090804      -0.00657067       0.01066651
C        4.97198502       8.48709400       3.79886233       0.00554410       0.00469537       0.00206035
C        0.03744586       1.40549094       3.77855223      -0.00453737      -0.00931566      -0.01146243
C       -1.21209406       3.51859505       3.66159460      -0.00733312      -0.00042509       0.00166443
C       -2.44329125       5.65897174       3.64928222      -0.00149526       0.00197060      -0.00228011
C       -3.66709415       7.81548644       3.71472514       0.00095424       0.00479956       0.00913469
C       -4.89217222       9.96915571       3.78861676       0.00519621       0.00584186      -0.00174946
C        2.49301510       1.47529829       3.85278388       0.00397044      -0.00067067      -0.00402047
O        1.17941153       3.51971436       3.64180575       0.01043108       0.00546865      -0.01109924
C       -0.04062863       5.65587636       3.66316569      -0.00526628      -0.00206476       0.00071898
C       -1.21912052       7.80945251       3.72168300      -0.00708513       0.00513422       0.00687540
C       -2.44207730       9.97213933       3.79359079      -0.00431426      -0.01011095      -0.00200743
C        4.97539557       1.40920531       3.83114683      -0.00167656      -0.00116660      -0.00159414
N        3.85058704       3.53012365       3.99466962      -0.00662897       0.00349608       0.00469718
C        1.22554545       7.78812136       3.80987490      -0.00261952       0.00399855       0.00241719
C        0.03326029       9.92739513       3.79717598      -0.00057362       0.00464478      -0.00747891
C        7.44889314       1.36198293       3.76631569       0.00594234      -0.00299427       0.00116934
C        6.23976453       3.50002959       3.77030509       0.00098153       0.00352168       0.00125906
C        5.01865608       5.65026296       3.84535859      -0.00809082      -0.00383383       0.01372203
C        3.74257193       7.71933487       3.85239473       0.00836606       0.00785638       0.00858524
C        2.49608660       9.87555487       3.80039926       0.00692602      -0.00713607       0.00290412
C        9.91007785       1.36455810       3.73968054      -0.00014218       0.00218975       0.00610281
C        8.67868841       3.51119213       3.68677459      -0.00246084      -0.00680168       0.00291102
C        7.45562650       5.65895691       3.69673944       0.00946295      -0.00032685       0.01413834
C        6.21981615       7.80641595       3.75881970       0.00795916       0.00093623       0.00932107
C        4.97054933       9.91588417       3.79001931      -0.00758090       0.00143050       0.00281890
Cr       2.53178721       4.89874351       4.30041439       0.01663688       0.00513554      -0.00110663
O        1.76405627       4.67741974       5.97668733      -0.00091798      -0.00080475       0.00071662
O        2.04756095       6.07511482       6.34298673      -0.00939680      -0.00873593       0.00400956
H        2.69031980       5.93526926       7.06682546      -0.00879799       0.00112982      -0.00076085
