49
Lattice="12.336457 0.0 0.0 -6.168228499999997 10.683685154694365 0.0 0.0 0.0 15.0" Properties=species:S:1:pos:R:3:forces:R:3 energy=-436.64417641096037 free_energy=-436.64417641096037 stress="-0.005527014434429542 0.0005999037839309027 4.789174938249811e-06 0.0005999037839309027 -0.0003627719270425588 1.2214558422186898e-05 4.789174938249811e-06 1.2214558422186898e-05 -1.4213244068293262e-06" pbc="T T T"
C       -0.00283672      -0.00329403       3.72683373       0.00115949      -0.00612639       0.00536783
C       -1.24079037       2.12743504       3.54305719      -0.01109072       0.00160394      -0.00094436
C       -2.48889117       4.27104065       3.72731200      -0.00105968       0.00736334      -0.01292764
C       -3.71598933       6.41079030       3.89069194      -0.00325434      -0.00177152      -0.00829110
C       -4.94216214       8.55096387       3.88939898       0.00095863      -0.00409049       0.00169574
C        2.46285648       0.01105973       3.78850638       0.00686754       0.00876352       0.00405560
C        1.23903680       2.05949627       3.29088607      -0.00102509      -0.00567118      -0.00564752
C       -0.12626391       4.32104297       3.19113509      -0.01458902       0.01138519       0.00218987
C       -1.28796637       6.43036964       3.70472715      -0.00315682      -0.00375601      -0.00844363
C       -2.48290514       8.56050616       3.88042101       0.00656296      -0.00072766       0.00772838
C        4.93621182       0.00018476       3.89297694      -0.00108811       0.00028756      -0.00898371
C        3.70958946       2.16425640       3.76908808       0.00384420      -0.00186936       0.00434222
C        1.14525082       6.42150806       3.49864299       0.01165484       0.01199567      -0.00950306
C       -0.01084133       8.53668746       3.82504239      -0.00205104       0.00513342       0.00504116
C        7.41183355      -0.02604781       3.88805690       0.00737781      -0.00383598      -0.01306810
C        6.18212682       2.12481938       3.94366010      -0.00432304      -0.00102999      -0.00945297
C        4.94932157       4.27948880       3.94096843      -0.00227492      -0.01246114       0.00583490
O        3.79399339       6.44137618       4.11720613       0.00232534       0.01114289      -0.01014237
C        2.48822492       8.49429330       3.84151545      -0.00133244       0.00451459      -0.00030002
C        9.86889949      -0.02211145       3.80202032       0.00459569      -0.00856063      -0.00413163
C        8.64101911       2.12300980       3.83725195      -0.00238441      -0.00072034      -0.00558258
C        7.40433387       4.26690409       3.93666649       0.01078200      -0.00172687       0.00755256
C        6.17489739       6.41698089       3.93555609      -0.00747882      -0.00410796       0.00921669
C        4.93889494       8.53586726       3.89589411      -0.01018418      -0.00071598      -0.01498949
C       -0.00665021       1.41439068       3.51920352      -0.00679103      -0.00314282      -0.00284134
C       -1.26667140       3.55797783       3.48921868      -0.00621574       0.00693685       0.00772903
C       -2.49331557       5.69835005       3.78518320      -0.00612366       0.00132064      -0.01463565
C       -3.70975735       7.83981782       3.89571985       0.00485437      -0.00175193       0.01210099
C       -4.93672026       9.97921988       3.80520999       0.00636617       0.00131756       0.00618061
C        2.46586026       1.43243969       3.62342047       0.00680442       0.00730959       0.00163525
S        1.21074442       3.54991854       2.36490288       0.01233581       0.01124252       0.00047425
C       -0.06474383       5.73081803       3.44855942       0.00471260       0.00675231      -0.00097522
C       -1.25547164       7.84585584       3.82170405       0.00122854      -0.00737948       0.00437957
C       -2.47321567       9.98109034       3.87375476       0.00201112       0.00241787       0.00638498
C        4.94442788       1.42248967       3.89109946      -0.00325620      -0.00227646      -0.01012222
C        3.75744969       3.54947373       3.82211913      -0.00872875      -0.00259256       0.00536263
C        1.22363313       7.77989393       3.73689503      -0.00027667       0.01067406       0.00363230
C        0.00076915       9.95570783       3.88894643       0.00170945       0.00465849       0.00294590
C        7.41479559       1.40175504       3.90788963      -0.00373562      -0.00127316      -0.00347811
C        6.19103303       3.54923593       3.97046499       0.00726745      -0.00293189       0.00707544
C        4.97695965       5.70821251       3.93763173      -0.00640843      -0.00595102       0.01040479
C        3.73012222       7.83644944       3.90790647      -0.00489623       0.00331196       0.00674690
C        2.47690751       9.93099626       3.85527290       0.00957814      -0.00367324       0.00023264
C        9.87748024       1.41521781       3.73325743      -0.00492799      -0.00741775       0.00643168
C        8.63442823       3.55120499       3.84993690       0.00953552       0.00100820       0.00124636
C        7.40174748       5.69073103       3.92832234      -0.00128782      -0.00068087       0.00679426
C        6.17528612       7.83955617       3.91788069      -0.00913411      -0.00011085      -0.00446088
C        4.93193321       9.96198930       3.80952546       0.00063863      -0.00668236       0.00602269
Cr       2.62251751       5.05912905       3.41317823       0.00390418      -0.01610428       0.00011639
