49
Lattice="12.336457 0.0 0.0 -6.168228499999997 10.683685154694365 0.0 0.0 0.0 15.0" Properties=species:S:1:pos:R:3:forces:R:3 energy=-434.7091707713927 free_energy=-434.7091707713927 stress="0.0009777196059985952 0.0035177240425874204 6.490199493061048e-07 0.0035177240425874204 0.002949369518723595 -2.233874559381595e-06 6.490199493061048e-07 -2.233874559381595e-06 -2.516150614565242e-06" pbc="T T T"
C       -0.00512703      -0.01640507       3.76114925      -0.00709800      -0.00313070      -0.00651428
C       -1.22621720       2.12952424       3.81706729       0.00362726      -0.01092682       0.00324110
C       -2.45205560       4.26003822       3.82018020      -0.00397255       0.00921250      -0.00412107
C       -3.71110255       6.38701041       3.75688829      -0.00374095       0.00951557       0.00343559
C       -4.95948787       8.52284613       3.72062992       0.00368678       0.00090741       0.00536985
C        2.44763849       0.02962777       3.72580276      -0.00002829       0.00152699       0.00777192
C        1.20396362       2.14651215       3.80141781      -0.00272318      -0.00201128       0.00106921
C        0.00756692       4.25308994       3.92579466       0.00229599      -0.00362093       0.00017652
C       -1.22835244       6.38438074       3.83860179       0.00240257       0.00512895       0.00145361
C       -2.49552239       8.53098709       3.74539004      -0.00201611      -0.00771774      -0.00222051
C        4.90619420      -0.01731266       3.70877353       0.00768477      -0.00359855       0.00743418
C        3.72759286       2.11958450       3.68012143      -0.00037054       0.00733513      -0.00901398
N        1.18988189       6.44140871       4.01711912       0.00583565      -0.00458731       0.00035759
C       -0.04051302       8.52399567       3.76496949      -0.00772254       0.00521089      -0.00454733
C        7.38200742      -0.02661212       3.73684552       0.00604514       0.00303349       0.00424239
C        6.17434897       2.09563612       3.69439268       0.00035031      -0.00073611      -0.00610166
C        4.97475351       4.16265525       3.58739011       0.00405194      -0.00074714      -0.01663172
P        3.66280430       6.35082347       2.59999138       0.00693509      -0.01268417      -0.00740562
C        2.40790075       8.53769344       3.75029727      -0.00965560       0.00198683       0.00535062
C        9.86205734      -0.02238803       3.76729356      -0.01042457       0.00026989      -0.00699479
C        8.64171418       2.11302007       3.76448510       0.00137311      -0.00642272       0.00249201
C        7.41498430       4.24174166       3.72394739      -0.00185892       0.00115987      -0.00346479
C        6.14879059       6.35543218       3.66850623      -0.00167226      -0.00694743      -0.00315661
C        4.90907187       8.50743114       3.71310268       0.00422462       0.00963871       0.00360726
C        0.01131926       1.42708635       3.79294906      -0.00020147      -0.00992442       0.01249533
C       -1.20799214       3.55570263       3.86025105      -0.00019966      -0.00372215      -0.00218804
C       -2.46271114       5.67867021       3.80691200      -0.00288926       0.01405716      -0.00276015
C       -3.72578782       7.81419211       3.74003997      -0.00099848       0.00236019       0.00631601
C       -4.94525026       9.96510371       3.73546567      -0.00383074       0.00128977       0.00437282
C        2.45662529       1.48173261       3.73292401      -0.00164824       0.00880589       0.00433004
O        1.17675760       3.52796020       3.90842456       0.01251726       0.00173744      -0.00856393
C        0.02420488       5.68906083       3.94611958       0.00204027      -0.00380401       0.00258572
C       -1.26362264       7.81157569       3.78211107      -0.00345091       0.00100547      -0.00151662
C       -2.49953720       9.97113458       3.71957251       0.00339229      -0.00814920       0.00989214
C        4.91880763       1.40933891       3.68818630      -0.00129296       0.00132189      -0.00485677
O        3.78280237       3.48832529       3.60419899       0.00424181       0.00728057      -0.01356887
C        1.17314499       7.80982135       3.82679303      -0.01197873       0.00096859       0.00736864
C       -0.02669143       9.95016209       3.72722965       0.01048444       0.00382825       0.00083548
C        7.39776132       1.39526432       3.73176290       0.00102155      -0.00042741       0.00213451
C        6.18682389       3.50352317       3.66943049       0.00153164      -0.00092752      -0.00875582
C        4.91612566       5.58585844       3.60850512      -0.00141492      -0.00851723      -0.00724921
C        3.63949944       7.78236829       3.70441166      -0.00221052       0.01127818       0.00521941
C        2.44413553       9.94749674       3.75260128      -0.00485503       0.00199821       0.00092432
C        9.88081393       1.40742863       3.78469577       0.00081442      -0.00931514       0.00756051
C        8.64958004       3.53877920       3.77185771      -0.00483685      -0.00207879       0.00066124
C        7.39033949       5.66571786       3.72198838       0.00029891       0.00128626       0.00269933
C        6.13743681       7.79107893       3.69403238       0.00816938      -0.00200572       0.00457116
C        4.92338415       9.93751007       3.75760196      -0.00793591       0.00699517       0.01104748
Cr       2.95653056       6.03293588       4.79649696       0.00600194      -0.00713674      -0.00938425
