49
Lattice="12.336457 0.0 0.0 -6.168228499999997 10.683685154694365 0.0 0.0 0.0 15.0" Properties=species:S:1:pos:R:3:forces:R:3 energy=-440.28970206278683 free_energy=-440.28970206278683 stress="-0.004393669591660179 -0.0007581593115582592 -6.4979611951892765e-06 -0.0007581593115582592 0.003300843665830443 -6.569916061934848e-06 -6.4979611951892765e-06 -6.569916061934848e-06 3.059508180362385e-06" pbc="T T T"
C       -0.00246160       0.01239033       3.85127202       0.00482759      -0.00442102      -0.00062597
C       -1.25137415       2.12401155       3.89182508       0.00208998       0.00496981       0.00182145
C       -2.47943772       4.26580569       3.96022308      -0.00530577      -0.00090075      -0.01247015
C       -3.69585823       6.41744640       3.94865701      -0.00132589      -0.00483415       0.00398211
C       -4.92841160       8.56831952       3.90889967       0.00090794      -0.00631950      -0.01038517
C        2.46289517       0.03211734       3.79608073      -0.01184695       0.00317268      -0.00509927
C        1.20288791       2.19271587       3.73163231       0.01604338       0.00273197       0.00197386
C       -0.03480596       4.25424815       3.90067303       0.00076594      -0.00085174       0.00982501
C       -1.25293171       6.41462597       3.96897787      -0.00242447      -0.00832575       0.00654741
C       -2.46908590       8.55860443       3.91561269      -0.00198615       0.00797279       0.00198163
C        4.93275447      -0.00650074       3.72957465      -0.00305459      -0.00249676       0.00138914
C        3.69317305       2.07397199       3.29667783       0.00026679       0.01659464       0.00085789
N        1.13930407       6.39631026       3.81484548      -0.00549902       0.01117981       0.00083606
C       -0.00234138       8.51926607       3.85252021       0.00283592       0.00828878       0.00102009
C        7.40030905      -0.03395638       3.76539802       0.01083440       0.00585488       0.00324976
C        6.16961596       2.12816466       3.56977752      -0.00410096      -0.00562738      -0.00108594
C        5.05209762       4.34119311       3.27985600       0.00037970      -0.00258545       0.00261122
N        3.80369659       6.41068237       3.59752035      -0.00472954       0.00667069      -0.00003369
C        2.46502975       8.47276588       3.78214375      -0.00515225      -0.00856456      -0.00518058
C        9.85723139      -0.03190010       3.83218826      -0.00043222      -0.01195666      -0.00061424
C        8.62498559       2.11902805       3.83018072      -0.00292604       0.00842094      -0.01108649
C        7.41463404       4.27381072       3.78729566       0.00959023       0.00114243       0.00684680
C        6.20911329       6.43740027       3.77101460       0.00622171       0.00719537      -0.00525112
C        4.93878959       8.53260352       3.81419189      -0.00454778      -0.00792397       0.00250113
C       -0.00695247       1.44431714       3.83341961       0.01048146       0.00429015       0.00909924
C       -1.25594491       3.54323136       3.94125460      -0.00503157       0.00646691      -0.00687134
C       -2.47634388       5.69331620       3.98089515      -0.00554455      -0.00877800       0.00070219
C       -3.69895980       7.84702243       3.94101143       0.00069734      -0.00098130      -0.00073257
C       -4.93315853       9.99679381       3.87335288      -0.00365657      -0.00917637      -0.01531440
C        2.45418255       1.46426775       3.61683836       0.00882610       0.00567215       0.00496195
N        1.15096626       3.57114217       3.78988209       0.00600446       0.00264716      -0.00938000
C       -0.04101730       5.70257388       3.91195597       0.00401815      -0.00140928       0.01546747
C       -1.24146474       7.83655709       3.92443536       0.00284819      -0.00073450       0.00218544
C       -2.47328086       9.98808357       3.81943381      -0.01320421       0.00971498       0.00091817
C        4.93323464       1.41524540       3.53161128      -0.00712815      -0.00503751       0.00316881
S        3.75945452       3.57085773       2.36004738      -0.01075909      -0.01576846       0.00230160
C        1.21330411       7.77065930       3.81355069      -0.00401750       0.00633741       0.00279100
C        0.00035949       9.94734864       3.78533445       0.01072243       0.00785646       0.00143492
C        7.38922297       1.40621600       3.72784384      -0.00096458       0.00741829       0.00391130
C        6.19226405       3.56413460       3.55602153       0.00621328      -0.00035441       0.00353278
C        5.00947984       5.74380896       3.53547159      -0.00236843       0.00699027       0.00107905
C        3.72414486       7.77685087       3.74316740      -0.00777576       0.00299028      -0.00552225
C        2.46181612       9.91409462       3.79892221       0.00021928      -0.01431524       0.00102267
C        9.85550320       1.40032403       3.86514942      -0.00544598      -0.00048660      -0.00185039
C        8.63007012       3.54837122       3.87952554       0.00324225       0.00254877      -0.01031772
C        7.42018285       5.70126501       3.84984091       0.00353966      -0.00032666       0.01168901
C        6.18310648       7.85224926       3.85136916       0.00089852       0.00159880      -0.00535733
C        4.92994622       9.95997905       3.84310589       0.00404024      -0.01232720       0.00731370
Cr       2.44746824       5.04671413       3.58424056       0.00271306      -0.01422321      -0.00984425
