50
Lattice="12.336457 0.0 0.0 -6.168228499999997 10.683685154694365 0.0 0.0 0.0 15.0" Properties=species:S:1:pos:R:3:forces:R:3 energy=-440.17459078425304 free_energy=-440.17459078425304 stress="-0.0043211828602522226 -0.002400432390561964 8.332802165450277e-07 -0.002400432390561964 0.002319494377893823 -5.5112258217454985e-06 8.332802165450277e-07 -5.5112258217454985e-06 -1.0763206918653024e-05" pbc="T T T"
C       -0.00881990       0.00284718       3.84844367      -0.00890579       0.00555991      -0.00227814
C       -1.26673148       2.12537278       3.87664054       0.00293960       0.00536405      -0.00145889
C       -2.48513275       4.27365626       3.87595193       0.00728806      -0.00401957      -0.00428661
C       -3.68806959       6.41936212       3.83959951      -0.00492810      -0.00535841      -0.00000829
C       -4.92372047       8.56698993       3.84282818       0.00221348       0.00837322      -0.00261424
C        2.45407040       0.03354123       3.81504677       0.00958293      -0.00711224       0.00415493
C        1.17939445       2.12811077       3.79804536       0.00203905      -0.00270624      -0.00138740
C       -0.07939968       4.27086843       3.95117954      -0.00506999      -0.00086477      -0.00733689
C       -1.23866035       6.40565852       3.94210714      -0.00078407      -0.00126346      -0.00160316
C       -2.45796418       8.55585195       3.87615633       0.00573649       0.00629139      -0.00012794
C        4.92865276       0.00528343       3.73108066       0.00610760       0.00185653      -0.00134352
C        3.67436617       2.11265554       3.40267764      -0.00617782      -0.00612585      -0.00828510
O        1.15993194       6.40215579       3.81566165       0.00722991       0.01163270      -0.00242267
C        0.00520060       8.52674341       3.86007035      -0.00338419      -0.00301590      -0.00884219
C        7.39628791      -0.02426770       3.74867041      -0.00450957      -0.01067246       0.00018327
C        6.16229806       2.13840616       3.54546198       0.00115421      -0.00253661       0.00499374
C        5.00780718       4.34719645       3.32779689      -0.00248530      -0.00129511       0.00623126
N        3.81367528       6.42383256       3.68424327       0.00352436       0.00089224       0.00083475
C        2.45385078       8.47596801       3.80987420       0.00392609       0.00002103       0.00960853
C        9.84858933      -0.02822619       3.81302504      -0.00326657       0.00504052      -0.00463715
C        8.61629814       2.12655178       3.75989131       0.00317067       0.00221776       0.00276931
C        7.40967643       4.28148076       3.67232286       0.00284454       0.00056639       0.00289455
C        6.21664735       6.45037760       3.66960805      -0.01021327       0.00372175       0.00383354
C        4.93720208       8.53741508       3.78296092      -0.00320660      -0.00627206       0.00361552
C       -0.02087737       1.43293724       3.85637378      -0.00090442       0.00572967      -0.00165231
C       -1.26873037       3.54877660       3.91777512      -0.00061441      -0.00356732      -0.00852563
C       -2.46797449       5.69201155       3.89672187       0.00059403      -0.00671592       0.00111858
C       -3.69270222       7.84717662       3.86383829       0.00395549       0.00201262      -0.00226521
C       -4.93578582       9.99591228       3.85517119      -0.00182529       0.01018730       0.00165382
C        2.43054600       1.46477375       3.69729990       0.00104525      -0.01333348      -0.00445749
O        1.12273655       3.53413252       3.89152851      -0.01015732      -0.00341452      -0.00334246
C       -0.05800441       5.67188559       3.95894248       0.00213456       0.00136939      -0.00613564
C       -1.23745519       7.83342963       3.90114830      -0.00142979       0.00040408      -0.00134068
C       -2.47535755       9.99142288       3.81554920       0.01266195       0.00273001      -0.00146902
C        4.91771968       1.43122211       3.55079940      -0.00160020      -0.00181350      -0.00893582
P        3.62270263       3.64464684       2.51431856       0.00774500       0.00937103      -0.00052071
C        1.21055692       7.82967522       3.85485889       0.00292642       0.00647073      -0.00350261
C       -0.00351131       9.96337227       3.78147580      -0.00408685      -0.00762614      -0.00419444
C        7.38552856       1.41575982       3.68179680       0.00127820      -0.00664471       0.00892313
C        6.18471658       3.57382592       3.49924925       0.00257055      -0.00042466       0.00589101
C        5.01062694       5.76874473       3.52260098      -0.00494372      -0.00083547       0.00418187
C        3.73176116       7.79100955       3.76236883       0.00097611      -0.00452213       0.01078691
C        2.45302743       9.92346244       3.79151942      -0.00115673      -0.00127040       0.00528144
C        9.85071673       1.40915396       3.82532869       0.00422130       0.00780334      -0.00037311
C        8.62176726       3.55720911       3.77444379       0.00715531       0.00198320       0.00175133
C        7.42667445       5.70908637       3.72550775      -0.01150096       0.00086577       0.00076032
C        6.18978789       7.85799310       3.77448589      -0.00060498       0.00304868       0.00391579
C        4.92464381       9.96156663       3.82626597      -0.00908991      -0.00447603      -0.00474784
Cr       2.54625027       5.10970614       4.19416423      -0.00765601      -0.00689237      -0.00067528
O        2.80025739       4.70878631       5.75058616       0.00348071       0.00926599       0.01538683
