51
Lattice="12.336457 0.0 0.0 -6.168228499999997 10.683685154694365 0.0 0.0 0.0 15.0" Properties=species:S:1:pos:R:3:initial_magmoms:R:1:forces:R:3 energy=-445.19375888418796 free_energy=-445.19375888418796 stress="-0.0028095724977610765 0.002011496827224175 -6.040751824409174e-06 0.002011496827224175 0.0033627428970619496 -5.306026745709498e-06 -6.040751824409174e-06 -5.306026745709498e-06 3.0097753693361487e-06" pbc="T T T"
C       -0.00359519       0.04243249       3.78218694       0.00000000      -0.00569047       0.00660815      -0.00127763
C       -1.23955841       2.17010451       3.90176160       0.00000000      -0.00082685      -0.00032028      -0.00006927
C       -2.47086249       4.31576312       3.92562269       0.00000000      -0.00400725      -0.00017158      -0.00116383
C       -3.71490181       6.45137221       3.80971044       0.00000000       0.00112426       0.00346590      -0.00150558
C       -4.94986163       8.59072128       3.70713899       0.00000000       0.00742711       0.00837111       0.00068892
C        2.45606018       0.09179151       3.81219481       0.00000000      -0.00443815      -0.00122902       0.00367405
C        1.20083506       2.18611272       3.83108278       0.00000000      -0.00809295      -0.00228116      -0.00132238
C       -0.05598713       4.31813875       3.94353453       0.00000000       0.00287575      -0.00530691      -0.00444773
C       -1.26404671       6.45929487       3.94336885       0.00000000       0.00815366       0.01129120      -0.00787030
C       -2.49146051       8.60117460       3.86365224       0.00000000      -0.00286331      -0.00321031      -0.00343923
C        4.92035283       0.04504860       3.86552809       0.00000000      -0.00027724      -0.00978494       0.00487807
C        3.73816397       2.18410603       3.78634814       0.00000000       0.00342810      -0.00335910      -0.00992978
N        1.13826392       6.47019259       3.94487420       0.00000000      -0.00471889      -0.00968520      -0.00164405
C       -0.02486734       8.57306101       3.88997171       0.00000000      -0.00597526       0.00011820       0.00633951
C        7.39832689       0.01420760       3.87904337       0.00000000      -0.00360768       0.00243040       0.00533590
C        6.18526214       2.15297643       3.79735136       0.00000000       0.00759977       0.00255578      -0.00143982
C        5.03414799       4.24728092       3.41748385       0.00000000      -0.00146934       0.00134057      -0.00807388
P        3.63758940       6.41144253       2.44698833       0.00000000       0.00635475      -0.00917055      -0.00132923
C        2.44272223       8.55121196       3.70854412       0.00000000      -0.00730453       0.00500882       0.01031213
C        9.86229798       0.01777930       3.82115882       0.00000000       0.00641985       0.00436784      -0.00020254
C        8.63927486       2.16218890       3.88626703       0.00000000       0.00369973      -0.00711408      -0.00391426
C        7.42250994       4.30195933       3.74641724       0.00000000      -0.01014891       0.00211331       0.00080495
C        6.18185185       6.43059243       3.50381075       0.00000000      -0.00437971      -0.00290132      -0.00835763
C        4.92238212       8.57573394       3.56209321       0.00000000       0.01245539       0.00058631      -0.00334513
C        0.00559187       1.48076329       3.84874932       0.00000000      -0.00988911       0.00156817      -0.00724580
C       -1.23934765       3.59600511       3.94893945       0.00000000       0.00104800      -0.00282836       0.00438805
C       -2.48270744       5.73711164       3.90860356       0.00000000       0.00850513       0.00761038      -0.00700423
C       -3.71943741       7.88142353       3.79409136       0.00000000       0.00008716       0.00163355       0.00949837
C       -4.93680827      10.03258943       3.76260049       0.00000000      -0.00583787       0.00831751       0.00726733
C        2.46502851       1.55238438       3.81539147       0.00000000      -0.00643009       0.00120755      -0.00062012
O        1.13221793       3.58956504       3.76738706       0.00000000       0.01243295       0.00025810       0.01185450
C       -0.03982493       5.74674098       3.96518234       0.00000000      -0.00148570      -0.00632536      -0.00452098
C       -1.26163589       7.88166245       3.91362359       0.00000000      -0.00252263       0.00815467      -0.00606187
C       -2.48975840      10.03982727       3.84845824       0.00000000      -0.00362147      -0.00875200      -0.00387015
C        4.92869865       1.47508986       3.82109588       0.00000000       0.00721506      -0.00338652       0.00254348
O        3.81703676       3.57036158       3.60109239       0.00000000       0.00687939       0.00460234       0.00028061
C        1.18948208       7.83572427       3.84166575       0.00000000      -0.01245598      -0.00689720       0.00046479
C       -0.01344355      10.00020691       3.88016647       0.00000000      -0.00087489      -0.00420221       0.00760583
C        7.40249915       1.44363016       3.86968343       0.00000000       0.00398120      -0.00093820      -0.00696109
C        6.20921598       3.55883931       3.65346975       0.00000000      -0.00354288       0.00217794      -0.00124972
C        5.00116570       5.65360351       3.28768979       0.00000000      -0.01181217      -0.00214460      -0.00384674
C        3.67247574       7.89338320       3.42321126       0.00000000      -0.00053181       0.00456679       0.00327519
C        2.45627415       9.97993832       3.82574763       0.00000000      -0.00079456       0.01039363       0.01036502
C        9.87465432       1.45101671       3.88665191       0.00000000       0.00643629      -0.00094661      -0.00392542
C        8.64421620       3.59160232       3.86901385       0.00000000      -0.01043579      -0.00486427       0.00512464
C        7.40494021       5.72615179       3.69600528       0.00000000      -0.00616014       0.00269307       0.00160719
C        6.16092613       7.86374161       3.56236411       0.00000000       0.01359692      -0.00180389       0.00571066
C        4.92929178      10.00135527       3.73522286       0.00000000       0.00511125       0.00135127       0.00467533
Cr       2.51418259       5.15578734       4.15466053       0.00000000       0.00550715      -0.00715817       0.00235373
O        2.63897231       4.50706310       5.99475105       1.00000000      -0.00503989       0.01156010      -0.00306013
O        3.52021184       5.52989978       5.74716333       1.00000000       0.01489666      -0.00957089      -0.00134974
