50
Lattice="12.336457 0.0 0.0 -6.168228499999997 10.683685154694365 0.0 0.0 0.0 15.0" Properties=species:S:1:pos:R:3:forces:R:3 energy=-440.37846116035684 free_energy=-440.37846116035684 stress="-0.0016275481940941183 0.0029640322569206884 -3.088757404768104e-05 0.0029640322569206884 0.002240824635279835 -1.6302331718498608e-06 -3.088757404768104e-05 -1.6302331718498608e-06 -2.1843051417540805e-07" pbc="T T T"
C       -0.00169597      -0.00299262       3.72506194       0.01238349      -0.00956271      -0.00204096
C       -1.22961396       2.12963065       3.82117404      -0.00410054       0.00961596       0.00518062
C       -2.45850009       4.26661025       3.83076882      -0.00948701      -0.00757764      -0.00245264
C       -3.71234670       6.39787115       3.74419637       0.00227580      -0.00089506      -0.00901365
C       -4.95625812       8.53507731       3.66930740       0.00460572      -0.01074936       0.00030497
C        2.45320071       0.03835477       3.75221661       0.00220342       0.00775739      -0.00027611
C        1.20522129       2.15059038       3.84629103      -0.00777688       0.00341748      -0.00640798
C       -0.02302784       4.25880855       3.97704224       0.00476100      -0.00408073       0.00095648
C       -1.24770545       6.39788017       3.87546493       0.00600126      -0.00560244      -0.00579457
C       -2.49207520       8.54224318       3.77609148      -0.00397262       0.00720072       0.00519419
C        4.91731612      -0.01415098       3.77428260      -0.00402173      -0.00191030       0.00332758
C        3.73848850       2.12333461       3.73672531       0.00046075       0.00242432       0.00248966
N        1.14998721       6.43101912       4.08968809       0.00854620      -0.00591053      -0.00330838
C       -0.02783995       8.52367731       3.82832236      -0.00023796       0.00734077       0.00641283
C        7.39560307      -0.02944103       3.79787949       0.00366848       0.00559282      -0.00718696
C        6.18602539       2.09678936       3.73623763       0.00096050      -0.00200634      -0.00096767
C        5.00379924       4.17804807       3.56084335      -0.00754904       0.00615595       0.00243098
P        3.50500737       6.24119306       2.76627472      -0.00604730      -0.01323805      -0.00195711
C        2.43270988       8.52055615       3.70743795      -0.00182844      -0.00164105       0.00228015
C        9.86554488      -0.02174859       3.74601084       0.00164695       0.00925338       0.00414788
C        8.64499447       2.11586106       3.78979683       0.00047988      -0.00939240       0.00501126
C        7.42246817       4.25080273       3.71095228       0.00122256      -0.00510637       0.00282833
C        6.16298666       6.36952327       3.56076453      -0.00317864       0.00584907      -0.00330782
C        4.91764253       8.52713550       3.55383923      -0.00830417       0.00375507       0.00133576
C        0.01355122       1.43779818       3.79645605      -0.00525067      -0.00150500       0.00178286
C       -1.22311442       3.55321519       3.87669375      -0.00342532       0.00663526       0.00229900
C       -2.47206786       5.68607121       3.82018799      -0.00005385      -0.00586725      -0.00758665
C       -3.72257106       7.82588279       3.72968420       0.00369834      -0.00202292      -0.00085888
C       -4.94059859       9.97900497       3.71287061       0.01520964      -0.01154336      -0.00505932
C        2.46241343       1.49230131       3.78267260      -0.00377486       0.01043255      -0.00786587
O        1.15784999       3.53789255       3.97479586       0.00718827       0.00437843       0.00046540
C       -0.01623429       5.69248434       3.99973969       0.00979533      -0.01105713      -0.00676126
C       -1.26210258       7.82303986       3.83221761      -0.00145426       0.00440388       0.00434692
C       -2.49290926       9.98099139       3.76373293      -0.00624066       0.00596423       0.00690357
C        4.93010427       1.41250916       3.74507042       0.00089200      -0.00427377      -0.00225926
O        3.79997400       3.49867098       3.64332165      -0.01103900       0.00531126      -0.00419749
C        1.18490182       7.79710022       3.86199417      -0.00159424      -0.00240041       0.00337186
C       -0.01539637       9.95010635       3.79675981       0.00085397       0.00923184       0.00581462
C        7.40619903       1.39553091       3.78051969       0.00258044       0.00021965       0.00135590
C        6.20576484       3.50458885       3.66733613      -0.00607349       0.00146827       0.00110403
C        4.97125179       5.58710998       3.46854183      -0.00740978       0.00590616      -0.00047498
C        3.66241360       7.85314202       3.45485753      -0.00084002      -0.00789387       0.01581514
C        2.45476395       9.94541775       3.76636905       0.00200480       0.00288263      -0.00373468
C        9.88194295       1.40954002       3.79128353       0.00145224       0.00642284       0.00209893
C        8.65142766       3.54352729       3.78190271      -0.00361243      -0.01602351      -0.00158141
C        7.40131859       5.67341349       3.67828837       0.00028498       0.00058441      -0.00639494
C        6.15111353       7.80716003       3.57358837      -0.00488538       0.00250172      -0.00467117
C        4.93038135       9.95702729       3.68031493       0.00127097       0.00569876       0.00172235
Cr       2.61670653       5.49015836       4.94506060       0.00030438       0.00340404       0.00703254
O        3.24490753       6.35112703       6.15028636       0.01740695      -0.00354865      -0.00185406
