51
Lattice="12.336457 0.0 0.0 -6.168228499999997 10.683685154694365 0.0 0.0 0.0 15.0" Properties=species:S:1:pos:R:3:initial_magmoms:R:1:forces:R:3 energy=-445.10100064484743 free_energy=-445.10100064484743 stress="-0.004307581594146663 -0.002703535453967703 -1.8154828591983639e-06 -0.002703535453967703 0.0025599729088211847 -1.4227757512344734e-05 -1.8154828591983639e-06 -1.4227757512344734e-05 4.388738007203965e-06" pbc="T T T"
C       -0.00814806       0.01466788       3.85144200       0.00000000       0.00519126       0.00285142      -0.01306123
C       -1.26656413       2.13474147       3.85567124       0.00000000       0.00688918       0.00547337      -0.01173866
C       -2.48406767       4.28332324       3.81049591       0.00000000       0.00263445       0.00439610      -0.00225242
C       -3.68507662       6.43145604       3.78548366       0.00000000      -0.00253736      -0.00280833      -0.00256706
C       -4.91981999       8.58075218       3.82209662       0.00000000       0.00265662      -0.00258521      -0.00090325
C        2.45771484       0.04805868       3.81315254       0.00000000      -0.00141626       0.00588594      -0.01161203
C        1.17929810       2.14406300       3.83360342       0.00000000       0.00157886       0.00070204      -0.00493009
C       -0.07775042       4.27773637       3.90107617       0.00000000       0.00922138      -0.00418389      -0.00221783
C       -1.23395979       6.41500891       3.85209613       0.00000000       0.00066374      -0.00676436       0.00604170
C       -2.45550449       8.56804503       3.82391747       0.00000000       0.00612301      -0.00093133      -0.00017789
C        4.93002044       0.01790232       3.69611292       0.00000000      -0.00075063       0.00116958       0.00505571
C        3.67265029       2.13641064       3.41002728       0.00000000      -0.00871925      -0.00061321      -0.00778983
O        1.15203128       6.41775087       3.69583522       0.00000000      -0.00551719       0.01690507       0.00640679
C        0.00688087       8.53782385       3.79202523       0.00000000      -0.00018751      -0.00026492       0.00782714
C        7.39770598      -0.01260625       3.71414974       0.00000000      -0.00174488      -0.01014649       0.00795898
C        6.16112908       2.15109066       3.51836116       0.00000000      -0.00000606      -0.00170023      -0.01082908
C        4.99649982       4.35463800       3.31834027       0.00000000      -0.00737560       0.00323309       0.01047660
N        3.82812795       6.43699225       3.75767010       0.00000000       0.01467709      -0.00058620       0.00970507
C        2.45678289       8.48481012       3.79695262       0.00000000      -0.00935666      -0.00948277       0.01023946
C        9.84960945      -0.01704218       3.80007485       0.00000000      -0.00519029      -0.00174618      -0.00102264
C        8.61659638       2.13677871       3.72493603       0.00000000      -0.00391442       0.01131000      -0.00118540
C        7.40978904       4.29351382       3.63461347       0.00000000      -0.00421277       0.00405205      -0.00640934
C        6.21833415       6.46379778       3.64787169       0.00000000       0.00931673      -0.00308565       0.00341224
C        4.94178349       8.54953074       3.78692570       0.00000000      -0.00854635      -0.01090692       0.01102797
C       -0.02184127       1.44296236       3.86292031       0.00000000       0.00749153       0.00413666      -0.00314527
C       -1.26833242       3.55772859       3.85882838       0.00000000       0.00560760       0.00468360      -0.00387208
C       -2.46571935       5.70231734       3.82439907       0.00000000      -0.00296402       0.00026596      -0.00216286
C       -3.68963110       7.85959261       3.82040212       0.00000000       0.00400469      -0.00267168      -0.00603158
C       -4.93299328      10.00921698       3.85157316       0.00000000       0.00417609       0.00177993       0.00211929
C        2.43487853       1.48354722       3.71449651       0.00000000      -0.00449085       0.00245343      -0.00770545
O        1.10926428       3.53043736       4.04366275       0.00000000       0.00316964      -0.00629084      -0.01060834
C       -0.05459132       5.68082032       3.86767298       0.00000000       0.00296742      -0.00430771      -0.01010452
C       -1.23464640       7.84415354       3.82367366       0.00000000       0.00708009      -0.00395936       0.00265004
C       -2.47254715      10.00398868       3.78622741       0.00000000      -0.00088013       0.00365669       0.00172399
C        4.91686364       1.44661541       3.52947219       0.00000000      -0.00514204       0.00200935       0.00282463
P        3.60362760       3.65817425       2.51064435       0.00000000       0.00119218      -0.00347940      -0.00403734
C        1.21256020       7.83969463       3.79676093       0.00000000      -0.00717573      -0.00267728       0.00619151
C       -0.00235289       9.97545108       3.73508890       0.00000000      -0.00161613      -0.00546349      -0.00751746
C        7.38613933       1.42693977       3.64985980       0.00000000      -0.00022876      -0.00440272       0.00963786
C        6.18058277       3.58638263       3.47213165       0.00000000      -0.00450532       0.00286658      -0.00002152
C        5.00635101       5.77815685       3.52926820       0.00000000       0.00977836       0.00279704       0.00316185
C        3.73699775       7.80177656       3.78951372       0.00000000      -0.01277031      -0.00743090       0.00031923
C        2.45468546       9.93426702       3.77110831       0.00000000      -0.00594249      -0.01256070       0.00528456
C        9.85047544       1.41935907       3.79988677       0.00000000      -0.00186594       0.00817981       0.00801070
C        8.62167855       3.56753791       3.72848010       0.00000000      -0.00224192       0.01357625      -0.00483671
C        7.42797744       5.72155447       3.68532239       0.00000000       0.00199286      -0.00369743       0.00590396
C        6.19253103       7.87013033       3.76236762       0.00000000       0.00084316      -0.00677421       0.01248529
C        4.92615992       9.97341811       3.82406687       0.00000000      -0.00060183      -0.00552135      -0.00195990
Cr       2.50594093       5.14199204       4.25182420       0.00000000       0.00792889       0.01309234       0.00258692
O        2.11944884       4.93623201       6.13278441       1.00000000       0.00024302       0.01274342      -0.00372568
O        3.16374426       4.12651661       5.77794152       1.00000000      -0.00552711      -0.00317696       0.00137397
