50
Lattice="12.336457 0.0 0.0 -6.168228499999997 10.683685154694365 0.0 0.0 0.0 15.0" Properties=species:S:1:pos:R:3:forces:R:3 energy=-445.9184503899632 free_energy=-445.9184503899632 stress="-0.004794978448121863 -0.0018511061999390084 -1.6844087384682153e-06 -0.0018511061999390084 0.0036990466765602667 -6.500555627204362e-06 -1.6844087384682153e-06 -6.500555627204362e-06 -5.188497636114724e-06" pbc="T T T"
C       -0.01234425       0.01441704       3.82779141       0.00098199       0.00482610       0.00417150
C       -1.26554890       2.12584155       3.85199293      -0.00583604      -0.00623231      -0.00634340
C       -2.48839076       4.27077781       3.87211379       0.00969574      -0.00729578       0.00232655
C       -3.69735930       6.42295350       3.85798218       0.00035590       0.00501126      -0.00639384
C       -4.93104698       8.57397471       3.84382124      -0.00050364       0.00041518       0.00762832
C        2.45447687       0.03746106       3.80257214      -0.00870890      -0.00384715       0.01072038
C        1.19144675       2.19623179       3.78134747       0.00141948       0.00359422       0.01167846
C       -0.04524666       4.25449817       3.91678674      -0.00678449       0.00856112       0.00174470
C       -1.25522359       6.41678221       3.93439258      -0.00391784      -0.00379423      -0.00592364
C       -2.47297639       8.56360820       3.87852373       0.00606454       0.00148744      -0.00429922
C        4.92534583       0.00253591       3.72879327      -0.00434911      -0.00637514      -0.00332638
C        3.67131177       2.09543277       3.38019252       0.00718143      -0.00705278      -0.00814579
N        1.15162225       6.38501112       3.94766250       0.00275310      -0.00522750      -0.00156867
C       -0.00408975       8.52096465       3.86310715       0.00238689      -0.00570161       0.00127920
C        7.39111308      -0.03001573       3.75018193       0.00367672      -0.00217236       0.00463405
C        6.15664940       2.13653692       3.55161875       0.00235378      -0.00617142       0.00364721
C        5.03385814       4.35504318       3.29846538       0.00456404      -0.00124933      -0.01416111
N        3.79213879       6.40838998       3.61804475       0.00052485       0.01191815      -0.00106047
C        2.45756826       8.47197994       3.81633083      -0.00606703       0.00289666      -0.00522739
C        9.84605179      -0.03158449       3.80321640       0.00596544       0.00385708       0.00114408
C        8.61467108       2.12308244       3.76246796      -0.01044682       0.00525018       0.00543223
C        7.40910797       4.28084265       3.69861952       0.00606984      -0.00075131       0.00500355
C        6.21104694       6.44983422       3.68918572       0.00077175      -0.00301318      -0.00987553
C        4.93227776       8.53763677       3.77758198       0.00484461       0.00396413      -0.00304348
C       -0.01888155       1.44603005       3.82812497      -0.00066903       0.00226342       0.00120357
C       -1.26956625       3.54624367       3.88921084       0.00545722      -0.00763134      -0.00110120
C       -2.47962599       5.69754879       3.89938044      -0.00324643      -0.00606669      -0.00133228
C       -3.70171062       7.85175198       3.87128024       0.00448551       0.00741078       0.00460984
C       -4.94111688      10.00057255       3.84400775      -0.00774472      -0.00153397       0.00125895
C        2.44119258       1.46915738       3.68241899       0.00501811      -0.00279909       0.00383343
N        1.14142299       3.57353169       3.85806093      -0.01260139       0.00479076       0.00427366
C       -0.04155404       5.70370124       3.95035195      -0.00166730       0.00545604       0.00037166
C       -1.24572846       7.84036242       3.90362948       0.00328595      -0.00508863      -0.00852990
C       -2.47881010       9.99471838       3.81064377      -0.00729482      -0.00155728       0.00189840
C        4.91777362       1.42949169       3.54825901       0.00426566      -0.00834434      -0.00578661
S        3.62743048       3.64831829       2.56405906      -0.01160568       0.00652761       0.00623129
C        1.21138847       7.76506397       3.87966569      -0.00056949      -0.00627984       0.00514654
C       -0.00629093       9.95215281       3.78106994       0.00084279      -0.00301317       0.00397847
C        7.37843801       1.41093982       3.68815636      -0.00257612      -0.00277304       0.00446351
C        6.18171713       3.57183812       3.51380206       0.00449810      -0.00378003      -0.00201668
C        5.00246008       5.75762522       3.51006077      -0.00303064       0.00232284      -0.00763891
C        3.71769163       7.77647114       3.74920958      -0.00248403       0.01280442      -0.00236042
C        2.45132270       9.91267619       3.79208420       0.00624142       0.00256700       0.00473430
C        9.84341991       1.40170546       3.81540105      -0.01208380       0.00335044      -0.01063119
C        8.62219137       3.55323452       3.78658740       0.00605524       0.00183358       0.00307206
C        7.41910053       5.70911176       3.75386771       0.00213689       0.00013530      -0.00242190
C        6.18220800       7.86236880       3.78140297       0.00257708      -0.00361939       0.00025984
C        4.92005995       9.96246495       3.81187099       0.00776295       0.00376467       0.00704184
Cr       2.52249644       5.01045244       4.16087457       0.00126943      -0.00266075      -0.00448434
O        2.86137243       4.79549358       5.70934105      -0.00131914       0.00902331       0.00388477
