52
Lattice="12.336457 0.0 0.0 -6.168228499999997 10.683685154694365 0.0 0.0 0.0 15.0" Properties=species:S:1:pos:R:3:forces:R:3 energy=-449.42065673541975 free_energy=-449.42065673541975 stress="-0.0023283675500279464 0.001962856472289237 4.7246366526464416e-07 0.001962856472289237 0.0030661449901048447 1.9045133816184885e-06 4.7246366526464416e-07 1.9045133816184885e-06 1.2821971086867541e-05" pbc="T T T"
C        0.00260831       0.11383963       3.88466011      -0.00047712      -0.00124297      -0.00170051
C       -1.23283942       2.23934834       4.02762112       0.00695321      -0.00010839      -0.00099622
C       -2.46445346       4.38330128       4.03701005      -0.00128448      -0.00285822       0.00012956
C       -3.70915513       6.51874506       3.91637120       0.00706830      -0.00008156      -0.00170239
C       -4.94306699       8.66003062       3.80563899      -0.00461776      -0.00250662       0.00142314
C        2.46229859       0.15921476       3.89075912       0.00391857       0.00512968      -0.00044160
C        1.20784075       2.25607466       3.95096970       0.00051812      -0.00219244      -0.00186303
C       -0.04103231       4.37990228       4.10002995       0.00457801       0.00135747      -0.00507466
C       -1.25467777       6.52659890       4.05465903       0.00054402      -0.00000565      -0.00592168
C       -2.48500776       8.66836201       3.95675594      -0.00011073      -0.00248667       0.00286970
C        4.92715490       0.11107889       3.92867084       0.00001128       0.00098698       0.00738241
C        3.74447460       2.24616494       3.79055879      -0.00278516      -0.00104583       0.00269577
N        1.14718860       6.53815510       3.99054568      -0.00004941       0.00160958       0.00292883
C       -0.01955878       8.64106703       3.97231821       0.00512195       0.00210614      -0.00484317
C        7.40410094       0.08314100       3.95909184      -0.00252799       0.00247805       0.00167883
C        6.19236554       2.21838296       3.85095024      -0.00450212      -0.00114844      -0.00104602
C        5.04371261       4.31210215       3.46788673       0.00058023       0.00173883       0.01236022
P        3.67622788       6.51210355       2.46544000      -0.00086816       0.00073973       0.00460790
C        2.44756514       8.62549220       3.77787518      -0.00107540      -0.00038555      -0.00217010
C        9.86945373       0.08866057       3.91844461      -0.00620448      -0.00209685       0.00321463
C        8.64547097       2.23059876       3.98092458       0.00098689       0.00130120       0.00150914
C        7.42761656       4.36913286       3.83572647      -0.00194659       0.00801420       0.00050590
C        6.18869736       6.50047411       3.59493460       0.00222438      -0.00364675       0.00377344
C        4.93173381       8.65066565       3.64834390      -0.00211785      -0.00203750       0.00236586
C        0.01179806       1.55070354       3.96662251       0.00411265      -0.00328857      -0.00616522
C       -1.23270092       3.66349305       4.07694132       0.00413121       0.00161390       0.00304210
C       -2.47589113       5.80555012       4.02132496       0.00216648      -0.00442531      -0.00544560
C       -3.71319307       7.94894911       3.89615025      -0.00151350      -0.00234573       0.00335038
C       -4.93111246      10.10177111       3.85876157       0.00269713       0.00103763      -0.00057673
C        2.47099800       1.61729872       3.87694072      -0.00057205       0.00300062       0.00067867
O        1.15016443       3.64725700       4.13246173      -0.00063363      -0.00543916      -0.00214016
C       -0.02794561       5.81478407       4.07722403       0.00037025       0.00448142      -0.00471007
C       -1.25506648       7.94891039       4.00913114       0.00424845       0.00118288      -0.00474486
C       -2.48328763      10.10634330       3.92556214       0.00189547       0.00048251      -0.00331867
C        4.93597776       1.53939302       3.85595704      -0.00554689      -0.00221381       0.00931018
O        3.82280890       3.62661489       3.57256391       0.00303402      -0.00846703       0.00064418
C        1.19372225       7.90413670       3.90577927       0.00240286       0.00035110       0.00192211
C       -0.00736318      10.06771766       3.95698655       0.00107923       0.00219583      -0.00168976
C        7.40870377       1.51161053       3.94637474      -0.00143026       0.00079118      -0.00644586
C        6.21674478       3.62473695       3.71830608      -0.00018123       0.00312273       0.00247458
C        5.01192412       5.72414452       3.35246941       0.00017166       0.00291886       0.00141386
C        3.68103022       7.97746314       3.48370351       0.00025481      -0.00143564      -0.00199426
C        2.46285448      10.05164449       3.91117364      -0.00657652      -0.00267301      -0.00283776
C        9.88114790       1.52051276       3.99339825       0.00294638       0.00162492       0.00221283
C        8.64986869       3.65981555       3.96848370      -0.00412943       0.00252201       0.00119156
C        7.40940499       5.79388363       3.79556708       0.00548394       0.00523555      -0.00528529
C        6.16907618       7.93470436       3.65669109      -0.00328732      -0.00506118       0.00033221
C        4.93677000      10.07305325       3.83372077      -0.00571011       0.00073658      -0.00043896
Cr       2.56944866       5.25915073       4.04328822      -0.00254162       0.00216127       0.00086527
O        2.97288501       5.16973245       5.87001236      -0.00637601       0.00000297      -0.00085050
O        2.90626224       3.76217558       6.21815463      -0.01178404       0.00038489      -0.00317688
H        3.60644549       3.74076518       6.89704471       0.01135033      -0.00211582       0.00069672
