52
Lattice="12.336457 0.0 0.0 -6.168228499999997 10.683685154694365 0.0 0.0 0.0 15.0" Properties=species:S:1:pos:R:3:forces:R:3 energy=-449.26383369737107 free_energy=-449.26383369737107 stress="-0.003915959529857796 -0.0020322999935645106 1.896279859692864e-05 -0.0020322999935645106 0.003648590221886061 -2.2101568353475e-05 1.896279859692864e-05 -2.2101568353475e-05 4.735304883937409e-06" pbc="T T T"
C        0.03461513       0.01973130       3.91383437      -0.00392523      -0.00802217       0.00271330
C       -1.21743520       2.14276607       3.93422774       0.00009059      -0.00327459      -0.00581934
C       -2.43391223       4.28975335       3.89113349      -0.00160381       0.00030661       0.00557922
C       -3.64197172       6.43686904       3.85803316      -0.00366531       0.00335059      -0.00949542
C       -4.87846934       8.58587715       3.87914673      -0.00175349      -0.00451310       0.01267315
C        2.49996779       0.05225515       3.88997137       0.00979078       0.00056853       0.00095861
C        1.22747830       2.15081877       3.90696366      -0.00914409       0.00767212       0.00393734
C       -0.02268087       4.29165958       3.99898753      -0.00172211      -0.00321816      -0.00088567
C       -1.19736555       6.42600651       3.98604559      -0.00283883       0.00362854      -0.01359058
C       -2.41564689       8.57580299       3.94362445       0.00370695      -0.00929221       0.00055336
C        4.97380943       0.02422570       3.80281785       0.00420812       0.00322125      -0.00374589
C        3.71961161       2.12587770       3.45418336      -0.00385248       0.00441087       0.00359589
O        1.17292326       6.45132603       4.21126449       0.00522338      -0.00007894       0.01552942
C        0.04450179       8.54807271       3.95818381       0.00229992       0.00550847      -0.00041186
C        7.44279284      -0.00985782       3.81836313      -0.00136270      -0.01051503      -0.00174827
C        6.21098270       2.15207971       3.56790852       0.00632171      -0.00090417       0.01271159
C        5.07001584       4.36077966       3.26747492      -0.00088669       0.00389033      -0.00210658
N        3.86839962       6.43474434       3.62275382       0.00271997      -0.00339051       0.00013135
C        2.49867649       8.48051040       3.89032102       0.00191782       0.00960916      -0.00113104
C        9.89368995      -0.01586673       3.87785929       0.00231431       0.00625535       0.00305341
C        8.66560206       2.14183990       3.79614910       0.00116254      -0.00638053       0.00298373
C        7.46225176       4.29791992       3.66325460      -0.00201610       0.00716932       0.00598250
C        6.27032727       6.47195577       3.63295251       0.00219440      -0.00352261       0.01269116
C        4.98227616       8.54861694       3.82030124      -0.00043511      -0.00720475      -0.00816962
C        0.02547483       1.45047353       3.93501538      -0.00568101      -0.00415474      -0.00770540
C       -1.21352538       3.56842370       3.94583463      -0.00006935      -0.00554510      -0.01053637
C       -2.42258377       5.70958387       3.91998512      -0.00440465       0.00457405      -0.01427060
C       -3.64809387       7.86516446       3.90357572      -0.00238476      -0.00367246      -0.00053622
C       -4.89132906      10.01421332       3.91768884       0.00532921      -0.00175593       0.00264915
C        2.47887151       1.48611073       3.77726071      -0.00976179       0.00895068       0.00333355
O        1.16014117       3.53539318       4.16123877       0.01080552       0.01333333       0.00639473
C       -0.00899690       5.70081201       4.01711143      -0.00769219      -0.00456854       0.00244000
C       -1.19511278       7.85361361       3.98081066       0.00593979       0.00270038      -0.00620264
C       -2.43052633      10.01141680       3.89162727       0.01191664      -0.00779962      -0.00476865
C        4.96475351       1.44728538       3.59741841       0.00146961       0.00680376       0.00302210
P        3.66870064       3.62102757       2.47774292       0.00193238      -0.00723682      -0.00139243
C        1.24765431       7.83655414       3.98480095       0.00346959       0.00501920       0.00788918
C        0.04013768       9.98163025       3.86094252      -0.00322666      -0.00047641      -0.01180081
C        7.43360783       1.42962972       3.72528719       0.00458225      -0.01530389       0.00508511
C        6.23737796       3.58731334       3.48276727       0.00027990       0.00474285      -0.00047812
C        5.06516718       5.79136854       3.44779833       0.00386784      -0.00233214       0.01382589
C        3.77638376       7.79366747       3.78821349       0.00025957      -0.00171224       0.00143388
C        2.49878380       9.93087478       3.86521312       0.00341969       0.00735517      -0.00646808
C        9.89806748       1.42403944       3.87995434       0.00366966       0.00207766      -0.00504619
C        8.67310874       3.57354688       3.78826427      -0.00275617      -0.00048104      -0.00129812
C        7.47652600       5.72631290       3.71169720      -0.00094674       0.00487483       0.00591272
C        6.23600977       7.87483810       3.78544739       0.00026591      -0.00614389      -0.00384107
C        4.96905892       9.97382844       3.88653078      -0.00540343      -0.00595454      -0.00392215
Cr       2.62624855       5.01989835       4.00195399      -0.01029074      -0.00201301      -0.00638604
O        2.96391248       4.84809878       5.84652771       0.00153404       0.00787778      -0.00472491
O        1.66115858       4.99056144       6.43445208      -0.01439090      -0.00369094      -0.01099294
H        1.64222163       4.19158636       6.99280613      -0.00047774       0.00925726       0.01239473
