52
Lattice="12.336457 0.0 0.0 -6.168228499999997 10.683685154694365 0.0 0.0 0.0 15.0" Properties=species:S:1:pos:R:3:initial_magmoms:R:1:forces:R:3 energy=-454.2696819877277 free_energy=-454.2696819877277 stress="0.00020122995362330565 0.0027364416090324604 4.90485035148731e-06 0.0027364416090324604 -0.003223296797647846 -1.6671792895792412e-05 4.90485035148731e-06 -1.6671792895792412e-05 1.830739547344723e-05" pbc="T T T"
C       -0.04586746      -0.01006623       3.70216399       0.00000000       0.00783422       0.00956836      -0.00132211
C       -1.25413709       2.14626918       3.81659395       0.00000000      -0.00204248      -0.00460858      -0.00243733
C       -2.47753957       4.26458554       3.81013354       0.00000000       0.00022693      -0.00025368       0.00314853
C       -3.74091192       6.38795909       3.68895682       0.00000000      -0.00137280       0.00417392       0.00274052
C       -5.00174062       8.51684661       3.61297273       0.00000000       0.00334626      -0.00037471       0.00428482
C        2.41453073      -0.02042972       3.71397358       0.00000000       0.00174200      -0.00211324       0.00350731
C        1.20448973       2.12882568       3.82291741       0.00000000      -0.00393178      -0.00004824       0.00121819
C        0.03394295       4.29968968       3.94447136       0.00000000       0.00499443       0.00571601      -0.00412461
C       -1.26372873       6.40019165       3.81266826       0.00000000      -0.00611969       0.00556204      -0.00412026
C       -2.51853933       8.52377354       3.71025504       0.00000000       0.00326704      -0.00269307       0.00622094
C        4.88683474      -0.01841262       3.75247261       0.00000000       0.00051150      -0.00020323      -0.00205719
C        3.65519625       2.10346194       3.76832918       0.00000000       0.00062677       0.00482188       0.00019764
O        2.46555760       4.10760010       4.15514390       0.00000000       0.00291543       0.00204461      -0.01848284
O        1.08481836       6.49245324       4.13811646       0.00000000       0.00218521      -0.00296583       0.00409956
C       -0.05928459       8.53775096       3.78286958       0.00000000      -0.00424092       0.00106387       0.00881676
C        7.35397776      -0.00312369       3.78858241       0.00000000      -0.00422204      -0.00415846       0.00529169
C        6.13085883       2.11366369       3.78777917       0.00000000       0.00178315      -0.00287792      -0.00526491
C        4.88163858       4.21581523       3.69026895       0.00000000       0.00469587       0.00100551      -0.00642917
S        3.45430139       6.27885491       2.94895291       0.00000000       0.00846654      -0.00752796       0.00083063
C        2.38505640       8.54984624       3.73089729       0.00000000      -0.00421659      -0.00257500       0.00122686
C        9.82804850       0.00248864       3.74041473       0.00000000       0.00036642      -0.00232586       0.00394154
C        8.60617368       2.13071103       3.80763990       0.00000000      -0.00452102      -0.00348997      -0.00655250
C        7.37238479       4.25147897       3.73012730       0.00000000      -0.00761459      -0.00098131      -0.00908706
C        6.12023597       6.37702150       3.50576334       0.00000000       0.00286711      -0.00324716      -0.00037904
C        4.87460697       8.53514696       3.53213304       0.00000000      -0.00057309      -0.00008201       0.00135865
C       -0.03795874       1.41858234       3.78129105       0.00000000      -0.00046771       0.00191926       0.00425120
C       -1.22814747       3.57314406       3.85876433       0.00000000       0.00349636      -0.00369834       0.00476532
C       -2.50033690       5.68030086       3.77032691       0.00000000      -0.00442095       0.00429689       0.00236651
C       -3.75866075       7.81042307       3.66468832       0.00000000       0.00261130       0.00197046       0.00301985
C       -4.99160889       9.94646279       3.67305099       0.00000000       0.00282992       0.00165152      -0.00533999
C        2.42209313       1.39165387       3.76484434       0.00000000      -0.00282612       0.00202564       0.00348832
C        1.22060753       3.50915971       3.96906633       0.00000000       0.00123028       0.00086255      -0.01591600
C       -0.06708283       5.71490042       3.95111906       0.00000000      -0.00751554       0.00365434       0.00020574
C       -1.29260056       7.82424957       3.76455179       0.00000000       0.00009466       0.00184905      -0.00181529
C       -2.51849222       9.95076448       3.71908965       0.00000000       0.00294231      -0.00502729       0.00217116
C        4.89870771       1.40149135       3.76497251       0.00000000       0.00151655       0.00119587      -0.00668094
C        3.67148540       3.48458574       3.82456536       0.00000000       0.00736852       0.00290204      -0.00445758
C        1.14576192       7.87332784       3.86471553       0.00000000      -0.00376702       0.00455518      -0.00031538
C       -0.04530235       9.96711595       3.76738849       0.00000000      -0.00274212      -0.00273200       0.00510817
C        7.36892354       1.41744840       3.80003837       0.00000000      -0.00223990      -0.00548458       0.00631699
C        6.13311501       3.52890456       3.74675305       0.00000000      -0.00209457      -0.00365906       0.00006089
C        4.94306514       5.61373811       3.43775472       0.00000000      -0.00048718       0.00290924       0.00160840
C        3.62570795       7.89495446       3.48137127       0.00000000      -0.00070506      -0.01119302       0.00690289
C        2.41463995       9.97967363       3.75940881       0.00000000      -0.00388637      -0.00049069       0.00746081
C        9.84035807       1.42737033       3.79502872       0.00000000      -0.00300778      -0.00454319      -0.00247041
C        8.61320107       3.55039110       3.79086082       0.00000000      -0.00660261      -0.00089835      -0.00336328
C        7.36631369       5.67121782       3.64265461       0.00000000       0.00102775      -0.00111022       0.00419915
C        6.09970459       7.80444328       3.51918789       0.00000000       0.00432814      -0.00210413       0.00129925
C        4.88636866       9.96791600       3.66193569       0.00000000       0.00716039       0.00775608       0.00803566
Cr       2.82665587       6.07116753       5.36641237       0.00000000      -0.00265106       0.00065254       0.00415902
O        4.64654503       5.82213094       6.16680709       1.00000000       0.00747176       0.00083928       0.00051317
O        4.36034935       7.13144421       6.13592940       1.00000000      -0.00563785       0.00847090      -0.01220026
