51
Lattice="12.336457 0.0 0.0 -6.168228499999997 10.683685154694365 0.0 0.0 0.0 15.0" Properties=species:S:1:pos:R:3:forces:R:3 energy=-449.5158225714091 free_energy=-449.5158225714091 stress="0.0012539545941889056 0.002728738387220463 -9.021608192755939e-06 0.002728738387220463 -0.0018664109214649581 4.5660505346403986e-07 -9.021608192755939e-06 4.5660505346403986e-07 3.9622360549162013e-07" pbc="T T T"
C       -0.02136557      -0.00732200       3.76941879      -0.00431330       0.00429909      -0.01100933
C       -1.23149668       2.14898010       3.81033352       0.00049896       0.00614413       0.00129982
C       -2.45430294       4.26653255       3.81134230       0.00793576      -0.00190887       0.00084071
C       -3.71634356       6.39260531       3.76936702       0.00163496      -0.00431128      -0.01295864
C       -4.96950358       8.52515899       3.73408614       0.00028770      -0.00035999      -0.01084821
C        2.43998588      -0.01334284       3.73536694       0.00146641      -0.00208317       0.00365579
C        1.23014502       2.14474330       3.81111705      -0.00266277      -0.00307205       0.00775871
C        0.06223353       4.30776582       3.90340888      -0.00038072      -0.00037833      -0.01661283
C       -1.22687635       6.40046944       3.81184163      -0.00405882       0.00085189       0.00555097
C       -2.49120159       8.52712072       3.73381491      -0.00008898       0.00533887       0.01043251
C        4.91156418      -0.01491286       3.70831555      -0.00412271      -0.00152566      -0.00553963
C        3.67567254       2.10882424       3.72991819      -0.00227310      -0.00857210      -0.00423252
O        2.49121104       4.18472808       3.95785864       0.00635545       0.00763338       0.00401172
O        1.17014731       6.47348390       3.96228697       0.00987727      -0.00137328      -0.00024024
C       -0.03585081       8.53678788       3.73084974      -0.00684092       0.00180251      -0.00281899
C        7.37650143      -0.00438595       3.72155179      -0.00326526      -0.00036620       0.00158019
C        6.15311805       2.11448813       3.72127623      -0.00109471      -0.00209152       0.00307269
C        4.90191653       4.21143829       3.72042681      -0.00746106      -0.00144181      -0.00249650
S        3.64435335       6.37746887       2.62687529       0.01347996       0.01181237       0.00586209
C        2.39823788       8.54751009       3.72715473      -0.00480622      -0.00617871       0.00236132
C        9.84874488       0.00157147       3.75022052      -0.00149079      -0.00567471       0.00741724
C        8.62827769       2.13089884       3.76183773       0.01274225       0.00652149      -0.00088348
C        7.39424053       4.25242300       3.75010505      -0.00260212       0.00110645       0.00581005
C        6.13842274       6.38618320       3.70558177      -0.00183454      -0.00034747       0.00174475
C        4.90005684       8.53008726       3.71014861       0.00198983      -0.00099152       0.00231168
C       -0.01276018       1.42382789       3.80000385      -0.00627290       0.00432898      -0.00410157
C       -1.20395352       3.57669252       3.84328557       0.00228658       0.00052927      -0.00808858
C       -2.47265210       5.68449162       3.80020386       0.00087452      -0.00594186      -0.00050670
C       -3.73164300       7.81544427       3.74579677       0.00311167      -0.00117353       0.00341119
C       -4.96490857       9.95197874       3.74629397      -0.00167981       0.00291623       0.00546116
C        2.44538947       1.40097195       3.75317440      -0.00200039      -0.00558536       0.00021014
C        1.24641204       3.53161031       3.90372311      -0.00196822      -0.00291786      -0.00303008
C       -0.01772716       5.72136054       3.90555500      -0.00462572      -0.00082320      -0.00449943
C       -1.26369709       7.82476375       3.75259142      -0.00498414       0.00303768       0.00189996
C       -2.49315608       9.95468300       3.71947758       0.00026858       0.00187356      -0.00358099
C        4.92069122       1.40592311       3.70958993      -0.00184342      -0.00567371      -0.00054739
C        3.69372861       3.49306501       3.78131051      -0.00138324      -0.00690461       0.01253918
C        1.17202464       7.86099863       3.78730253      -0.00580019      -0.00089218       0.00453005
C       -0.02164985       9.96636440       3.70878452      -0.00666649       0.00133543       0.00680301
C        7.39051500       1.41627230       3.73332208       0.00733155       0.00394815      -0.00719104
C        6.15603818       3.53034847       3.72726366      -0.00643748      -0.00027379       0.00706042
C        4.90531923       5.64714178       3.63394761      -0.00039383      -0.00006362      -0.00302177
C        3.64257665       7.82967035       3.64546025       0.00229165       0.00591249      -0.01127613
C        2.43598175       9.97395613       3.72944120      -0.00484846      -0.00664916       0.00515734
C        9.86197806       1.42673566       3.77383936       0.00816443      -0.00041446       0.00864485
C        8.63507281       3.55127940       3.77570114       0.00704949       0.00677921      -0.00067210
C        7.38078444       5.67827665       3.75287306      -0.00317065       0.00007546       0.00138921
C        6.12458092       7.80809430       3.70476208       0.00166270      -0.00101492      -0.00582221
C        4.90839968       9.96005519       3.75419085      -0.00126317      -0.00310770       0.00290854
Cr       3.10710141       6.06875822       4.99113493       0.00001839       0.00271719      -0.01228644
O        3.83235857       6.47416704       6.35197520       0.01130603       0.00314880       0.00853948
