52
Lattice="12.336457 0.0 0.0 -6.168228499999997 10.683685154694365 0.0 0.0 0.0 15.0" Properties=species:S:1:pos:R:3:forces:R:3 energy=-439.97924381267904 free_energy=-439.97924381267904 stress="-0.004959243585724872 9.81687149371991e-06 -6.80709010337581e-05 9.81687149371991e-06 -0.013768102722377587 -1.3657081327420904e-05 -6.80709010337581e-05 -1.3657081327420904e-05 1.7719857632874655e-05" pbc="T T T"
C       -0.00834475      -0.01488437       3.87223418       0.00817711       0.00675526      -0.00381291
C       -1.23424412       2.13507154       3.63760333      -0.00000015      -0.00228303       0.00123301
C       -2.45412337       4.27028703       3.71309692       0.00500327       0.00474125       0.00355545
C       -3.67895478       6.39658048       3.89320600      -0.00278073      -0.00455280       0.01171024
C       -4.94797649       8.51791796       3.99108468       0.00109685      -0.00117350      -0.00071335
C        2.45461545      -0.07261338       3.89323523      -0.00075112       0.00124248      -0.00810965
C        1.24003769       2.02638778       3.38157804      -0.00077541       0.00366600      -0.00336977
C       -0.07120525       4.27259625       3.10762755      -0.00773331      -0.00939723      -0.00523010
C       -1.24060909       6.41208323       3.48805943      -0.00671473       0.00269518       0.01697001
C       -2.46130802       8.51424003       3.85062109      -0.00728491       0.00439778      -0.01654739
C        4.92532419      -0.02751137       3.95725215      -0.00081375       0.00313751      -0.00544742
C        3.65724515       2.00868108       3.91355258      -0.00792845      -0.00800535      -0.00911604
P        1.29886341       6.51830918       2.34007005       0.01050567      -0.00970401       0.00559961
C       -0.00613609       8.56403928       3.62376442       0.01124486      -0.00544073      -0.00379797
C        7.38136291       0.02915706       3.93026841      -0.00428334      -0.00217122      -0.00753044
C        6.15358528       2.12843113       4.02668473       0.00643187       0.00172303      -0.01299852
C        5.01972324       4.29267666       4.01037391      -0.00348853      -0.00156832      -0.00041387
S        3.43134039       6.28816877       3.88648249      -0.01740372      -0.00801878       0.00357353
C        2.44383812       8.63408174       3.73194754      -0.00515858       0.00467949       0.00641358
C        9.86789689       0.03152213       3.93174446      -0.00492008       0.00031605       0.00064495
C        8.63706317       2.14882953       3.91841917       0.00529339       0.00935073       0.01072031
C        7.43009118       4.27147101       3.99043659      -0.00033896       0.00085323       0.00091715
C        6.19555808       6.42070827       4.03198981       0.00752959      -0.00373582       0.00107394
C        4.91862400       8.55941272       4.01248638      -0.00715888       0.00054563      -0.00947428
C       -0.00595713       1.39703236       3.62012655       0.00424984       0.00931357       0.00903857
C       -1.24022364       3.54980171       3.49064947      -0.00132781      -0.00705306       0.00010049
C       -2.45382550       5.69062770       3.71230671      -0.00546164       0.00326333       0.00784039
C       -3.69856116       7.81221470       3.92131758      -0.00352663      -0.00549107       0.00586154
C       -4.95515394       9.93241150       3.93066903       0.00458764       0.00120914      -0.00833257
C        2.44383713       1.32743928       3.72665130      -0.01023802      -0.00067191       0.00374784
P        1.29792059       3.44542505       2.33805616       0.00278348       0.00722923       0.01025071
C       -0.07098788       5.69037638       3.10659209      -0.01569642      -0.00875064       0.00099577
C       -1.23433596       7.82619038       3.63833797       0.00046784       0.00650421       0.00291562
C       -2.46873384       9.92994433       3.92801946      -0.00269463       0.00390467       0.01400772
C        4.91767284       1.40249451       4.00716136      -0.00039139       0.00401341      -0.00482778
S        3.43014073       3.67512557       3.88438983       0.00211794      -0.00944330      -0.00370575
C        1.24001904       7.93503276       3.38631284       0.01182710      -0.00767458      -0.00288248
C       -0.00827413       9.97654181       3.87149815      -0.00073011      -0.00549879       0.00390000
C        7.38755927       1.44361614       3.98822294       0.00711044       0.00020897       0.00023090
C        6.19521272       3.54117490       4.02878324      -0.00019909       0.00059545       0.00493746
C        5.01986660       5.66955898       4.01116133       0.00493372      -0.00152355       0.00263948
C        3.65788012       7.95397105       3.91930801      -0.01059901      -0.00017508      -0.01005301
C        2.45480926      10.03410862       3.89666124      -0.00675944       0.00323608      -0.00637617
C        9.87483274       1.44695077       3.84931223      -0.00208994      -0.00091405      -0.00814785
C        8.65679205       3.56437289       3.89167186       0.00553265       0.01133315       0.00935395
C        7.43033090       5.69015963       3.99245156       0.00311438      -0.00442454      -0.00624153
C        6.15452438       7.83328312       4.03009027       0.00036649       0.00046333      -0.00572236
C        4.92560435       9.98912132       3.96099237       0.00252740       0.00555191      -0.00218139
Cr       2.30998448       4.97923975       5.57181211      -0.00034997       0.00461122       0.00836163
O        3.96938483       4.99967204       6.65364050       0.00269289       0.00242896       0.00480131
O        3.45236137       4.99960773       8.01622888       0.01297562       0.00787178      -0.00312282
H        4.29741361       4.96234922       8.50094881       0.01702871      -0.00817068      -0.00323975
