51
Lattice="12.336457 0.0 0.0 -6.168228499999997 10.683685154694365 0.0 0.0 0.0 15.0" Properties=species:S:1:pos:R:3:forces:R:3 energy=-445.10975034224884 free_energy=-445.10975034224884 stress="-0.00651907638472724 -0.0011890553447700756 8.863163561800845e-06 -0.0011890553447700756 -0.009811105191241171 6.72891184768165e-06 8.863163561800845e-06 6.72891184768165e-06 -6.3979102078777096e-06" pbc="T T T"
C       -0.01740043      -0.01828247       3.98190662      -0.00301422       0.01159552       0.00049218
C       -1.27390136       2.09956262       3.95630707      -0.00299586       0.00399506       0.00374394
C       -2.51357500       4.24545523       3.96833971       0.00018055      -0.00448514       0.00784823
C       -3.72752449       6.38885469       3.97936502       0.01287596      -0.00447062       0.00379172
C       -4.94686191       8.52825174       3.98003997      -0.00460850      -0.00517470      -0.00570954
C        2.44332497      -0.02376166       3.81775948       0.00699941      -0.00203388      -0.00060693
C        1.18323582       2.08258080       3.57038042      -0.00188090      -0.00099962       0.00745250
C       -0.09021305       4.18713847       3.56572834      -0.00351715      -0.00072847       0.01673842
C       -1.26836570       6.37553494       3.80508627      -0.00151403       0.00148462       0.00277550
C       -2.47799314       8.51663388       3.89561690       0.00047073       0.00441340       0.00790638
C        4.89830194      -0.01400936       3.84173301       0.00753212      -0.00011112       0.00132817
C        3.67594169       2.08825872       3.49471560      -0.00783739       0.01223316       0.01224152
P        2.37829104       4.09010042       2.18799314       0.00921394       0.00612854      -0.01214400
S        1.38511188       6.28957883       3.27824568      -0.01120644       0.00442071      -0.00557369
C       -0.03656164       8.54868920       3.75849752      -0.00207591      -0.00820118       0.00042872
C        7.35806082       0.00639716       3.94827542      -0.00419929      -0.00533290      -0.00128114
C        6.12936301       2.11485367       3.84247132      -0.00213535      -0.00752720      -0.01747301
C        4.93039351       4.21208521       3.44869907       0.00617815      -0.00497926       0.00543843
S        3.92132660       6.61559690       2.41012629       0.00945671      -0.00635857      -0.00864059
C        2.43681808       8.61688696       3.72750416      -0.00274398       0.00760046       0.00316980
C        9.84491352       0.00263668       4.04509318      -0.00311693      -0.01144718       0.00133566
C        8.59354788       2.12263607       4.03498176       0.01109257      -0.00301290       0.00855536
C        7.36218331       4.24976684       3.93170170      -0.00561336       0.00502491      -0.00064816
C        6.15935841       6.39976168       3.85895369       0.00206184      -0.00017764       0.00404531
C        4.93386810       8.54749142       3.93971452       0.00464088       0.01154445      -0.00445722
C       -0.03633012       1.39095875       3.87100289      -0.00752105       0.00948560      -0.00252817
C       -1.29979859       3.51086720       3.86476203      -0.00511212       0.00055747       0.00040493
C       -2.50816052       5.66756701       3.93660656       0.00898848      -0.00837673      -0.00384832
C       -3.71684848       7.81022610       3.96172239       0.00330199      -0.00367967      -0.00188196
C       -4.95250797       9.95041346       3.94129262      -0.00238504       0.00254727      -0.00526586
C        2.43541458       1.38272059       3.60027684       0.00034898      -0.00130039      -0.00116514
C        1.10692067       3.46063746       3.24740428      -0.00082844      -0.00314284       0.00507343
C       -0.11981996       5.59348109       3.61193390      -0.00385505       0.00211177       0.00653717
C       -1.24972135       7.80467310       3.81107915      -0.00711159       0.00071120       0.00756253
C       -2.49253803       9.94498068       3.85421637       0.01063499       0.00281353      -0.00923612
C        4.90270767       1.40107857       3.74791981      -0.00616919       0.00082159      -0.00665183
C        3.73478518       3.47926824       3.18317308       0.00104881       0.00724415      -0.00291790
C        1.22042084       7.95095473       3.59223573      -0.00319390       0.00555203      -0.00358718
C       -0.03610498       9.97454200       3.86960818       0.00151062      -0.00922244      -0.00368745
C        7.35861447       1.41958804       3.97742009       0.00601331      -0.00277526      -0.00650270
C        6.13820991       3.53313931       3.76190966      -0.00487004      -0.00295290      -0.00165514
C        4.94215662       5.66705997       3.54946505       0.00033618      -0.00322449       0.00436286
C        3.68107983       7.86816348       3.69770877       0.00060668       0.00596670       0.00494316
C        2.43605989      10.00518333       3.94337002      -0.00638492      -0.00355633       0.00425212
C        9.83090152       1.41167685       4.05440274       0.00793001      -0.01258260      -0.00245782
C        8.58945417       3.54114777       4.01059766      -0.00314563       0.00153148      -0.00695283
C        7.37006904       5.67859885       3.94807364       0.00113337       0.00671714       0.00782224
C        6.15043891       7.81517090       3.93858969      -0.00150951      -0.00038943      -0.00890820
C        4.91533652       9.96163339       4.03360072       0.00050327       0.00146186      -0.00647986
Cr       3.26636718       6.11021062       4.73269933      -0.00500255      -0.00027789       0.00650739
O        3.54356707       6.67274699       6.18309242       0.00048878       0.00055873      -0.00449690
