52
Lattice="12.336457 0.0 0.0 -6.168228499999997 10.683685154694365 0.0 0.0 0.0 15.0" Properties=species:S:1:pos:R:3:forces:R:3 energy=-439.7870995105747 free_energy=-439.7870995105747 stress="-0.0069823975999149124 -0.0011073334712753823 1.5469052902228348e-05 -0.0011073334712753823 -0.008726857158404972 -4.584305514325795e-05 1.5469052902228348e-05 -4.584305514325795e-05 -3.0364156209660695e-05" pbc="T T T"
C        0.00441299      -0.08058678       3.91255716       0.00237284      -0.00070417       0.00388716
C       -1.22937187       2.06785919       3.75699989       0.00303057       0.00426180       0.00371154
C       -2.46089116       4.20325235       3.76393721      -0.00572845       0.00224797       0.00002873
C       -3.68730501       6.34176786       3.83221104       0.00429174      -0.00174529       0.01022014
C       -4.93396796       8.46352430       3.87413102       0.00683147      -0.00029598       0.00278509
C        2.46540463      -0.11710789       4.07534654      -0.00065127      -0.00697867       0.00608767
C        1.25756266       1.97701925       3.66758284       0.00291885      -0.00359122       0.00688296
C       -0.06689096       4.21514922       3.25130641       0.01016715      -0.00412920      -0.00502191
C       -1.25542437       6.35665411       3.59255569      -0.00095208       0.01218096      -0.00355998
C       -2.45576771       8.46710720       3.94623440      -0.00182768      -0.00247593      -0.00878767
C        4.92904474      -0.06430797       4.12335525      -0.00493546      -0.00280432       0.01348635
C        3.66839024       2.02308408       4.18687852      -0.00494888      -0.00291906      -0.00998923
S        1.17966322       6.46839459       2.43984111       0.00263545       0.00334192       0.00684094
C       -0.02228703       8.51193130       3.78530780       0.00500429       0.00442810       0.00986830
C        7.39542360      -0.03685847       4.03645025       0.00229620      -0.00364583      -0.01011656
C        6.16041615       2.08968444       4.08191224       0.00063169       0.00579438       0.01584077
C        4.97586051       4.24847391       3.65850131      -0.01037602      -0.00368063       0.00131973
S        3.75380292       6.40235417       2.47932154       0.00336965       0.00297301      -0.00694124
C        2.46982632       8.56767928       3.65610955      -0.00736111      -0.00878124      -0.01374935
C        9.87947162      -0.04395431       3.93892035      -0.00094599       0.00140328      -0.00764506
C        8.63928671       2.08062744       3.97003856      -0.00035911      -0.00271893       0.00693484
C        7.41478073       4.20706940       3.84731959      -0.00715790       0.00102438       0.00085933
C        6.22198020       6.35329559       3.54407594       0.00783904      -0.00395617       0.00039853
C        4.95802094       8.49199054       3.71123271       0.00060708       0.00463103      -0.00217021
C        0.00090509       1.33974578       3.77950903       0.00353798      -0.00445254       0.00062480
C       -1.23668834       3.48568208       3.60783659      -0.00013394       0.00205258      -0.00710621
C       -2.46593023       5.62598752       3.76206913       0.00086673       0.00630697      -0.00475032
C       -3.69267275       7.75879477       3.89210868       0.00332445      -0.00741317      -0.00535841
C       -4.93846300       9.87819970       3.97002196       0.00353231      -0.00274976       0.00403924
C        2.45950813       1.29212267       4.02334306      -0.00325854      -0.00933933       0.00427328
P        1.48571598       3.45630700       2.74101708       0.00080988      -0.00748142      -0.00652455
C       -0.13452368       5.61997754       3.18342985      -0.00859140      -0.00196351       0.00107517
C       -1.22931932       7.77580837       3.76471235       0.00451917       0.01433960       0.00302832
C       -2.45951979       9.88373940       4.08427757      -0.00320052      -0.00607398      -0.00352996
C        4.92522543       1.36873753       4.17148870      -0.00449889       0.00358800       0.00292934
P        3.39862892       3.76146979       4.31601720       0.00705786       0.00587665      -0.00440931
C        1.23062106       7.87370490       3.51146674      -0.00726493      -0.00669974      -0.01641158
C       -0.00775531       9.92223041       4.01771954      -0.00074480       0.00403916      -0.00540824
C        7.39571956       1.38281858       4.06407286       0.00083391      -0.00389786      -0.00221374
C        6.17327978       3.50249752       3.88856025      -0.00633588       0.00033933       0.00221088
C        5.08379858       5.59897692       3.24993541       0.00394829      -0.00560776       0.00403719
C        3.69548819       7.85168046       3.49122581      -0.00196275       0.00362106      -0.01661025
C        2.46818085       9.96032712       3.92028249       0.00136386      -0.00981397      -0.00123888
C        9.87957354       1.37449358       3.91928679       0.00263056       0.00434798      -0.00403631
C        8.64488208       3.49690579       3.88778419      -0.00783955      -0.00068080       0.00912052
C        7.42956303       5.62757823       3.75862679       0.00430540      -0.00047990       0.00555698
C        6.17915513       7.77177555       3.67999815       0.00480685       0.00416137      -0.00103009
C        4.94146779       9.90740014       3.88289479      -0.00161557       0.00532718       0.01113986
Cr       2.45097261       6.43278923       4.43558175       0.00369685      -0.00394830      -0.00041597
O        2.40464613       7.53283536       6.78904772      -0.00421044       0.00114891       0.00263247
O        2.33999414       6.68549478       7.87948738      -0.00811888       0.01424734      -0.00007769
H        3.28409991       6.48396217       8.04771824       0.00578992       0.00734573       0.00728260
