50
Lattice="12.336457 0.0 0.0 -6.168228499999997 10.683685154694365 0.0 0.0 0.0 15.0" Properties=species:S:1:pos:R:3:forces:R:3 energy=-431.248453479489 free_energy=-431.248453479489 stress="-0.006947219352300703 -0.0015390916640173912 -1.1923825524748655e-05 -0.0015390916640173912 -0.008666643456998012 2.6300535768962385e-06 -1.1923825524748655e-05 2.6300535768962385e-06 1.4223579495038257e-05" pbc="T T T"
C        0.00236183      -0.06523967       3.90877635      -0.01249452      -0.00152010      -0.00359658
C       -1.23238378       2.08114719       3.73861785      -0.00771892      -0.00149686       0.00999072
C       -2.46190480       4.21742784       3.78275361       0.00280659       0.00104598       0.00683144
C       -3.68520665       6.35637833       3.88434384       0.00017896       0.00534831       0.00056598
C       -4.93415921       8.47970202       3.91147632       0.00161435      -0.00289050       0.00477958
C        2.46304690      -0.09780827       4.07097865      -0.00323229      -0.00835056       0.00625831
C        1.25261219       1.98915916       3.62268325      -0.00778393      -0.00080920       0.00373973
C       -0.07681309       4.23022917       3.22965454       0.00222513      -0.00440887       0.00011506
C       -1.25514411       6.37000982       3.62055648      -0.00063145       0.00111257      -0.00632074
C       -2.45682219       8.48332337       3.97079300      -0.00069191      -0.00031807      -0.00047808
C        4.92579684      -0.04675042       4.12206653       0.01142790      -0.00227427      -0.01047683
C        3.66217975       2.04395686       4.14833466       0.00691222      -0.00074581       0.00712552
S        1.14264911       6.48866750       2.39918189       0.00381127      -0.01080882       0.01135659
C       -0.02513692       8.52664756       3.78373676      -0.00865437      -0.00093251       0.01010431
C        7.39323122      -0.02298200       4.01285073      -0.00198388       0.00056095      -0.01410267
C        6.15802844       2.10315258       4.09129297       0.00327669       0.00127378      -0.00187027
C        4.98198478       4.26635743       3.68141399      -0.00218527       0.00464627       0.00070271
S        3.77848058       6.40966546       2.49116182       0.00902450      -0.01190626      -0.01317263
C        2.46802580       8.58352490       3.60443419      -0.00004630       0.01682025       0.00707946
C        9.87642892      -0.03020638       3.91449517       0.00121013      -0.00035179      -0.01475058
C        8.63775694       2.09370794       3.97440432      -0.00413746      -0.00678106      -0.00056268
C        7.41572898       4.22181717       3.88990662      -0.00619587       0.00514382       0.01095859
C        6.22499860       6.36945012       3.60501757       0.00226453       0.00323921      -0.00317775
C        4.95755632       8.50563943       3.72727238       0.00937310      -0.00187560       0.00093810
C       -0.00225627       1.35293894       3.75525573      -0.01170237      -0.00103805      -0.00303786
C       -1.24208544       3.49969541       3.59716575       0.00227781      -0.00346963       0.00513697
C       -2.46461912       5.64013853       3.79825441       0.00072777       0.00414548       0.00141163
C       -3.69268674       7.77366607       3.93409771       0.00128302       0.00181475      -0.00446829
C       -4.94006765       9.89546578       3.98204576      -0.01062948      -0.00406281      -0.00477235
C        2.45526283       1.30947394       3.98874965       0.00087565      -0.00430903      -0.00262546
P        1.46217685       3.46486247       2.68033215      -0.01119397       0.00498013       0.00105824
C       -0.13982637       5.63630833       3.18895057      -0.00228468      -0.00378947      -0.00101350
C       -1.22962433       7.79205859       3.78518190      -0.00523563      -0.00214649       0.01641364
C       -2.46222285       9.90160966       4.09203706       0.00724515      -0.00153562      -0.00806016
C        4.92034544       1.38633496       4.16317227       0.00997023      -0.00153602      -0.01266877
P        3.37680404       3.78109173       4.24962840       0.01013869       0.01006058      -0.00521896
C        1.22855285       7.87512428       3.49937069      -0.00868820       0.01305565       0.00680665
C       -0.01047405       9.93688159       4.00507710       0.00443823      -0.00568969       0.00481184
C        7.39374390       1.39556367       4.06323263      -0.00296644      -0.00437142      -0.00892286
C        6.17455786       3.51712588       3.91756828      -0.00607204       0.00235151       0.00406038
C        5.09148126       5.61962310       3.29301696       0.00445226       0.00348781      -0.00099441
C        3.69423563       7.85640675       3.49531346       0.00884022       0.01233561      -0.00637107
C        2.46494251       9.97472065       3.87766250       0.00022243       0.01386288      -0.00036801
C        9.87753058       1.38785806       3.90614697      -0.00460784      -0.00544508      -0.00447761
C        8.64478823       3.51076805       3.91336492      -0.00343087      -0.00177182       0.00157746
C        7.43174431       5.64260124       3.81731915      -0.00114270       0.00679308       0.00343803
C        6.17879895       7.78859020       3.72422152       0.00754667      -0.00123929       0.00808975
C        4.93899681       9.92123273       3.87686658      -0.00326487      -0.00600658       0.00223114
Cr       2.42755825       6.45375283       4.44669245       0.00838060      -0.00211183       0.00109443
O        2.52890380       6.89634530       5.95584339       0.00645118      -0.00808552      -0.00516815
