53
Lattice="12.336457 0.0 0.0 -6.168228499999997 10.683685154694365 0.0 0.0 0.0 15.0" Properties=species:S:1:pos:R:3:forces:R:3 energy=-453.85328445241845 free_energy=-453.85328445241845 stress="-0.006533604112469846 -0.0006369525891234908 9.659158689711887e-06 -0.0006369525891234908 -0.010364076973070194 7.721627779225116e-05 9.659158689711887e-06 7.721627779225116e-05 7.427614827545107e-05" pbc="T T T"
C        0.04908190      -0.09655823       4.00883430       0.00894810      -0.01538522       0.00145670
C       -1.20171086       2.02433137       4.05898480       0.00170305      -0.01773695      -0.03267692
C       -2.44245257       4.17119119       4.07294165      -0.01804946      -0.01907971      -0.00057078
C       -3.66258979       6.31078460       4.02258443       0.01452733       0.01404723      -0.01884928
C       -4.88578595       8.44544049       3.98082519       0.01407307       0.03763238      -0.02390755
C        2.51008047      -0.10259048       3.85176427       0.01737278      -0.00180858      -0.01326544
C        1.25858381       2.01471017       3.69138183      -0.00633268      -0.00740057      -0.03227443
C       -0.00844370       4.11794266       3.76562344      -0.00063620       0.00149849       0.01305035
C       -1.19982264       6.30484256       3.93448360      -0.00059075       0.00267722      -0.00788110
C       -2.41210968       8.44121780       3.92951407       0.00740980      -0.01425740       0.02152544
C        4.96853850      -0.09151668       3.84965289      -0.02542792      -0.00191436       0.00985692
C        3.74473276       2.01079603       3.52324190       0.01024790       0.01973638       0.01577089
P        2.40483929       4.03350394       2.29103203      -0.01276773       0.02504662      -0.00573485
S        1.46195568       6.20279006       3.50002636      -0.01138026      -0.00762013      -0.00283265
C        0.03218906       8.47437059       3.78891010      -0.01340015      -0.01248724      -0.01576158
C        7.42873444      -0.06813477       3.93214530      -0.00842834       0.00031748       0.00632407
C        6.20331881       2.03425863       3.83785027       0.00157392       0.00632921       0.01227932
C        5.01051939       4.12910597       3.43226647       0.00554768      -0.00707261       0.00994340
S        3.92019599       6.49115678       2.50789871       0.02328210       0.02079461       0.03936903
C        2.50844901       8.55011143       3.69485954      -0.01059990      -0.01927017      -0.01612827
C        9.91493530      -0.07425424       4.03519698       0.00798207       0.02057650      -0.00074921
C        8.66604618       2.04477257       4.07197702      -0.00713777       0.00357985      -0.00480388
C        7.43430251       4.17019876       3.95776958      -0.01204903      -0.00744687      -0.01818660
C        6.22037613       6.31259459       3.85926811       0.01491042       0.00535424       0.01359073
C        4.99363837       8.46630746       3.91957224       0.00736787       0.01369549       0.01018246
C        0.03517711       1.31723343       3.96079590       0.00315006      -0.02730106       0.00158829
C       -1.22505632       3.43794757       4.01181462      -0.00671047      -0.01643223       0.00763080
C       -2.44043531       5.59334917       4.02482060       0.00246269      -0.00317278       0.05751616
C       -3.65239225       7.73139411       3.98535012       0.00422338       0.01950280       0.00820636
C       -4.88803192       9.86929162       3.95747557       0.02044276       0.02258858       0.01527436
C        2.50468739       1.30784040       3.66390980       0.00924665       0.00457122      -0.00878661
C        1.18910994       3.40406587       3.41959581      -0.00106503       0.01137540      -0.01944263
C       -0.04304461       5.52181521       3.82242682      -0.00801863       0.00335395      -0.01660814
C       -1.18095454       7.73183476       3.88084503       0.00440089      -0.00911943       0.00956240
C       -2.42435429       9.86841149       3.87354253      -0.00332623      -0.02492054       0.01184863
C        4.97477334       1.32184423       3.75176858       0.00228549       0.00885252       0.00276901
C        3.80702113       3.39718211       3.19324997      -0.00069966       0.01591241       0.00657594
C        1.29018705       7.88060372       3.60886540      -0.02239640      -0.03980253      -0.03792357
C        0.03404596       9.89932239       3.87070278      -0.02397643      -0.00403977       0.00000011
C        7.43141891       1.34183276       3.98382184       0.00414749       0.00788782      -0.03571293
C        6.21671580       3.45165745       3.75664203      -0.00616761      -0.00152895       0.02844743
C        5.00719558       5.57433011       3.58626298       0.00303895      -0.00989729       0.02476407
C        3.74357596       7.79486029       3.71073840       0.00002428      -0.01096773       0.02481910
C        2.50663028       9.93363886       3.90780794       0.00741618      -0.00761255      -0.00643002
C        9.90214464       1.33307019       4.09516442      -0.00296770       0.01501806       0.01854849
C        8.66190481       3.46365352       4.06852183      -0.02426731      -0.00979048      -0.01135274
C        7.43724111       5.59667124       3.97154878       0.01509077      -0.00341990      -0.01925298
C        6.21023430       7.73200122       3.92214658       0.01522075       0.02463880       0.01289741
C        4.98166066       9.88407703       4.02464613       0.00601438       0.00617236      -0.00175371
Cr       3.34835424       6.03758685       4.99460209       0.00794057       0.02336157      -0.01352732
O        3.34418932       7.45191248       6.36685995      -0.01499925      -0.01969321       0.01946485
O        1.97103510       7.73377277       6.72138374      -0.00785871       0.00881897      -0.01509965
H        1.98028427       7.47124838       7.66391037       0.00920222      -0.02416190      -0.02374989
