52
Lattice="12.336457 0.0 0.0 -6.168228499999997 10.683685154694365 0.0 0.0 0.0 15.0" Properties=species:S:1:pos:R:3:forces:R:3 energy=-438.1407412878229 free_energy=-438.1407412878229 stress="-0.007537270796180285 -8.699410475323896e-05 -8.495231043015517e-05 -8.699410475323896e-05 -0.006889360090674667 -9.81813297824494e-06 -8.495231043015517e-05 -9.81813297824494e-06 -1.2860652554495483e-05" pbc="T T T"
C       -0.01235159      -0.00729266       3.99043557       0.01174640      -0.00658145      -0.00333514
C       -1.25854591       2.12110388       3.88062228       0.00033896      -0.00485494       0.00648286
C       -2.49182684       4.26740549       4.12342709      -0.00454074       0.00159440       0.00139735
C       -3.70398622       6.41255840       4.25818310      -0.00278437       0.00565521      -0.00114053
C       -4.94944445       8.54496702       4.13461794      -0.00488304      -0.00282973      -0.00418658
C        2.45355021      -0.01152858       3.95356231       0.00609464       0.00141750       0.00759504
C        1.19383686       2.02789194       3.40235334      -0.00075666       0.00365377       0.00571955
C       -0.26248957       4.27765271       3.23372211      -0.01314090       0.00198620      -0.00317370
C       -1.30794213       6.41834171       3.79155293       0.00311297      -0.00167914       0.01022053
C       -2.47180325       8.54036341       4.08481492       0.00360093       0.00849992      -0.00177556
C        4.92093130      -0.00930645       4.00301053      -0.00130941       0.00845524      -0.00323320
C        3.70979190       2.04258446       3.50704843      -0.00099076      -0.00564558      -0.00780228
S        1.09902737       6.45942357       2.48344589      -0.01616296       0.00562918      -0.00159046
C       -0.01912447       8.54636879       3.77905870      -0.00451405      -0.00016539      -0.00186813
C        7.38874865      -0.01109281       4.05011692      -0.00334811      -0.00103982      -0.01293857
C        6.16553639       2.12018845       3.99371872       0.00522628      -0.00192731       0.00373424
C        5.14404247       4.28416099       3.48836711      -0.00227014       0.00585089      -0.00365166
S        3.80169359       6.40052951       2.67642604      -0.00783714      -0.00028731       0.00007705
C        2.45355327       8.57299130       3.62306766       0.00705209      -0.00573621      -0.00369906
C        9.85647273      -0.00957940       4.03893985       0.00116882       0.00340219       0.01283084
C        8.62608161       2.12427588       4.18884508       0.00272938       0.00351527      -0.00067345
C        7.41439212       4.26767090       4.22994143      -0.00115472      -0.00994193       0.00043639
C        6.21648223       6.42289595       3.97386470      -0.00370167      -0.00313290      -0.00721275
C        4.92669402       8.54267064       3.86357917      -0.00190564      -0.00349059       0.00681468
C       -0.02087897       1.41189365       3.77659816       0.00226269      -0.00396894      -0.00096623
C       -1.30895983       3.53942987       3.79118144      -0.00651429      -0.00128846       0.00488777
C       -2.49154768       5.69090724       4.12290271      -0.00097574       0.00167379       0.00565479
C       -3.70905789       7.83441915       4.18920657      -0.00036805       0.01135971      -0.00080321
C       -4.94778229       9.97086069       4.04859906       0.01043347      -0.00571991      -0.00122306
C        2.45225722       1.38638702       3.61865590      -0.00046135      -0.00267973      -0.00213195
S        1.08782132       3.49232164       2.46799801       0.00331115      -0.00345731      -0.00365820
C       -0.26098114       5.67824372       3.23725423      -0.00164805       0.00222377      -0.00438755
C       -1.25686365       7.83714074       3.88259877      -0.00092488      -0.00260205      -0.00121692
C       -2.47985108       9.96825290       4.03649115       0.00444638       0.00785259       0.00854005
C        4.92530821       1.41712001       3.86214174       0.00274453       0.00283491       0.00177673
S        3.79506010       3.56421823       2.68491374      -0.00900145      -0.00166920       0.00030184
C        1.19674898       7.92874265       3.41120718       0.00095952       0.00160072       0.00262281
C       -0.01151989       9.96658971       3.98873495      -0.00810944       0.00009100       0.00305147
C        7.38538716       1.41484972       4.13388585       0.00724714       0.00057717      -0.00374283
C        6.21567688       3.53749304       3.97204492      -0.00403685      -0.00063263      -0.00292691
C        5.14648465       5.67701914       3.48564020      -0.01172952       0.00645848      -0.00140808
C        3.71154089       7.91865776       3.50553012       0.00420864      -0.01130530       0.00411635
C        2.45373712       9.97101009       3.95676802       0.00077540      -0.00455361       0.00840249
C        9.86363841       1.41803377       4.08536165      -0.00199494       0.00311629      -0.00132962
C        8.63159181       3.54636829       4.25733391       0.00067442      -0.00215012      -0.00333968
C        7.41462866       5.69258258       4.23231660      -0.00004969      -0.00828426      -0.01474445
C        6.16719685       7.84010376       3.99579282      -0.00631849      -0.00625759      -0.00194013
C        4.92088849       9.96813166       4.00656853       0.00509779       0.00049375      -0.00642811
Cr       2.44556969       4.99511407       4.23108403       0.00033644       0.00327601       0.00255511
O        3.42797307       5.05225894       5.91740176       0.01386437       0.01027916       0.00545060
O        2.39824468       4.98460220       6.94593467       0.00657302       0.00547559       0.00638183
H        2.98067843       4.97839049       7.72707545       0.01742761      -0.00509129      -0.00252239
