51
Lattice="12.336457 0.0 0.0 -6.168228499999997 10.683685154694365 0.0 0.0 0.0 15.0" Properties=species:S:1:pos:R:3:initial_magmoms:R:1:forces:R:3 energy=-434.14260916947944 free_energy=-434.14260916947944 stress="-0.0036146870187577385 -8.943445307884758e-05 -3.0975668305721514e-07 -8.943445307884758e-05 -0.004272320352297268 -1.0897542001020448e-05 -3.0975668305721514e-07 -1.0897542001020448e-05 1.6275815818437317e-05" pbc="T T T"
C        0.00115967      -0.00536764       4.02738853       0.00000000       0.00186088      -0.00110191       0.00477874
C       -1.24283918       2.12423880       3.96032533       0.00000000       0.00452795      -0.00623275       0.00090269
C       -2.47830306       4.26728685       4.20541226       0.00000000       0.00669501       0.00303308       0.00172389
C       -3.70049359       6.41342476       4.28920970       0.00000000      -0.00273216      -0.00267502       0.00201987
C       -4.94081146       8.54453385       4.14668957       0.00000000      -0.00286609      -0.00138398      -0.00724503
C        2.46675408      -0.00169831       3.97717645       0.00000000       0.00250474      -0.00357059      -0.01242202
C        1.20150088       2.03221895       3.42478023       0.00000000       0.00126339       0.00356814       0.00337878
C       -0.20046272       4.28186894       3.39936382       0.00000000       0.00470730      -0.00236009      -0.00265441
C       -1.28277000       6.41913062       3.91371059       0.00000000       0.00318926       0.00854877      -0.00142037
C       -2.46102333       8.54344569       4.14169373       0.00000000      -0.00408036       0.00273429      -0.00526886
C        4.93284999      -0.00704170       4.04185602       0.00000000       0.00485831       0.00262107      -0.01124567
C        3.73386438       2.03329980       3.44721279       0.00000000      -0.00090103      -0.00081212      -0.00657678
S        0.98439053       6.51873432       2.39522001       0.00000000       0.00351178      -0.00035910       0.00590642
C       -0.00362317       8.54785741       3.82704026       0.00000000       0.00325648      -0.00099832       0.00173738
C        7.40421100      -0.01202445       4.06682149       0.00000000      -0.00692398      -0.00107108      -0.00616309
C        6.17599095       2.12367759       3.98991085       0.00000000      -0.00134299      -0.00665085      -0.00458006
C        5.12579465       4.28159195       3.44949578       0.00000000       0.00560153       0.00184612      -0.00504373
S        3.95376175       6.50868038       2.41816867       0.00000000      -0.00817871      -0.00085397      -0.00526619
C        2.46729383       8.56747884       3.57182750       0.00000000       0.00151107       0.00492307       0.00957133
C        9.86710679      -0.01089435       4.05878729       0.00000000      -0.00164896      -0.00258029       0.00207407
C        8.63598066       2.12683365       4.22239381       0.00000000      -0.00240970       0.00306100       0.00540660
C        7.41276007       4.26762258       4.22822050       0.00000000      -0.01260178       0.00038016      -0.00130769
C        6.21424503       6.41967271       3.94318106       0.00000000      -0.00015359       0.00510103       0.00384094
C        4.93787686       8.54838950       3.83275759       0.00000000      -0.00141646      -0.00212349       0.00985479
C       -0.00368259       1.41466605       3.83587666       0.00000000       0.00466363      -0.00204960       0.00296997
C       -1.28251310       3.54290245       3.91693068       0.00000000       0.00769637      -0.00605847      -0.00198804
C       -2.47823072       5.69455954       4.20451870       0.00000000       0.00482420       0.00549886       0.00037245
C       -3.70078135       7.83484961       4.22296936       0.00000000      -0.00500305      -0.00267228       0.00030038
C       -4.93345557       9.97362692       4.07497724       0.00000000       0.00103936      -0.00197422      -0.00410296
C        2.46697532       1.39635399       3.60214870       0.00000000      -0.00013056       0.00006786      -0.00171364
S        0.98848074       3.43969002       2.40496924       0.00000000      -0.00339066      -0.00030587       0.00236802
C       -0.20108219       5.67926624       3.39606620       0.00000000       0.00097794       0.00044531       0.00469255
C       -1.24245466       7.83777281       3.95765883       0.00000000       0.00069406       0.00791454       0.00445226
C       -2.46946126       9.97279045       4.07870280       0.00000000       0.00562011       0.00290455      -0.00101222
C        4.93718402       1.41423398       3.86226517       0.00000000      -0.00067007       0.00180370      -0.00174303
S        3.94986865       3.44504461       2.43808668       0.00000000      -0.00176935       0.00343257      -0.00213844
C        1.19955578       7.93152083       3.40617067       0.00000000       0.00579046      -0.00217790       0.00764142
C        0.00203360       9.96693272       4.02695624       0.00000000      -0.00163542      -0.00478035       0.01398172
C        7.39655716       1.41684660       4.15020488       0.00000000      -0.00102281      -0.00328626      -0.00733870
C        6.21338230       3.54266505       3.95652486       0.00000000      -0.00596088      -0.00880709      -0.00381238
C        5.12725153       5.67819604       3.43952285       0.00000000       0.00527838       0.00264644       0.00267822
C        3.73508681       7.93110066       3.41263657       0.00000000      -0.00109780      -0.00099666       0.01184876
C        2.46741735       9.96439266       3.95187203       0.00000000      -0.00561839       0.00442192       0.00179635
C        9.87498338       1.41795198       4.13603163       0.00000000      -0.00196279      -0.00259571      -0.00797366
C        8.63620291       3.54840823       4.29173854       0.00000000      -0.00470265       0.00845863       0.00064287
C        7.41236292       5.69504802       4.22435685       0.00000000      -0.00551701       0.00006710      -0.00294547
C        6.17611295       7.83861800       3.97214994       0.00000000      -0.00053976       0.00251458      -0.00321356
C        4.93255736       9.96851517       4.02079379       0.00000000       0.00097253      -0.00229255       0.00432234
Cr       2.45974977       4.98530701       3.19891829       0.00000000      -0.00164857      -0.01612293       0.00543884
O        2.43068345       4.31961988       5.08533968       1.00000000       0.00723261       0.00016782      -0.00498699
O        2.45976354       5.65460534       5.08309323       1.00000000      -0.00235176       0.01073281      -0.00253866
