50
Lattice="12.336457 0.0 0.0 -6.168228499999997 10.683685154694365 0.0 0.0 0.0 15.0" Properties=species:S:1:pos:R:3:forces:R:3 energy=-429.2525215815292 free_energy=-429.2525215815292 stress="-0.00580944486303282 -2.2930356526724327e-07 2.1947828859890938e-05 -2.2930356526724327e-07 -0.007395988756708751 2.3899656994024653e-06 2.1947828859890938e-05 2.3899656994024653e-06 -2.532702332177321e-06" pbc="T T T"
C        0.00296839      -0.00381013       3.96151358      -0.00224160       0.00172792       0.00365853
C       -1.24070971       2.12590606       3.89794308       0.01066571       0.00825181       0.00434184
C       -2.48006263       4.27059312       4.12623045       0.00934633       0.00338195       0.01211537
C       -3.70053058       6.41418259       4.21342375       0.00079387      -0.00660071       0.00629872
C       -4.93955270       8.54506872       4.08751630      -0.00934503      -0.00506098      -0.00093540
C        2.46808702      -0.01122789       3.92660352      -0.00160765       0.00689908      -0.01690923
C        1.21500860       2.03662954       3.40952319      -0.00285585      -0.00369919      -0.00770655
C       -0.17967914       4.28502915       3.41293094       0.00237331       0.00343856      -0.00322805
C       -1.28096823       6.42419201       3.86331628       0.00941022      -0.00665110       0.00511143
C       -2.46106515       8.54272391       4.06634275       0.00861697      -0.00486882       0.00290448
C        4.93391219      -0.00804259       3.96841854       0.00024080       0.00165037      -0.00010566
C        3.72415264       2.03591060       3.43526743       0.00365983       0.00104200      -0.00212615
S        1.10811526       6.43781572       2.49969118      -0.00683253       0.00509472       0.01474926
C       -0.00036452       8.54859024       3.77616629       0.00311344      -0.00318649       0.00800585
C        7.40295709      -0.00433302       4.01333010      -0.00306643      -0.00328638       0.00036497
C        6.17414314       2.12442000       3.94703109      -0.00906362       0.00919379      -0.00601397
C        5.09838228       4.28529317       3.51799445      -0.00186385       0.00317594      -0.01262263
S        3.84260700       6.42715471       2.55228144       0.01388065       0.00762156       0.00547267
C        2.46854726       8.57807410       3.58589418       0.00087466      -0.00920833      -0.01175373
C        9.86945743      -0.00218351       4.00937078       0.00019181      -0.00292082      -0.00217294
C        8.63618362       2.13123372       4.15104182      -0.00006616       0.00518953      -0.00084024
C        7.41258577       4.27041201       4.17852880      -0.00660953       0.00274697       0.00302740
C        6.20823968       6.42530709       3.94565614      -0.00673361      -0.00729511      -0.00530500
C        4.93616700       8.55057638       3.80879951      -0.00274930      -0.00274788       0.00629849
C       -0.00029701       1.41804485       3.77641754       0.00303878       0.00189429       0.00762189
C       -1.28095896       3.54234374       3.86349379       0.00926888       0.00653181       0.00480799
C       -2.48004677       5.69587475       4.12611685       0.00907597      -0.00208792       0.01194842
C       -3.70028674       7.83526462       4.15090129      -0.00022809      -0.00453491      -0.00085609
C       -4.93347560       9.97092612       4.01333462      -0.00346811       0.00236662       0.00010354
C        2.46864572       1.38843355       3.58596617       0.00043685       0.00896285      -0.01086583
S        1.10814776       3.52852663       2.49985268      -0.00637963      -0.00315330       0.01333147
C       -0.17953238       5.68142198       3.41318173       0.00206822      -0.00290173      -0.00460471
C       -1.24078164       7.84067489       3.89760239       0.01094598      -0.00914846       0.00547386
C       -2.46702554       9.96876275       4.00994128       0.00060560       0.00245462      -0.00363018
C        4.93619497       1.41592985       3.80901904      -0.00281181       0.00298384       0.00666175
S        3.84263078       3.53927425       2.55238402       0.01413298      -0.00650741       0.00432522
C        1.21489302       7.92993666       3.40924426      -0.00248544       0.00380808      -0.00792297
C        0.00293516       9.97040475       3.96179652      -0.00186645      -0.00289917       0.00275077
C        7.39688631       1.42149595       4.08763206      -0.00883709       0.00477455      -0.00076722
C        6.20825730       3.54124459       3.94579201      -0.00712029       0.00710083      -0.00543107
C        5.09832210       5.68122744       3.51798904      -0.00104588      -0.00340529      -0.01248975
C        3.72404291       7.93044583       3.43545792       0.00409393      -0.00018138      -0.00361268
C        2.46805711       9.97783158       3.92629739      -0.00137210      -0.00778642      -0.01694461
C        9.87543852       1.42382752       4.06634902       0.00819705       0.00459107       0.00261290
C        8.63591492       3.55229497       4.21365705       0.00120683       0.00759545       0.00587757
C        7.41257587       5.69611820       4.17841841      -0.00638788      -0.00283653       0.00308005
C        6.17415531       7.84213545       3.94681329      -0.00940569      -0.00928332      -0.00578871
C        4.93393982       9.97461224       3.96781030      -0.00031475      -0.00194784       0.00085584
Cr       2.45375081       4.98311265       3.85548887      -0.00915952       0.00002541      -0.01243179
O        2.44833051       4.98094840       5.45109734      -0.01232077      -0.00030411       0.01326487
