51
Lattice="12.336457 0.0 0.0 -6.168228499999997 10.683685154694365 0.0 0.0 0.0 15.0" Properties=species:S:1:pos:R:3:forces:R:3 energy=-445.4039906518878 free_energy=-445.4039906518878 stress="-0.002561077242397541 0.00434099898818968 -6.383854088690695e-07 0.00434099898818968 0.0015851812408152295 -1.108227344366448e-05 -6.383854088690695e-07 -1.108227344366448e-05 4.662032514684695e-06" pbc="T T T"
C        0.00705688       0.01943937       3.76459814      -0.00124985       0.00162905      -0.00164321
C       -1.20042363       2.16347260       3.65625810      -0.00397968       0.00510148      -0.00173143
C       -2.42486569       4.29300770       3.56953002       0.00696310      -0.00294195      -0.00504737
C       -3.69017381       6.42389074       3.63625631       0.00220357       0.00554380       0.01479622
C       -4.94535466       8.55936922       3.76702719       0.00543414       0.00635494       0.00032325
C        2.46890337       0.03151314       3.71903882      -0.00790854      -0.00396222      -0.00090723
C        1.25780939       2.20316539       3.83446312       0.00257980       0.00473929      -0.00420894
C        0.04115240       4.34537130       3.69454256       0.00890617       0.00550465      -0.00593940
C       -1.23453986       6.44517012       3.54047576       0.00004497      -0.00518865       0.00051483
C       -2.47609076       8.57252762       3.58657645       0.00823037      -0.00911271       0.00042619
C        4.94656025       0.01649687       3.55835997      -0.01459494       0.00053864       0.00287685
C        3.73765839       2.14246848       3.77914409       0.00638971      -0.00975549      -0.00133029
B        2.58009185       4.37312191       4.27489458      -0.00474056      -0.00691840       0.00129437
O        1.13199630       6.48374896       3.35994065      -0.00951506      -0.00422066      -0.01248660
C       -0.01405102       8.56290175       3.48175780       0.00343730       0.00893317      -0.00041526
C        7.42406961      -0.00603137       3.49028021      -0.00717852      -0.00016201       0.00901153
C        6.21786185       2.12075663       3.57197984       0.00634979      -0.00336109      -0.00563956
C        5.04048987       4.21745429       3.89855963      -0.00532864       0.00082367       0.00608667
P        3.48378264       6.19929142       4.60093574       0.00324195      -0.00718050      -0.00738520
C        2.43394378       8.52595778       3.65073263      -0.00760166       0.00331646       0.00638815
C        9.88451019      -0.00329876       3.63202900       0.00181365       0.00445283      -0.00250918
C        8.67811951       2.13809330       3.53088701      -0.01246200      -0.00114918       0.00241825
C        7.46022728       4.27224112       3.63171024       0.00106190      -0.00050964      -0.01029043
C        6.20369541       6.40492056       3.90594574       0.01214360       0.00520081       0.01161563
C        4.91031174       8.53231903       3.88573206       0.00499279      -0.00592621      -0.00061225
C        0.02459391       1.45671209       3.74981822      -0.00228739       0.00429233      -0.00130337
C       -1.18768258       3.60087318       3.62209418       0.01040222       0.00493433       0.00151541
C       -2.45296245       5.71370004       3.57376946      -0.00123439      -0.00160411       0.00336345
C       -3.71028263       7.85339255       3.66325710       0.00507312       0.00413682       0.01554719
C       -4.93315503       9.99084509       3.76085394      -0.00441961       0.00146981      -0.01457934
C        2.48148194       1.45752145       3.79213406       0.00197689      -0.00318423       0.01310261
C        1.26051742       3.64714287       3.91645312       0.00126140       0.00331239       0.00815350
C       -0.02257227       5.76199637       3.56120041      -0.00107326      -0.00239324       0.00213469
C       -1.25247354       7.86573866       3.51626497       0.01231417      -0.00521698      -0.01103772
C       -2.46913623      10.00120310       3.61802981      -0.01126595      -0.00860033      -0.00266321
C        4.96854992       1.42772740       3.62059190       0.00699157      -0.00269408      -0.00762370
C        3.80613024       3.53787402       3.94982321      -0.00448895      -0.00896996       0.00972484
C        1.18243499       7.85942142       3.51407019      -0.00423663      -0.00408033      -0.00604105
C        0.01150025       9.98701219       3.49242967      -0.01148860       0.01016991       0.01111049
C        7.44415968       1.41825434       3.50530574      -0.00329381      -0.00756518       0.00696909
C        6.25078064       3.53390177       3.66644360      -0.00133345      -0.00128834      -0.00487303
C        5.04361654       5.62094522       4.09997591       0.00561249       0.00506633      -0.00007945
C        3.64282763       7.83520282       3.95811499      -0.00393292      -0.00181704      -0.01011168
C        2.47463587       9.95604822       3.55973875      -0.00272605       0.00664281       0.00161846
C        9.90456271       1.42999470       3.59101753      -0.01012155       0.00621048      -0.01008941
C        8.68493095       3.56522010       3.55592028       0.00117180      -0.00269218       0.01031944
C        7.43460331       5.69889611       3.71732542       0.00436488       0.00311404      -0.00468204
C        6.16110747       7.83504608       3.88120404       0.01194391       0.00315331       0.00346003
C        4.93886711       9.96987400       3.75765686       0.00397058      -0.00443915      -0.00391363
Cu       2.40614376       5.26807268       6.16540774       0.00232382       0.00766400      -0.00868096
O        1.70188550       5.12457324       7.69436540      -0.00473762       0.00262853       0.00305378
