50
Lattice="12.336457 0.0 0.0 -6.168228499999997 10.683685154694365 0.0 0.0 0.0 15.0" Properties=species:S:1:pos:R:3:forces:R:3 energy=-432.035003193374 free_energy=-432.035003193374 stress="-0.0031911548248068394 -0.0024488644980783236 1.5557711156923757e-06 -0.0024488644980783236 -0.0010772142789604205 -7.220852814372787e-06 1.5557711156923757e-06 -7.220852814372787e-06 3.579591429191095e-06" pbc="T T T"
C       -0.00324361      -0.00754608       3.73147222       0.00705789       0.00228715       0.01145586
C       -1.25350845       2.13192051       3.69642181      -0.00570651       0.00587675       0.00170256
C       -2.51162381       4.26304937       4.00612866      -0.00166171       0.00021429      -0.00380596
C       -3.71625441       6.40823540       4.08446707       0.00278441       0.00169679      -0.00248616
C       -4.93153685       8.54869844       3.93651015       0.00185883       0.00456423      -0.00232455
C        2.47327087      -0.02933272       3.66978306       0.00056592      -0.00339863       0.00250991
C        1.21532940       2.04930724       3.28223244      -0.00185335       0.00238580       0.00904934
C       -0.12232532       4.33188130       3.69973487      -0.00070722       0.00660258      -0.00388969
C       -1.26034585       6.39820987       4.17637518      -0.00378222       0.00309930      -0.01375155
C       -2.45784077       8.53854778       4.02387672      -0.00357113      -0.00043035       0.00316956
C        4.94075153      -0.02562018       3.74960901      -0.00407741      -0.00616157      -0.00058141
C        3.72063208       2.02341108       3.14614868      -0.00014921      -0.01254012       0.00031994
B        1.25219896       6.35925049       4.54208252      -0.01189819      -0.00598138       0.00169038
C        0.02889751       8.52620508       4.05331698       0.00323728      -0.00210304       0.00131675
C        7.40167213      -0.01870335       3.81593147       0.00083255       0.00768760       0.00115004
C        6.15208160       2.13865813       3.63506224       0.00203908       0.00003408       0.00680519
C        4.99402533       4.35844603       3.39115924       0.00001762       0.00271450       0.00087360
O        3.82542150       6.50654425       3.38116984      -0.00854987      -0.00642193      -0.00275388
C        2.48360750       8.49914956       3.87470386      -0.00226438      -0.00484556      -0.00422016
C        9.85995297      -0.01541201       3.78710804       0.00105127       0.00874869       0.00196680
C        8.61455817       2.12984907       3.84396608      -0.00099962       0.00511339      -0.00487861
C        7.37071700       4.27579279       3.91287038       0.00734159      -0.00675936      -0.00175110
C        6.17836222       6.43692611       3.86407068       0.00839250       0.00036017       0.00330776
C        4.94267844       8.54673477       3.82781883      -0.00073731       0.00048924      -0.00643999
C       -0.01226681       1.41711746       3.57877977      -0.00411235       0.00266840       0.00122300
C       -1.28927385       3.54833886       3.81319413      -0.00197837       0.00486043       0.00092023
C       -2.49937699       5.68512641       4.11759160      -0.00169654      -0.00120822      -0.00063380
C       -3.69815885       7.83359427       4.03702504      -0.00222464       0.00280781       0.00204414
C       -4.93334371       9.96838626       3.79227865       0.00558135       0.00219647       0.00758849
C        2.46657811       1.36617209       3.33078204      -0.00284264      -0.00702175       0.00188280
S        1.13805782       3.68041407       2.70931646       0.00563915       0.00797883      -0.00138532
C       -0.06632952       5.66665632       4.11323478      -0.00411406       0.00292161      -0.00115730
C       -1.22949725       7.82956777       4.13599596       0.00062599       0.00121535      -0.00068025
C       -2.46010228       9.95295584       3.82356605      -0.00448505      -0.00532387      -0.00467437
C        4.93723431       1.39618708       3.50913474       0.00225591      -0.00624412       0.00494802
S        3.84817924       3.55997532       2.30116212      -0.00133556      -0.01719909      -0.00832063
C        1.26233559       7.83533782       4.10579426      -0.00170666      -0.00910717       0.00674077
C        0.00777634       9.95400762       3.87457026       0.00104358       0.00257776       0.00425077
C        7.38000244       1.42018075       3.77507571       0.00284620       0.00709890      -0.00257770
C        6.15088937       3.57395604       3.67493272       0.00284733      -0.00148883       0.00517230
C        4.99978366       5.77609127       3.54297518       0.00043931       0.00268486      -0.00336010
C        3.74860597       7.83504045       3.73704001      -0.00584437      -0.00598742       0.00313716
C        2.47016476       9.94127556       3.82261379       0.00041217       0.00493927       0.00366940
C        9.85798759       1.41904253       3.78886655      -0.00565673       0.00946151      -0.00504738
C        8.59925010       3.54916962       3.94839259       0.00424996      -0.00184793      -0.01794524
C        7.38970759       5.69691801       3.98252329       0.00917835      -0.00599017      -0.00157149
C        6.17978161       7.85202837       3.89730105       0.00303331       0.00286313      -0.00271613
C        4.92795385       9.97104889       3.80121801       0.00374375       0.00608965       0.00580516
Cu       2.74850357       4.40764395       4.16201628       0.00335772       0.00500605       0.01067019
O        2.15956257       5.75745854       5.32389956       0.00152210      -0.00718409      -0.00641734
