52
Lattice="12.336457 0.0 0.0 -6.168228499999997 10.683685154694365 0.0 0.0 0.0 15.0" Properties=species:S:1:pos:R:3:forces:R:3 energy=-438.4259732434131 free_energy=-438.4259732434131 stress="-0.005811872405423155 -0.002956333119964724 -2.186531516798357e-05 -0.002956333119964724 -0.0011243414165768818 9.085550579551357e-06 -2.186531516798357e-05 9.085550579551357e-06 -2.5145104347820024e-05" pbc="T T T"
C        0.02918402       0.05485607       3.89406277       0.00438448       0.00710894      -0.00154127
C       -1.23609049       2.16923700       3.69809490      -0.00885386      -0.00451942      -0.00474560
C       -2.47826113       4.32183906       3.94153004       0.00106292       0.00864882      -0.00577270
C       -3.66933999       6.47307099       4.15360623      -0.00706788      -0.00014380      -0.00560826
C       -4.89080238       8.62011578       4.12787840       0.00217850      -0.01008762      -0.00818246
C        2.50072593       0.05394616       3.80931049      -0.00980619      -0.00136944       0.00085649
C        1.22511994       2.08585841       3.26303038       0.00578236       0.00102963      -0.01681681
C       -0.16773895       4.33248332       3.26916782      -0.00760976      -0.00311407      -0.00747637
C       -1.24560473       6.46608730       3.87239401      -0.00551688       0.00060351       0.00193702
C       -2.42650989       8.60752157       4.02782751       0.00300036       0.00005516      -0.00082871
C        4.96491964       0.05495570       3.84768200      -0.00346607       0.00648740      -0.00802114
C        3.73589013       2.12214012       3.34176692       0.00294791       0.00868411       0.00425193
B        1.17149445       6.43732450       3.73986712       0.00421517      -0.00819149      -0.00171784
C        0.04028886       8.59227429       3.92130345       0.00224482      -0.00183532       0.00226372
C        7.43166771       0.04479235       3.93678287       0.00344920       0.00058144      -0.00269476
C        6.18206346       2.20788242       3.80343316       0.00805356       0.00199211      -0.00774324
C        5.06053893       4.44228604       3.62416756      -0.00702340       0.00382082       0.00183952
O        3.85079752       6.53291628       3.82565431       0.00413605      -0.00328283       0.00414554
C        2.53829657       8.57369109       3.95354006      -0.00174040      -0.00085771       0.00012001
C        9.89643708       0.04198998       3.96599586       0.00442138      -0.00554231      -0.00548154
C        8.64704321       2.18619471       3.96739786       0.00433439      -0.00154463      -0.00197112
C        7.42230279       4.33840034       4.08290842      -0.00154364      -0.00501216      -0.00375244
C        6.22755853       6.49895856       4.14946743       0.00778009       0.01039944       0.00191196
C        4.98600791       8.60712915       4.08690423      -0.00322364       0.00625041      -0.01003954
C        0.00990388       1.46306085       3.62486755       0.00187049       0.01052618       0.00838290
C       -1.28648052       3.58622126       3.64072325      -0.00402956      -0.00174186      -0.00032782
C       -2.46396640       5.74852157       4.01181144      -0.00529875       0.00759093       0.00834458
C       -3.65686198       7.90170935       4.12824708       0.00407917      -0.00501620      -0.00466741
C       -4.89749851      10.04021813       3.96170054      -0.00417169      -0.00845846       0.01382073
C        2.48903465       1.44791790       3.45273547       0.00298546       0.00226326      -0.00646401
S        1.08094610       3.56937887       2.35161693       0.00342953      -0.01117091       0.00524616
C       -0.08653656       5.71846443       3.55400865      -0.00715271      -0.00277561      -0.00141984
C       -1.19581916       7.88636863       3.95795483       0.00155625      -0.00070502      -0.00237715
C       -2.43154545      10.03059096       3.91301916      -0.00639458       0.00347362       0.00096856
C        4.95649001       1.48527296       3.67330571       0.00624279       0.00850082      -0.00231000
S        3.81263664       3.72255910       2.66375587      -0.00881266      -0.00388846      -0.00203958
C        1.29056195       7.88999586       3.88822576       0.00179100      -0.00558865      -0.00738225
C        0.03101112      10.02346091       3.91925594      -0.00203095       0.00230486       0.01709154
C        7.40864113       1.48094681       3.92746341       0.00740882      -0.00027798      -0.00073770
C        6.19821354       3.64117982       3.86657828      -0.00777136      -0.00075219       0.00779438
C        5.05288546       5.82420305       3.86184837       0.01136194       0.00437948       0.00429210
C        3.78665893       7.89808448       3.97821082      -0.00205800      -0.00142878      -0.00493006
C        2.50772511      10.00537840       3.97348423       0.00334355      -0.00070796       0.00403402
C        9.88693466       1.47171186       3.90216340      -0.00453441      -0.00972980      -0.00500441
C        8.64291814       3.60757893       4.03805075       0.00655864       0.00131943       0.00148338
C        7.44097590       5.75778032       4.17210265      -0.00300763      -0.00247936       0.00348689
C        6.22343814       7.91747600       4.16407328      -0.00279468       0.00762752       0.00370108
C        4.96431185      10.02841756       4.00489600       0.00681393       0.00650315       0.00886204
Cu       2.28588182       4.90101006       3.95415900      -0.01548698       0.00317824       0.00681496
O        2.93580351       4.81774110       5.72977960       0.00561495      -0.00737185       0.00245338
O        2.26239148       3.63532678       6.17678685       0.00173383       0.00454975       0.01511528
H        1.80822802       3.98165325       6.97263578       0.00661412      -0.01028516       0.00083591
