50
Lattice="12.336457 0.0 0.0 -6.168228499999997 10.683685154694365 0.0 0.0 0.0 15.0" Properties=species:S:1:pos:R:3:forces:R:3 energy=-434.2992134767949 free_energy=-434.2992134767949 stress="-0.006947555962158808 -0.0017663314874375687 5.892538290939218e-06 -0.0017663314874375687 -0.0004932413220766164 -1.4029883004903978e-05 5.892538290939218e-06 -1.4029883004903978e-05 2.7629378095965434e-06" pbc="T T T"
C        0.00394557      -0.01547799       3.75551761       0.01028755      -0.00530625      -0.00540492
C       -1.24551850       2.11959146       3.68902007       0.00458567      -0.00022134       0.00105934
C       -2.49441625       4.25866658       3.98799791      -0.00590009      -0.00772259      -0.00325626
C       -3.69840923       6.40951224       4.07420359       0.00296378       0.00050459      -0.00724101
C       -4.91453633       8.55389372       3.94427854       0.00474412       0.00430061       0.00670506
C        2.48027357      -0.01213145       3.71775436       0.00432641       0.00451482       0.00285149
C        1.21729606       2.05181112       3.27314767      -0.00463785      -0.00338776      -0.00288200
C       -0.13153401       4.33322016       3.59773836       0.00685884       0.00228266       0.00748269
C       -1.25907497       6.40139071       4.13858144      -0.00550042      -0.00168944       0.00507732
C       -2.45363805       8.54693890       4.04714103       0.00134733      -0.00334199      -0.00338255
C        4.94704360      -0.01741388       3.78737025      -0.00781945      -0.00112725       0.00189303
C        3.72737838       2.03745500       3.19674409      -0.00252910      -0.00322047      -0.00091292
B        1.20621978       6.35468945       4.57204285      -0.01379961      -0.00105205      -0.00536560
C        0.02149413       8.53385058       4.09089667       0.00090471      -0.00063510      -0.00705021
C        7.41209690      -0.02867379       3.84946430      -0.00680377       0.00528317      -0.00065722
C        6.17650906       2.12219678       3.63074343       0.00081221       0.00645464      -0.00247854
C        5.07981298       4.33796929       3.30964983      -0.00190833       0.00343085      -0.00444409
N        3.82846538       6.41977723       3.52523557      -0.00340507      -0.01165881      -0.00062633
C        2.47362994       8.48446831       3.92348548       0.00319088      -0.00998711      -0.01133192
C        9.86952869      -0.03327099       3.80923833      -0.00415686       0.00664927       0.00111956
C        8.63269421       2.11598187       3.84981440       0.00016196       0.00349941      -0.00061464
C        7.41012069       4.26752842       3.89399197      -0.00142919       0.00056652      -0.00497381
C        6.21979564       6.43367355       3.82630018       0.00509746       0.00087100       0.00399575
C        4.95349744       8.52390046       3.82403136       0.00306693       0.00241193      -0.00011556
C       -0.00366292       1.40927584       3.58535772       0.00023458      -0.00832792      -0.00358378
C       -1.28191493       3.54081986       3.77583848       0.00259394       0.00115822      -0.00091777
C       -2.48950689       5.68342114       4.09405072      -0.00360766      -0.00734271       0.00268496
C       -3.68864509       7.83713771       4.04429433       0.00128691       0.00178803       0.00565723
C       -4.92324364       9.97298188       3.82450530       0.01235384       0.00106538      -0.00096915
C        2.47436820       1.38668891       3.37596055      -0.00298736       0.00237478       0.00189571
S        1.09491607       3.64122951       2.58738688       0.00940781      -0.00924176       0.00093702
C       -0.07668360       5.66386418       4.02382129      -0.00423015       0.00024328       0.01224464
C       -1.23061569       7.83498179       4.14637886       0.00318615      -0.00308348       0.00394773
C       -2.45545371       9.96658089       3.86486262      -0.00389076      -0.00215006       0.00942712
C        4.94673649       1.40253589       3.53577749       0.00032904       0.00041072       0.00078704
S        3.82902387       3.58436441       2.38781227      -0.00829086      -0.00409703      -0.00504286
C        1.25448641       7.84021471       4.15087230       0.00074029      -0.00324366       0.00488928
C        0.01191993       9.95723457       3.91460038      -0.00741817       0.00355905       0.00872915
C        7.39739070       1.40684577       3.78813826       0.00080104       0.00769256      -0.00573065
C        6.19769016       3.55722525       3.63649221      -0.00180976       0.00548071      -0.00091531
C        5.01922715       5.75246356       3.53062887       0.00286292      -0.00252973       0.00477598
C        3.73901695       7.75908191       3.77083870       0.00389487      -0.01018410       0.00064651
C        2.47640518       9.92801066       3.85932880      -0.00540978      -0.00030512       0.00630642
C        9.87072674       1.40092886       3.79893822       0.00111262       0.00750026       0.00092147
C        8.62340354       3.53880477       3.94325510      -0.00702456      -0.00371249       0.00231762
C        7.41789611       5.69294918       3.95679164       0.00551248      -0.00097011      -0.00604955
C        6.19542655       7.84559176       3.88135626       0.00323020       0.00276844       0.00871034
C        4.93806395       9.94686665       3.81387329       0.00224815       0.00701098      -0.00256402
Cu       2.59578831       4.94097659       3.79017828       0.00606019       0.01406720      -0.00967648
O        1.98092092       5.69791413       5.45405988      -0.00164407       0.00864929      -0.00887532
