52
Lattice="12.336457 0.0 0.0 -6.168228499999997 10.683685154694365 0.0 0.0 0.0 15.0" Properties=species:S:1:pos:R:3:forces:R:3 energy=-446.53493650812965 free_energy=-446.53493650812965 stress="-0.0033979003735610355 0.0010920357559667476 2.1926219895626167e-06 0.0010920357559667476 0.00608229889220618 2.4707345850217814e-05 2.1926219895626167e-06 2.4707345850217814e-05 -1.0541853509229279e-05" pbc="T T T"
C        0.09351668       0.03966160       3.76752824      -0.00541673       0.00879392      -0.00347935
C       -1.14169344       2.16335030       3.63778514       0.00299127      -0.00157801       0.00028833
C       -2.36196369       4.30471454       3.59726457       0.00644945       0.00144208      -0.00840949
C       -3.59318154       6.44563499       3.70292331      -0.00516846      -0.00077676      -0.00424537
C       -4.84077253       8.59273460       3.79612342       0.00176189      -0.00131550       0.00215639
C        2.54968731       0.08845153       3.78994498      -0.00147570      -0.00063662       0.00240945
C        1.29268631       2.20371115       3.74338673       0.00410381      -0.00104000       0.00568746
C        0.05957231       4.31227350       3.49598447      -0.00070908       0.00328064       0.00747983
C       -1.13914933       6.43816976       3.54267870      -0.00240857      -0.00039268       0.00163529
C       -2.37745681       8.59390067       3.69450211       0.00374826       0.00180715       0.00062566
C        5.02582526       0.04125121       3.76078853       0.00605798       0.00027694      -0.00924557
C        3.80053151       2.22582961       3.92893361      -0.00632141       0.00365710       0.00047025
O        1.24503160       6.45175447       3.57148760       0.00727155       0.00143431       0.00544067
C        0.08294701       8.55616216       3.65523946       0.00281161      -0.00383531       0.00572599
C        7.49867498      -0.00364922       3.71434497       0.00117281      -0.00416652       0.00347688
C        6.28966864       2.14004285       3.80193680      -0.00280647      -0.00556209      -0.00474166
C        5.11393342       4.26600221       4.02530931      -0.00456588      -0.00211786       0.00036168
B        3.85052584       6.38828353       4.21690060       0.00967451      -0.00106261       0.00299261
C        2.52742328       8.51614244       3.78507743      -0.00525069       0.00306710       0.00522853
C        9.95770984      -0.00130153       3.73294802      -0.00663796      -0.00266530      -0.00564669
C        8.74065833       2.14496038       3.68299204       0.00099272       0.00259399      -0.00067107
C        7.53974778       4.29207554       3.76743059       0.00324060       0.00521290      -0.00265648
C        6.30566663       6.43912750       3.91129249       0.00255993       0.00229547       0.00214268
C        5.01948644       8.55705101       3.87892391      -0.00177225      -0.00044701       0.01100043
C        0.09142268       1.47333672       3.71073926       0.00500677       0.00559169      -0.00186660
C       -1.13377113       3.59446093       3.54926384       0.00326912      -0.00334997      -0.00850075
C       -2.36471247       5.72474938       3.60456002      -0.00596939       0.00039185      -0.00485485
C       -3.60975749       7.87831485       3.72964821       0.00333704      -0.00196963      -0.00107347
C       -4.84036860      10.02915720       3.78705555      -0.00678135       0.00236838      -0.00830763
C        2.53462852       1.52692760       3.83627141       0.00270326      -0.00168716      -0.00350334
O        1.23102960       3.58548952       3.70136611      -0.00788851      -0.00356049      -0.00517211
C        0.06113599       5.72308022       3.47957916       0.00239175       0.00430711       0.00694953
C       -1.15439501       7.86754257       3.62190962       0.00171116      -0.00011125      -0.00779299
C       -2.38566667      10.03193996       3.75412315       0.00451377       0.00380062      -0.00469418
C        5.03338922       1.46568963       3.83510648      -0.00713574       0.00192217      -0.00924853
C        3.89951122       3.59620989       4.12820962      -0.00691283       0.00216066       0.00490828
C        1.28418470       7.82614069       3.67151584       0.00119615      -0.00059215       0.01438289
C        0.09101199       9.98763885       3.71103454       0.00568991      -0.00551400       0.00359855
C        7.51380158       1.42428603       3.72675564       0.00097740      -0.00479051      -0.00198296
C        6.32889261       3.55630432       3.85401118      -0.00027272      -0.00166172      -0.00831150
C        5.12727877       5.68417127       4.06383019       0.00414220      -0.00157454      -0.00775008
C        3.77228038       7.84323971       3.94628853      -0.00540673       0.00359844       0.01203350
C        2.55078515       9.95184394       3.73172901      -0.00466255      -0.00182458      -0.00491630
C        9.97309116       1.43596272       3.67522089      -0.00061108      -0.00155259      -0.00939150
C        8.75357909       3.57664945       3.67335112       0.00716234       0.00718153       0.00334670
C        7.53440118       5.72288215       3.79022544      -0.00319634       0.00403234       0.00287565
C        6.26753650       7.86639456       3.87335491       0.00158858      -0.00073735       0.00593203
C        5.02812425       9.98860221       3.78521753      -0.00519080       0.00277439       0.00715179
Cu       2.73696047       4.90821221       4.64970936      -0.00421150      -0.00665373      -0.00394732
O        1.28107939       5.25405085       5.84717801       0.00133880      -0.00010279       0.00696863
O        1.13260031       3.96668523       6.43474362       0.00981351       0.00356047       0.01220127
H        1.15616364       4.19637160       7.38806053      -0.00690542      -0.01427252      -0.00706119
