51
Lattice="12.336457 0.0 0.0 -6.168228499999997 10.683685154694365 0.0 0.0 0.0 15.0" Properties=species:S:1:pos:R:3:initial_magmoms:R:1:forces:R:3 energy=-442.25331424171986 free_energy=-442.25331424171986 stress="-0.003920142233031855 0.0010380134104087282 1.4143539406796991e-05 0.0010380134104087282 0.005973854134681312 -6.879138364952434e-06 1.4143539406796991e-05 -6.879138364952434e-06 8.31798261191752e-06" pbc="T T T"
C        0.02907053       0.01933117       3.71556111       0.00000000       0.00691167      -0.00333374       0.00809583
C       -1.20418304       2.14263229       3.58815304       0.00000000      -0.00084092      -0.00278152       0.00108895
C       -2.42411256       4.28264552       3.53009237       0.00000000      -0.00298913      -0.00281574      -0.00940414
C       -3.65639524       6.42506262       3.62836824       0.00000000       0.00149749      -0.00510241      -0.00801410
C       -4.90498529       8.57110427       3.73059913       0.00000000      -0.00051356       0.00851943       0.00786283
C        2.48586845       0.06587565       3.71798938       0.00000000      -0.00309568       0.00454281       0.00733081
C        1.22894344       2.18334465       3.70952019       0.00000000      -0.00397086      -0.00448525      -0.01007018
C       -0.00782764       4.29377961       3.49147925       0.00000000       0.00522609      -0.00269049       0.00740606
C       -1.20177732       6.41777656       3.51182162       0.00000000       0.00863045      -0.00471253       0.00184894
C       -2.44090263       8.57188288       3.63326644       0.00000000       0.00076446       0.00382338       0.00207513
C        4.96260219       0.01750348       3.67933544       0.00000000       0.00130701       0.00140992       0.01326960
C        3.73603047       2.20218449       3.82060372       0.00000000      -0.00238621      -0.01398480       0.00147949
O        1.18641341       6.42088216       3.59560558       0.00000000      -0.00479874       0.00289411       0.00470106
C        0.02231010       8.52939621       3.62616480       0.00000000       0.00364556       0.00597557      -0.00559702
C        7.43538792      -0.02733224       3.65265979       0.00000000      -0.00117848       0.00160535       0.00016109
C        6.22519411       2.11686795       3.68945315       0.00000000       0.00389025       0.00176305      -0.00238909
C        5.05868035       4.24625921       3.89592581       0.00000000       0.00230836       0.00280068       0.00369740
B        3.78436292       6.36012767       4.16628827       0.00000000      -0.01581670       0.00290923      -0.00089674
C        2.46445331       8.49340834       3.75795959       0.00000000      -0.00458887      -0.00880484       0.00334726
C        9.89373455      -0.02309554       3.68243868       0.00000000      -0.00413028      -0.00645342      -0.00014472
C        8.67727504       2.12146205       3.60148374       0.00000000      -0.00511519       0.00935258       0.00018189
C        7.47877623       4.27116956       3.66034731       0.00000000       0.00226188      -0.00421555       0.00265019
C        6.24355592       6.41731310       3.82569437       0.00000000       0.00762972       0.00010748      -0.00126531
C        4.95373599       8.53507847       3.83428244       0.00000000       0.00189325       0.00459228      -0.00559393
C        0.02956702       1.45545910       3.66615483       0.00000000      -0.00108248      -0.01149547      -0.00597243
C       -1.19688356       3.57099357       3.50587808       0.00000000       0.00119952      -0.00091837       0.00757955
C       -2.42781663       5.70359368       3.54161245       0.00000000       0.00471471      -0.00033605       0.00295989
C       -3.67336394       7.85735034       3.66195477       0.00000000      -0.00254196      -0.00197563      -0.00013025
C       -4.90485804      10.00780907       3.72514971       0.00000000       0.00406538       0.00308933      -0.00227711
C        2.47118491       1.50588079       3.76291602       0.00000000      -0.00693870      -0.00386377       0.00084386
O        1.17063562       3.57348131       3.70822050       0.00000000      -0.00238424      -0.00606838      -0.00016488
C       -0.00473638       5.70099418       3.48258058       0.00000000       0.00900710      -0.00030530       0.00415185
C       -1.21653411       7.84454013       3.58154770       0.00000000       0.00764019      -0.00194824      -0.00381322
C       -2.44922828      10.00961089       3.68046315       0.00000000      -0.00163325       0.00979601       0.00488766
C        4.96697380       1.44438776       3.72964949       0.00000000       0.00251195       0.00281894      -0.00284696
C        3.83860034       3.57792775       3.99815636       0.00000000      -0.00269489       0.00648946      -0.00536411
C        1.22154213       7.80204441       3.66492048       0.00000000      -0.00204550       0.00055561      -0.00732945
C        0.02826550       9.96304866       3.65558120       0.00000000       0.00008932       0.00690600      -0.01548340
C        7.44976964       1.40069939       3.63802627       0.00000000      -0.00091394       0.00355574       0.00770911
C        6.26626873       3.53502819       3.72517843       0.00000000       0.01021409      -0.00794295       0.00314085
C        5.06793025       5.66008980       3.96414910       0.00000000      -0.00130634      -0.00055055      -0.00669442
C        3.70821483       7.81938062       3.91009893       0.00000000       0.00164275       0.00511673       0.00450665
C        2.48783681       9.92920083       3.68648841       0.00000000      -0.00519513      -0.00814378       0.00453012
C        9.90964163       1.41342162       3.61349927       0.00000000      -0.00560828       0.00163536      -0.00359754
C        8.69137385       3.55374516       3.58583444       0.00000000      -0.00123044       0.00509989      -0.00673144
C        7.47162964       5.70135764       3.69880698       0.00000000       0.00267006      -0.00520726      -0.00673305
C        6.20454412       7.84591581       3.81073073       0.00000000       0.00179737       0.00775542       0.00125170
C        4.96345842       9.96713966       3.74038546       0.00000000       0.00392163       0.00425369       0.00037572
Cu       2.70591453       4.86334435       4.58048375       0.00000000      -0.00838740      -0.00452230       0.01555572
O        1.82642027       4.19526473       6.24070960       1.00000000      -0.00062339       0.00335413       0.00390697
O        1.39852201       5.38626352       5.98441523       1.00000000      -0.00342972       0.00193619      -0.01608269
