51
Lattice="12.336457 0.0 0.0 -6.168228499999997 10.683685154694365 0.0 0.0 0.0 15.0" Properties=species:S:1:pos:R:3:initial_magmoms:R:1:forces:R:3 energy=-438.81140540316517 free_energy=-438.81140540316517 stress="-0.0016483882838150634 0.0013559583060058582 1.051096568739121e-05 0.0013559583060058582 -0.002098853371663045 1.0568799290673993e-05 1.051096568739121e-05 1.0568799290673993e-05 -6.836345290863767e-06" pbc="T T T"
C        0.00150250      -0.04038598       3.77883884       0.00000000      -0.00014344       0.00968477       0.00089743
C       -1.23521866       2.08994792       3.49759747       0.00000000       0.00093650       0.00176656      -0.00808311
C       -2.50214621       4.23569053       3.53527088       0.00000000      -0.00368338      -0.00459743       0.00455852
C       -3.72290075       6.36738114       3.76515871       0.00000000      -0.00192430      -0.00225759       0.00706981
C       -4.94817056       8.49789054       3.92148670       0.00000000       0.00618184      -0.00334997       0.00139744
C        2.46970425      -0.03764954       3.82797776       0.00000000      -0.01498916      -0.00279798      -0.00187527
C        1.25837205       2.01456535       3.34347727       0.00000000       0.00566110      -0.00631094      -0.00702962
C       -0.15738714       4.25333528       2.94685524       0.00000000       0.01179869       0.00123188      -0.00286154
C       -1.28204628       6.39066420       3.37496967       0.00000000      -0.00441234      -0.00096385       0.00300479
C       -2.46796195       8.50117209       3.75237009       0.00000000       0.00163518       0.00363307       0.00008704
C        4.93285616      -0.03811767       3.85339891       0.00000000      -0.00145098      -0.00056698      -0.01691617
C        3.72003306       2.13157843       3.86018179       0.00000000      -0.00089982      -0.00179958       0.00479671
S        1.40125154       6.39278356       2.64178492       0.00000000      -0.00537754       0.00535749      -0.00837885
C       -0.00036332       8.51042847       3.62402271       0.00000000       0.00249659      -0.00345054       0.00575059
C        7.40224261      -0.03703021       3.85005275       0.00000000       0.00317815       0.00430938      -0.00447338
C        6.17526399       2.09009211       3.90051740       0.00000000       0.00134806       0.00340621      -0.00219483
C        4.93374329       4.19313342       4.06917460       0.00000000       0.01023258      -0.00091980       0.01295805
B        3.76923861       6.43042854       4.72144779       0.00000000      -0.01082454      -0.00867951       0.00576161
C        2.47556926       8.52078432       3.87158449       0.00000000      -0.00701368       0.00350318      -0.00753907
C        9.87694350      -0.02647532       3.83913286       0.00000000       0.00546161      -0.00401676       0.00074203
C        8.63823532       2.09888718       3.75939296       0.00000000      -0.00050200       0.00068882       0.00124466
C        7.39493136       4.22687581       3.85827618       0.00000000      -0.00242932       0.00772982       0.00475422
C        6.15295810       6.34411860       4.06917949       0.00000000       0.00310694       0.00231230       0.00248116
C        4.91717868       8.51162429       4.03669840       0.00000000       0.00162698      -0.00043899      -0.00302803
C        0.00279377       1.37582820       3.53436229       0.00000000       0.00198213       0.00652859       0.00141061
C       -1.28764128       3.50506767       3.32335904       0.00000000       0.00590091       0.00245182      -0.00438116
C       -2.50347169       5.66124167       3.55512847       0.00000000      -0.00586038      -0.00433227       0.00568231
C       -3.71220468       7.79050979       3.81912731       0.00000000       0.00670337      -0.00331171       0.00231150
C       -4.93703295       9.92966154       3.85127219       0.00000000      -0.00958023      -0.00207383       0.00455697
C        2.47696645       1.38932745       3.70639107       0.00000000      -0.00331738      -0.00468781       0.00364922
S        1.32327081       3.48285493       2.41410558       0.00000000       0.00981820      -0.01238625       0.00525550
C       -0.14176609       5.64994161       2.99998298       0.00000000      -0.00197701       0.00435230      -0.00742541
C       -1.24304488       7.80186609       3.56588913       0.00000000       0.00095416       0.00166798      -0.00295554
C       -2.46582173       9.92886549       3.83750926       0.00000000      -0.00955998       0.00408827       0.00382788
C        4.94021995       1.38870712       3.89325617       0.00000000       0.00007805       0.00080262       0.00869368
N        3.75828334       3.48367109       4.01813678       0.00000000       0.00944732      -0.00040772      -0.00622435
C        1.25346793       7.86694902       3.51221449       0.00000000      -0.00398497      -0.00661970       0.00643409
C        0.00008856       9.93369206       3.80987212       0.00000000       0.00454854       0.00036325      -0.01124867
C        7.40848030       1.38518703       3.85203498       0.00000000      -0.00064619       0.00411049      -0.00887275
C        6.17875055       3.50018616       3.94202543       0.00000000       0.00699933       0.00205373       0.01051227
C        4.95990756       5.60471661       4.22705730       0.00000000       0.00184073       0.00179860      -0.00713018
C        3.68381259       7.83920635       4.11448345       0.00000000      -0.00585057       0.00040262      -0.00723946
C        2.47085684       9.94997339       3.87410038       0.00000000       0.00079604       0.00182664      -0.00233235
C        9.88056143       1.39450530       3.70502468       0.00000000       0.00139334      -0.00276321      -0.00015178
C        8.62442570       3.51811080       3.72030931       0.00000000      -0.00615121       0.00209465       0.01431988
C        7.39401198       5.64648556       3.89457440       0.00000000      -0.00340827       0.00473848      -0.00330735
C        6.15676303       7.78615776       4.04442897       0.00000000       0.00493578      -0.00061434      -0.01295257
C        4.93454411       9.94371936       3.88062223       0.00000000       0.00678396       0.00349168       0.00938468
Cu       2.25339852       4.67818121       4.14376065       0.00000000      -0.01328061       0.00586779       0.00621086
O        2.05736157       5.56483133       5.82416217       1.00000000      -0.00115143      -0.00338545      -0.01347945
O        3.25179429       6.25974884       6.08594834       1.00000000       0.00257263      -0.00953082       0.01232738
