51
Lattice="12.336457 0.0 0.0 -6.168228499999997 10.683685154694365 0.0 0.0 0.0 15.0" Properties=species:S:1:pos:R:3:forces:R:3 energy=-449.47971749409083 free_energy=-449.47971749409083 stress="-0.005100249093773151 -0.0025391340725524486 -1.2930876260661877e-05 -0.0025391340725524486 -0.002168943134421085 -7.652176448447015e-06 -1.2930876260661877e-05 -7.652176448447015e-06 -1.4249946131458027e-05" pbc="T T T"
C       -0.01603099      -0.01147826       3.58730773       0.00096871      -0.00528359       0.00515057
C       -1.27505410       2.10460600       3.58966685       0.00806234      -0.00619253       0.00294321
C       -2.51431866       4.25121898       3.58976583      -0.00164757       0.00972110       0.00188257
C       -3.71739621       6.39966782       3.58759779      -0.00448086       0.00249280       0.00340800
C       -4.93419334       8.54554324       3.58746494      -0.00909892      -0.00613423      -0.00213874
C        2.45753861      -0.00015454       3.66678733       0.00237368      -0.00219591       0.00580003
C        1.19989263       2.11821420       3.74632922      -0.00091965       0.00196955       0.00087509
C       -0.08035303       4.22534039       3.81141799      -0.01628372      -0.00890916       0.00601596
C       -1.26505513       6.38770097       3.74613932       0.00102656      -0.00125742       0.00285816
C       -2.47077618       8.53607654       3.66644449      -0.00049341       0.00319553       0.00842980
C        4.92086300      -0.00960110       3.71540964       0.00093166       0.00035587      -0.00598809
C        3.68087848       2.14156530       3.81124283      -0.00080569      -0.00908698      -0.00414324
B        2.39908542       4.27544811       4.19749973       0.00481324       0.00261116       0.00541301
B        1.20268125       6.34760507       4.19720935       0.00574072       0.00225052       0.00807283
C       -0.00430195       8.52463259       3.81161974      -0.00895843       0.00390199      -0.00717233
C        7.38318334      -0.01931323       3.68575035       0.00379591      -0.00816759      -0.00284629
C        6.14365412       2.12770045       3.68618744      -0.00511260       0.00666536      -0.00646523
C        4.91977784       4.28548823       3.82681166      -0.00592585       0.00944812       0.00274623
N        3.79704599       6.46392474       4.02978301       0.01480344       0.00903254      -0.00184349
C        2.47191957       8.52549929       3.82682926       0.00316516      -0.00906632       0.00265117
C        9.84803705      -0.02324441       3.60783844       0.00259417       0.00052391      -0.00796946
C        8.60161516       2.11551935       3.57795687       0.01041770       0.00557501       0.00873625
C        7.37270731       4.26436166       3.60748783       0.00072302       0.00097292      -0.00482392
C        6.16403410       6.41710200       3.64830660       0.00027461      -0.00399891      -0.00567509
C        4.93996949       8.53732296       3.64829736      -0.00412492       0.00208896      -0.00545135
C       -0.03235989       1.40333381       3.62224840       0.00579931      -0.00605646       0.00081254
C       -1.29759960       3.52261095       3.63499324      -0.01281079      -0.00733472      -0.00904897
C       -2.50029450       5.67807151       3.62202316      -0.00266449       0.00778130       0.00262966
C       -3.70408618       7.82677790       3.60491471      -0.00298987       0.00193436      -0.00193960
C       -4.94165327       9.97021765       3.60461748       0.00051251      -0.00484863       0.00030590
C        2.44899062       1.42434048       3.75171308      -0.00250596      -0.00308167      -0.00584400
C        1.14309314       3.52347859       3.89433915      -0.00704710       0.00330096       0.00454144
C       -0.07663124       5.63576476       3.89495665       0.00033954      -0.00668070      -0.00015887
C       -1.24136250       7.81639849       3.75148186      -0.00430185      -0.00029803      -0.00465887
C       -2.47786675       9.96364588       3.68472991       0.00478143       0.00282144      -0.00913086
C        4.91508717       1.41750289       3.73363123      -0.00156464      -0.00331533      -0.00539441
C        3.70712121       3.57066370       3.93302417       0.00341184      -0.00810407       0.00044927
C        1.24651980       7.83276564       3.93301396      -0.00701539       0.00720820       0.00076609
C       -0.01433586       9.95552087       3.73382631      -0.00360560       0.00006619      -0.00678499
C        7.37390436       1.40667517       3.63600659       0.00315568       0.00122467      -0.00125079
C        6.14187373       3.56013406       3.69140525      -0.00684072       0.01119023       0.00280129
C        4.92855437       5.73123464       3.82742228       0.00613325       0.00742543       0.01058405
C        3.72836274       7.81022372       3.82752476       0.00746215       0.00199888       0.00995563
C        2.45457380       9.94654594       3.69133612       0.00709790      -0.01063024       0.00304562
C        9.83319890       1.39688325       3.56879130       0.01081064       0.00118432       0.00056918
C        8.59513703       3.54144426       3.56889110       0.00589674       0.00808234      -0.00081234
C        7.38285089       5.69047921       3.59708770      -0.00044976      -0.00370935      -0.00109057
C        6.17130107       7.83477119       3.61186513      -0.01086845      -0.00617390      -0.00272374
C        4.91994397       9.95617899       3.59706715      -0.00235104       0.00148969      -0.00078516
Cu       2.66850662       5.81260094       5.41829996       0.00295826       0.00117507      -0.00664800
O        3.31819960       6.18756809       6.94505275       0.00481715       0.00283733       0.00934484
