49
Lattice="12.336457 0.0 0.0 -6.168228499999997 10.683685154694365 0.0 0.0 0.0 15.0" Properties=species:S:1:pos:R:3:forces:R:3 energy=-424.06701305849305 free_energy=-424.06701305849305 stress="-0.005117293873710249 -0.0020053223676923717 -5.0127508100473845e-06 -0.0020053223676923717 -0.0015749501587268352 4.3971722667344775e-06 -5.0127508100473845e-06 4.3971722667344775e-06 -8.735085174819047e-07" pbc="T T T"
C        0.00630039      -0.00204457       3.87101765      -0.00000481      -0.00408266      -0.00365081
C       -1.25640542       2.11263320       3.67319326      -0.00355207       0.00711570      -0.00226914
C       -2.49688394       4.26424342       3.92453042      -0.00799210      -0.00145428       0.00444918
C       -3.69474899       6.41280889       4.14314871      -0.00195960       0.00349939       0.00591206
C       -4.91962559       8.55875830       4.10927907       0.00364091       0.00697840      -0.01279700
C        2.47501526      -0.00230244       3.78907950       0.00507689      -0.00282044      -0.00054134
C        1.20162961       2.02440190       3.20815017       0.00970490       0.00284833      -0.00156453
C       -0.20731591       4.27474510       3.17089365       0.01010851      -0.00433970       0.00963124
C       -1.27438169       6.40846443       3.80352428      -0.00154200      -0.00136701       0.00701361
C       -2.45537195       8.54858732       4.00600029      -0.00151806       0.00178354      -0.00156944
C        4.94007819      -0.00475270       3.84612652      -0.00791728      -0.00284420       0.00371397
C        3.72753982       2.05368398       3.28625543       0.00222727       0.00401388      -0.00751225
B        1.13119533       6.42223299       3.42721303       0.00005541       0.01178788       0.00084846
C        0.00852410       8.53848689       3.85585924       0.00364601       0.00305777       0.00530918
C        7.40974435      -0.01460502       3.92880387      -0.00158469      -0.00061378      -0.00350720
C        6.16493758       2.14284642       3.81010148       0.00377613      -0.00240337      -0.00261827
C        5.04756348       4.36583795       3.58248285       0.00816458      -0.00610130       0.00006992
O        3.82775521       6.47084619       3.72749761       0.00463956       0.00308902      -0.00840536
C        2.51262681       8.51868593       3.86166815      -0.00756646      -0.00721057      -0.00192469
C        9.87490489      -0.01526709       3.94349916      -0.00222896      -0.00331818      -0.00257802
C        8.62942206       2.12781183       3.97509591       0.00087108       0.00220733       0.00126733
C        7.40163528       4.27707911       4.10255268       0.00659417       0.00460759      -0.01157743
C        6.19682391       6.43433752       4.14015335      -0.00116274      -0.00337659       0.01059001
C        4.95766215       8.54675516       4.03565544      -0.00285592      -0.00942536       0.00853187
C       -0.01161084       1.40549364       3.59533425      -0.00003866       0.00206892       0.00104569
C       -1.30666076       3.53111963       3.60162477      -0.00719246       0.00677762      -0.00005681
C       -2.48612479       5.69085902       3.98681653      -0.00727727      -0.00232732       0.00755241
C       -3.68496502       7.84101290       4.11287684       0.00037261       0.00620099      -0.00589230
C       -4.92228679       9.98154074       3.94238190       0.00572488       0.00286502      -0.00279702
C        2.46875902       1.39100690       3.40886646       0.00668036       0.00158863      -0.00525393
S        1.02810181       3.47093563       2.25474659      -0.01238758      -0.00013743      -0.00156142
C       -0.12423188       5.66559351       3.42213178       0.00843537      -0.00076236       0.00592716
C       -1.22736943       7.82897137       3.90221264       0.00130368       0.00363268       0.00178729
C       -2.45964151       9.97318471       3.90103880      -0.00416497      -0.00612324      -0.00080613
C        4.93920269       1.42092505       3.66752714      -0.00307343      -0.00170614       0.00594161
S        3.90661398       3.58976463       2.49081727      -0.00910511      -0.00505111      -0.00028164
C        1.25642917       7.84404130       3.74976109      -0.00136404      -0.00066104      -0.00443215
C        0.00587121       9.96571492       3.90711252      -0.00346683       0.00205350       0.00099042
C        7.39041665       1.42029730       3.93885221       0.00363431       0.00101122      -0.00689930
C        6.17987074       3.57472494       3.87877535       0.01027254       0.00052760      -0.00040671
C        5.02568664       5.74460010       3.84714994       0.00282797      -0.00387251      -0.00382301
C        3.75775112       7.84872695       3.89445842      -0.00659290      -0.00269224       0.00100058
C        2.48517247       9.94959741       3.93995202      -0.00493531      -0.00723939      -0.00088856
C        9.86815290       1.41520628       3.89380490      -0.00010146       0.00297427      -0.00440672
C        8.62538990       3.54976150       4.04824451      -0.00334955      -0.00164440      -0.00151587
C        7.41466839       5.69707840       4.17658104       0.00084842       0.00113242       0.00207436
C        6.19435774       7.85411105       4.13448387       0.00339402      -0.00197831       0.00662932
C        4.94112489       9.97066156       3.97232718      -0.00039181      -0.00898711       0.00784048
Cu       2.40409006       5.08934497       3.06505981       0.00132648       0.01071834       0.00141088
