51
Lattice="12.336457 0.0 0.0 -6.168228499999997 10.683685154694365 0.0 0.0 0.0 15.0" Properties=species:S:1:pos:R:3:initial_magmoms:R:1:forces:R:3 energy=-434.63540316196554 free_energy=-434.63540316196554 stress="-0.0009593228020770613 -0.004000972722594563 3.5372834620380583e-07 -0.004000972722594563 -0.004864405071062744 1.3963126676478287e-05 3.5372834620380583e-07 1.3963126676478287e-05 -1.3629964154652563e-05" pbc="T T T"
C        0.03129535       0.01735471       3.86653947       0.00000000       0.00087885      -0.00064978       0.00147514
C       -1.22937390       2.14105729       3.83935863       0.00000000      -0.00843895      -0.00629263      -0.00312821
C       -2.45608935       4.28965927       3.79974246       0.00000000       0.00292089       0.00083775      -0.00867999
C       -3.66274311       6.42544785       3.80096033       0.00000000       0.00007159      -0.00050503      -0.00006067
C       -4.89712328       8.55932826       3.87811310       0.00000000       0.00436954      -0.00082947      -0.00686069
C        2.48894932       0.02276663       3.73325716       0.00000000       0.00247523      -0.00652733       0.00090544
C        1.21013213       2.13317466       3.68564963       0.00000000      -0.00049973       0.00443225       0.00521181
C       -0.02715021       4.20705131       3.76293034       0.00000000       0.00079069      -0.00699884      -0.00162444
C       -1.16466238       6.38813230       3.72262552       0.00000000       0.00065471      -0.00207489      -0.00092204
C       -2.41398097       8.54383295       3.74769756       0.00000000       0.00236156       0.00034581       0.00348294
C        4.95418254       0.01379982       3.62800326       0.00000000      -0.00191444       0.00442572      -0.00780690
C        3.69401826       2.10232869       3.30067149       0.00000000      -0.00581464      -0.00908155      -0.01153151
S        1.61984833       6.23314590       3.38744842       0.00000000       0.01666082       0.00552046       0.00854650
C        0.05201269       8.54772151       3.67330576       0.00000000      -0.00133511       0.00294416       0.00728060
C        7.40899289       0.04432508       3.71901930       0.00000000      -0.00811612       0.00216913      -0.00430053
C        6.16713525       2.17440293       3.49386051       0.00000000       0.00330929      -0.00123482      -0.00409962
C        5.01665244       4.35929073       3.32080065       0.00000000      -0.00075212       0.00203606       0.00409350
B        3.65807250       6.43003422       4.10965637       0.00000000      -0.00494518      -0.00144502       0.01836911
C        2.50953630       8.63048964       3.86019885       0.00000000       0.00394875       0.01001346      -0.00138010
C        9.89372040       0.04373594       3.87447256       0.00000000      -0.00625798       0.00065360      -0.00125696
C        8.63642501       2.16754098       3.74543197       0.00000000      -0.00141357       0.00414849       0.00270476
C        7.42393407       4.30385886       3.67423398       0.00000000      -0.00091689      -0.00363506       0.00438942
C        6.19257860       6.43123930       3.82050458       0.00000000       0.00487477       0.00242082       0.00057823
C        4.96535403       8.58263185       3.96533024       0.00000000      -0.00266448      -0.00223705       0.00860901
C        0.01635074       1.44266287       3.81021600       0.00000000      -0.00188290       0.00233632      -0.00246608
C       -1.23925987       3.54851874       3.82233198       0.00000000       0.00052452      -0.00761385       0.00093580
C       -2.42590345       5.70366841       3.77936970       0.00000000      -0.00024853       0.00148161       0.00290230
C       -3.65790356       7.84610185       3.81579531       0.00000000       0.00333011      -0.00115790       0.00254825
C       -4.90281421       9.98924354       3.84611127       0.00000000       0.00368514      -0.00280959       0.00832796
C        2.46075730       1.45186388       3.59058154       0.00000000      -0.00614706      -0.00689019      -0.00442921
O        1.16864687       3.50405061       3.79263838       0.00000000       0.01185402       0.00406721      -0.00897132
C        0.01861231       5.59740010       3.68662397       0.00000000      -0.00034568      -0.00665439      -0.00593575
C       -1.17497291       7.82161207       3.69941790       0.00000000      -0.00006917      -0.00122896       0.00187559
C       -2.43802158       9.98141816       3.70390128       0.00000000       0.00387333      -0.00010215       0.00166857
C        4.93565169       1.44860279       3.47348063       0.00000000       0.00010757       0.00236362      -0.00583428
S        3.65252057       3.65637510       2.55011834       0.00000000      -0.00402484      -0.00124365       0.00146709
C        1.31226494       7.91372999       3.67866150       0.00000000       0.00564969       0.01228714       0.00225033
C        0.02610453       9.99285554       3.67560662       0.00000000      -0.00742374       0.00253911       0.00466355
C        7.39525835       1.46873486       3.65651747       0.00000000       0.00085807       0.00118906       0.00057008
C        6.19489323       3.59292566       3.48004336       0.00000000      -0.00017119      -0.00254947      -0.00289768
C        4.96351407       5.71207452       3.69699809       0.00000000       0.00228811       0.00319206       0.00697625
C        3.72077975       7.92902660       3.97909581       0.00000000      -0.00177435      -0.00280274      -0.00124118
C        2.48415575      10.04820504       3.83614164       0.00000000      -0.00640901       0.00778222      -0.00111127
C        9.87985294       1.45767840       3.83133702       0.00000000      -0.00830690      -0.00181106      -0.00502608
C        8.64491474       3.58461678       3.74691685       0.00000000       0.00230486       0.00286243      -0.00010955
C        7.43524900       5.72132641       3.76912164       0.00000000       0.00180350      -0.00250940      -0.00574131
C        6.20546111       7.85556512       3.92890943       0.00000000       0.00307963       0.00412418      -0.01411536
C        4.96280881      10.01241407       3.91984848       0.00000000      -0.00343139       0.00014616       0.00445893
Cu       2.63553363       5.56820766       5.56369027       0.00000000      -0.00155558       0.00178213      -0.00906707
O        2.01845853       5.13039425       7.21219337       1.00000000      -0.00372808      -0.01708358      -0.00124554
O        1.53959349       4.19643717       6.39846033       1.00000000       0.00591238       0.00986744       0.01555219
