49
Lattice="12.336457 0.0 0.0 -6.168228499999997 10.683685154694365 0.0 0.0 0.0 15.0" Properties=species:S:1:pos:R:3:forces:R:3 energy=-426.8624716981512 free_energy=-426.8624716981512 stress="-0.004688956976012828 -0.00140642779776078 -6.332618963498554e-06 -0.00140642779776078 -0.004160501399717866 -1.2480631992627564e-06 -6.332618963498554e-06 -1.2480631992627564e-06 1.5495224246239594e-06" pbc="T T T"
C       -0.00230223       0.00764983       3.99433634       0.01114496       0.00501709      -0.00181594
C       -1.25297191       2.12546250       3.98851191      -0.00844074      -0.00324994       0.00533738
C       -2.48041436       4.27079115       3.88835458       0.01174008      -0.00161662      -0.00988090
C       -3.69070527       6.41466663       3.85176116      -0.00110005      -0.00023206      -0.00568037
C       -4.92979833       8.55298949       3.93854220      -0.00535031      -0.00964820      -0.00311561
C        2.46085091       0.01225135       3.85282769      -0.00151160      -0.00465649       0.00607727
C        1.20619273       2.17584923       3.87902788       0.00021504       0.00663116      -0.00320094
C       -0.03403832       4.22219985       3.81688117       0.00919657      -0.00067413      -0.00147807
C       -1.22632461       6.39485089       3.70105738      -0.00046027       0.00397865       0.01068856
C       -2.45553697       8.54235005       3.80257796      -0.00969040       0.00223588      -0.00625206
C        4.92404442       0.00623506       3.72173031      -0.00448398      -0.01428836      -0.01008690
C        3.66896191       2.07567669       3.38363903       0.00185949      -0.00505042       0.01017295
S        1.35838688       6.32708515       2.83206256      -0.01035633      -0.00708872       0.00112148
C       -0.00199754       8.54739251       3.65664917       0.00383715       0.00816236       0.00158118
C        7.38468918       0.01436313       3.81623842      -0.00013425       0.00064985      -0.00217034
C        6.16034363       2.14072050       3.55806318       0.00041459      -0.00973079      -0.00491941
C        5.04388646       4.31279275       3.22910742      -0.01744404      -0.00174953      -0.00045774
B        3.72263138       6.39373943       3.90138398       0.00198012       0.00073682       0.01056814
C        2.45496848       8.57708677       3.82759977       0.00419236       0.00442377      -0.00710585
C        9.85946001       0.00727450       3.99186554      -0.00687287       0.00144489      -0.00224546
C        8.61828418       2.13954587       3.86414452      -0.00429465       0.00424677      -0.00053033
C        7.41659538       4.27985458       3.70530783       0.00365379       0.00028164       0.01321058
C        6.19352469       6.42307168       3.78335158      -0.00074188       0.00179336      -0.00618494
C        4.93592308       8.55198960       3.97991616      -0.00434167       0.00357777       0.00022915
C       -0.01237450       1.43289906       3.97361743       0.00029942       0.00790782      -0.00797910
C       -1.26794229       3.53607137       3.92961830       0.00943102      -0.00483683      -0.00557883
C       -2.46743981       5.69193294       3.83279043      -0.00061903      -0.00165730       0.00290932
C       -3.69445244       7.83901561       3.87292989      -0.00575182      -0.00278127      -0.00545206
C       -4.93539660       9.97884423       3.95226826       0.00684147      -0.00907130       0.01166322
C        2.45242178       1.44251727       3.73010143      -0.00337696      -0.00472706       0.00222536
N        1.15145795       3.53709613       3.93667143       0.00848015       0.00549680       0.01029008
C       -0.05808284       5.61858861       3.55468119       0.01066615       0.00482532      -0.00196822
C       -1.22650209       7.82623560       3.68703108      -0.00168966       0.00760229       0.01318166
C       -2.47138790       9.97705946       3.79462172      -0.00687667      -0.00343483       0.00743404
C        4.92180129       1.43092277       3.55658128      -0.00151468      -0.01868825       0.00144619
S        3.65796454       3.57447480       2.50086691       0.00721318       0.01004313      -0.00587352
C        1.25027318       7.90500406       3.53547241       0.00467971       0.00396824      -0.00771061
C       -0.00832771       9.98064885       3.74776135       0.00050007       0.00217126       0.00162497
C        7.37991876       1.43868433       3.76085680       0.00210267      -0.00245630       0.00051063
C        6.20043784       3.55715226       3.47144119      -0.00377310      -0.00233367       0.00728848
C        4.99152078       5.68308392       3.57526657      -0.00063626       0.00969243      -0.00654018
C        3.68328681       7.86756509       3.92299563      -0.00077720      -0.00100654      -0.00311890
C        2.44939316       9.99956846       3.91425909      -0.00396206       0.00069810       0.00042053
C        9.85001435       1.42456654       3.97247862      -0.01324929       0.00069310       0.00378476
C        8.62683834       3.55934529       3.83749814       0.00812902       0.00345798       0.00383452
C        7.42111601       5.70393420       3.78746599      -0.00012906       0.00091378       0.00014383
C        6.17195522       7.83860065       3.93157443      -0.00719154      -0.00312910      -0.00346276
C        4.93157547       9.98131527       4.01431706       0.00318847       0.00771519      -0.00120363
Cu       2.54467022       4.83753316       4.19661518       0.01500489       0.00374225      -0.01173159
