51
Lattice="12.336457 0.0 0.0 -6.168228499999997 10.683685154694365 0.0 0.0 0.0 15.0" Properties=species:S:1:pos:R:3:initial_magmoms:R:1:forces:R:3 energy=-439.2404463904073 free_energy=-439.2404463904073 stress="-0.0032515215224801627 0.002525831611848825 -1.249136051547984e-05 0.002525831611848825 -0.006062775924561039 -4.266820177191334e-06 -1.249136051547984e-05 -4.266820177191334e-06 1.877112583425385e-05" pbc="T T T"
C       -0.01564497       0.01394748       3.53935764       0.00000000       0.00806171       0.00164830       0.00110314
C       -1.23647797       2.16791824       3.41094255       0.00000000       0.00276978       0.00000184      -0.00025692
C       -2.48994005       4.30089764       3.56745191       0.00000000      -0.00073218      -0.00113930       0.00751020
C       -3.73552176       6.42312228       3.70705767       0.00000000      -0.00232757      -0.00748646       0.00159566
C       -4.96689316       8.54975474       3.70200435       0.00000000      -0.00020480      -0.00244467      -0.00060988
C        2.45192461      -0.02330237       3.59814852       0.00000000      -0.00143042       0.00615932       0.00202628
C        1.25809198       2.09457690       3.31561948       0.00000000      -0.00184140       0.00403702       0.00410095
C       -0.04428636       4.34766480       3.59249433       0.00000000      -0.00659636       0.00181094       0.00291099
C       -1.28597121       6.43349471       3.95774860       0.00000000      -0.00388989       0.00440725      -0.00322714
C       -2.49088029       8.55465664       3.81834082       0.00000000       0.00215679       0.00502320      -0.00557460
C        4.92159106       0.00884650       3.68793731       0.00000000      -0.00570911      -0.00283402      -0.00254785
C        3.69568538       2.12545838       3.54525797       0.00000000      -0.00111112      -0.00523483       0.00662795
P        1.33478616       6.35083583       4.87458259       0.00000000       0.00930066       0.01521284      -0.00790877
C       -0.03061461       8.59400065       4.01940274       0.00000000       0.00760773      -0.00598941      -0.00203807
C        7.38606463       0.03746539       3.69528984       0.00000000      -0.00639969      -0.00291173       0.00065324
C        6.15938618       2.14802149       3.54245301       0.00000000       0.00060935      -0.00090719       0.00122271
C        4.89852857       4.26262201       3.61583668       0.00000000       0.00189588       0.00354651       0.00042051
B        3.64305373       6.40342302       4.19931284       0.00000000       0.00059571      -0.00068786      -0.00204306
C        2.45306933       8.64110852       4.01907568       0.00000000       0.00075289       0.00158626       0.00243700
C        9.86138719       0.04177500       3.61408019       0.00000000       0.00253218      -0.00056939      -0.00234963
C        8.62609851       2.16318372       3.49782314       0.00000000       0.00599167       0.00759436       0.00194868
C        7.37779936       4.29027474       3.54681169       0.00000000      -0.00388581      -0.00329381       0.00136896
C        6.13250696       6.41643503       3.73474456       0.00000000       0.00038626       0.00094431       0.00548292
C        4.91098097       8.57479803       3.80922998       0.00000000      -0.00911909      -0.00038050       0.00811766
C       -0.00218899       1.44261602       3.39921055       0.00000000       0.00201010       0.00090810      -0.00011723
C       -1.24764035       3.59410070       3.48141437       0.00000000      -0.00270689      -0.00139616       0.00124961
C       -2.50344915       5.71749092       3.73254933       0.00000000      -0.00063167       0.00048336      -0.00520237
C       -3.73116315       7.84412902       3.75106933       0.00000000       0.00241028      -0.00614047      -0.00520713
C       -4.96059834       9.96917818       3.61366477       0.00000000       0.00562970      -0.00084504       0.00130152
C        2.46492677       1.38595663       3.48369220       0.00000000      -0.00480366       0.00252190       0.00028872
P        1.53454827       3.79671837       2.97210850       0.00000000       0.00188751      -0.01135758      -0.00767189
C       -0.09178141       5.67999973       4.05699626       0.00000000      -0.00575427       0.00352116       0.00347273
C       -1.26589129       7.85831024       3.97676294       0.00000000       0.00361537       0.00383630      -0.00147844
C       -2.48180952       9.96954753       3.71310140       0.00000000      -0.00460179       0.00629499      -0.00276645
C        4.93223425       1.42697438       3.58521732       0.00000000      -0.00110238      -0.00211379       0.00138359
C        3.67621812       3.53014882       3.64827187       0.00000000       0.01012042      -0.01006377       0.00035069
C        1.21943402       7.97084563       4.23948853       0.00000000       0.00931179      -0.00063888       0.00295914
C       -0.01683917      10.00298921       3.79438878       0.00000000      -0.00661738      -0.00558201       0.00193681
C        7.39451598       1.44917706       3.55861958       0.00000000       0.00335328       0.00121915      -0.00313712
C        6.14895683       3.56734961       3.52192812       0.00000000      -0.00139565      -0.00285578      -0.00455396
C        4.91623562       5.67744389       3.80760823       0.00000000       0.00203394       0.00466649       0.00444161
C        3.67236516       7.90178945       4.02443058       0.00000000      -0.00685109      -0.00327054       0.00101175
C        2.45652845      10.03520807       3.76044634       0.00000000      -0.00148074       0.00054436      -0.00067378
C        9.86701341       1.45917798       3.48623956       0.00000000       0.00556691       0.00210527      -0.00603604
C        8.61787512       3.58660958       3.51201456       0.00000000       0.00112694       0.00629199       0.00312252
C        7.37121816       5.71023900       3.63993839       0.00000000      -0.00398974      -0.00361548      -0.00111627
C        6.13456869       7.84441378       3.75649670       0.00000000      -0.00791525       0.00316519      -0.00232584
C        4.92046200      10.00033351       3.64915874       0.00000000       0.00378993       0.00217128       0.00239870
Cu       2.73681634       4.68070998       4.86970153       0.00000000      -0.01037800      -0.00333480       0.01019037
O        2.57678276       4.73535837       7.46638188       1.00000000       0.00560183       0.00267367      -0.00064306
O        2.90322893       3.86566246       6.58842003       1.00000000       0.00235737      -0.00728189      -0.01414912
