53
Lattice="12.336457 0.0 0.0 -6.168228499999997 10.683685154694365 0.0 0.0 0.0 15.0" Properties=species:S:1:pos:R:3:forces:R:3 energy=-459.4520490744506 free_energy=-459.4520490744506 stress="-0.004571883759259942 -0.0024231014257604295 1.78125340601784e-05 -0.0024231014257604295 -0.0017835283711628582 2.9947915196877602e-05 1.78125340601784e-05 2.9947915196877602e-05 1.882098872014742e-05" pbc="T T T"
C       -0.00423589      -0.01257962       3.61462371       0.00737765       0.00692940      -0.00619979
C       -1.26098388       2.10539190       3.63091225      -0.00161160      -0.00555369      -0.00493307
C       -2.50077333       4.25179460       3.62862376       0.00795191      -0.01188912      -0.00209694
C       -3.70633861       6.39847008       3.61101121       0.00058885       0.00994470       0.00598612
C       -4.92373633       8.54383137       3.60164079      -0.00339135      -0.00222431       0.00613005
C        2.46929969      -0.00172742       3.68302077      -0.00578845      -0.00081273       0.01068332
C        1.21269170       2.11626869       3.79658874      -0.01369742       0.00489285      -0.00437360
C       -0.06588704       4.22597255       3.87947752       0.00427082      -0.00228547      -0.00084539
C       -1.25419488       6.38792815       3.78567175       0.00047445      -0.00512866       0.00388511
C       -2.46036176       8.53537592       3.68072061       0.00569076      -0.00529342       0.00053744
C        4.93338957      -0.01038986       3.71919603      -0.00845435       0.00566243       0.00045397
C        3.69331729       2.13727767       3.84278499       0.00829979      -0.00310516      -0.01054436
B        2.41566002       4.26347454       4.28643523       0.00050592       0.01124978       0.00618914
B        1.20594689       6.35706315       4.27035898       0.00788234      -0.00362301       0.01389515
C        0.00431821       8.52563653       3.83284400       0.00625711       0.01057659       0.00013150
C        7.39580807      -0.02065891       3.69172183      -0.00818250       0.00540376      -0.00220205
C        6.15509399       2.12766255       3.69371425       0.00808750      -0.00925959       0.00899654
C        4.93083900       4.28311463       3.87052378      -0.00449699       0.01033122      -0.00056498
N        3.82287186       6.47206605       4.12303830       0.00133957      -0.00138339      -0.00650447
C        2.48227371       8.52460573       3.86128169       0.00321830      -0.00373712      -0.00154905
C        9.86038455      -0.02430605       3.62597854      -0.00112412       0.00068158       0.00082409
C        8.61522476       2.11572057       3.59567407      -0.00298039      -0.00300204       0.00581105
C        7.38444297       4.26384392       3.63098932      -0.01265552      -0.00247170      -0.00775746
C        6.17531735       6.41588781       3.67620570       0.00629470       0.00666275      -0.00401556
C        4.95171570       8.53643743       3.67230796       0.00179251      -0.00160797      -0.00030306
C       -0.01891433       1.40255735       3.66228371      -0.00936428       0.00106084       0.00539780
C       -1.28308513       3.52387441       3.68560011       0.00938953      -0.01053063      -0.00109354
C       -2.48839503       5.67832431       3.65693113      -0.00133857      -0.00197175      -0.00162355
C       -3.69382919       7.82531889       3.62106115      -0.00320823       0.00803347       0.00058568
C       -4.93048897       9.96835735       3.62313448      -0.00259135      -0.00158601       0.00150374
C        2.46110789       1.42130983       3.78370247      -0.00851210       0.00674039       0.00574283
C        1.15544462       3.51949219       3.96794673      -0.00114511       0.00165977      -0.00558041
C       -0.06765488       5.63703971       3.95663110       0.00266775      -0.00323334       0.00021915
C       -1.23192801       7.81632593       3.77533979       0.00986563      -0.00290687       0.00168900
C       -2.46581018       9.96294460       3.69232987      -0.00336363      -0.00517974       0.00119193
C        4.92713992       1.41645565       3.74324953       0.01118343      -0.00698432       0.00210406
C        3.72097651       3.56260601       3.98899773       0.00500244      -0.00383013      -0.00377131
C        1.25284187       7.83738504       3.97664301       0.00228165       0.00288905      -0.01094015
C       -0.00227069       9.95488835       3.74021617      -0.00840887       0.01469667      -0.00773586
C        7.38636415       1.40628518       3.64039528       0.00108380      -0.00295594       0.01524601
C        6.15308449       3.56002026       3.71250703      -0.01240715      -0.00502701       0.00392017
C        4.94007668       5.73103650       3.87473878       0.00696382       0.01432852      -0.00428198
C        3.74086390       7.80895374       3.86899031       0.00292349      -0.00462014      -0.00487037
C        2.46694263       9.94472436       3.70570918      -0.00567502       0.00129978       0.00939979
C        9.84724470       1.39705168       3.59327486      -0.00222555      -0.00225555       0.00039088
C        8.60848791       3.54192730       3.59448504       0.00027790      -0.00385846      -0.00032805
C        7.39378277       5.68901749       3.62132116       0.00201879       0.00694547      -0.00550403
C        6.18126021       7.83266137       3.63334861       0.00098818       0.00020443      -0.00147415
C        4.93125871       9.95521381       3.61870338       0.00990699       0.00131822      -0.00322713
Cu       2.60640998       5.77876917       5.47223192      -0.00889068       0.00486169      -0.00019604
O        3.39311645       6.35192519       7.05970054      -0.00044462      -0.01543154      -0.00609884
O        2.42265483       5.97344522       8.06318114       0.01088719       0.00177331       0.00800480
H        2.97449997       5.38532508       8.61187215      -0.01551497      -0.00639784      -0.01030413
