51
Lattice="12.336457 0.0 0.0 -6.168228499999997 10.683685154694365 0.0 0.0 0.0 15.0" Properties=species:S:1:pos:R:3:forces:R:3 energy=-451.8977270302642 free_energy=-451.8977270302642 stress="-0.005476132650611436 2.1886034659695788e-07 -5.751532004450905e-07 2.1886034659695788e-07 -0.0015707057188709683 6.315986282939531e-06 -5.751532004450905e-07 6.315986282939531e-06 -2.257719846958082e-07" pbc="T T T"
C       -0.00349645      -0.00153443       3.64376722      -0.00146215      -0.00121398      -0.00131185
C       -1.24487242       2.12635683       3.65397046       0.00322301      -0.00537063      -0.00070494
C       -2.47774828       4.27036493       3.64297597       0.00512285       0.00064719      -0.00538026
C       -3.70183382       6.41179707       3.61772133      -0.00028076       0.00670930       0.00605620
C       -4.92953824       8.55547133       3.63042829      -0.01072453      -0.00398454      -0.00136916
C        2.46635334       0.01204255       3.64999272       0.00061979       0.01261489      -0.00503394
C        1.22454366       2.14141319       3.73624594      -0.00670210       0.00048567       0.00172465
C       -0.03239519       4.26624777       3.81423465       0.00247800       0.00643436      -0.00397408
C       -1.24580628       6.41743740       3.71598096      -0.00720376      -0.00889308       0.00103128
C       -2.47418704       8.55549688       3.63035069       0.01135097      -0.00432549      -0.00270808
C        4.93626370      -0.00156264       3.64406800       0.00146881      -0.00071806      -0.00180813
C        3.70824700       2.14141715       3.73654943       0.00654535       0.00020352       0.00349699
B        2.46632964       4.32402787       4.03081800       0.00042980      -0.00510341      -0.00041446
C        1.17816493       6.42191531       4.08066295       0.00681750       0.00705360       0.01371217
C       -0.00937665       8.53929103       3.72041054       0.00069490       0.00486140      -0.00290270
C        7.40265790      -0.01557232       3.65178225       0.00261037      -0.00766705       0.00412785
C        6.17767988       2.12634093       3.65480999      -0.00349074      -0.00501303      -0.00183037
C        4.96517593       4.26624224       3.81515069      -0.00269131       0.00658350      -0.00481084
C        3.75458645       6.42200158       4.08110810      -0.00695662       0.00621618       0.01327320
C        2.46638360       8.53022825       3.82000776       0.00020210       0.00138467      -0.00252669
C        9.86659597      -0.01560084       3.65155901      -0.00286089      -0.00709996       0.00481690
C        8.63463502       2.12596529       3.61727169      -0.00010086       0.00043930       0.00119292
C        7.41052901       4.27036600       3.64351158      -0.00513308       0.00034949      -0.00532701
C        6.17858923       6.41741655       3.71662189       0.00709611      -0.00875185       0.00115828
C        4.94218946       8.53931399       3.72079806      -0.00134592       0.00450630      -0.00436022
C       -0.00913517       1.41962709       3.66796703      -0.00137207      -0.00532885       0.00179619
C       -1.25407259       3.55294901       3.69041507       0.00753612      -0.00103639      -0.00124321
C       -2.47238227       5.69884613       3.64443787      -0.00898892      -0.00183936       0.00692335
C       -3.70185728       7.83999882       3.61612473       0.00021847       0.00580805       0.01034936
C       -4.93374640       9.97814075       3.63676607      -0.00198682       0.00152820      -0.00844197
C        2.46639146       1.43590112       3.71046821      -0.00001555       0.01443059      -0.00001242
C        1.18191752       3.55799767       3.84349089      -0.00527015      -0.00487449      -0.00107843
C       -0.00814547       5.70476060       3.86226238      -0.00144777       0.00431416      -0.00877848
C       -1.24299189       7.83907723       3.68410291       0.00810319      -0.01031393       0.00246303
C       -2.46999531       9.97815896       3.63665934       0.00297260       0.00123261      -0.00697359
C        4.94193741       1.41959432       3.66869582       0.00115129      -0.00488718       0.00060486
C        3.75085004       3.55799549       3.84413648       0.00542127      -0.00522190      -0.00196302
C        1.22644780       7.80704926       3.85965103      -0.00101850       0.01179737      -0.01127036
C       -0.00036826       9.96038144       3.65967316       0.00021610       0.00360239       0.01079212
C        7.40574885       1.40940100       3.62696272      -0.00065743      -0.00691937      -0.00311012
C        6.18686518       3.55293687       3.69124856      -0.00777701      -0.00074694      -0.00064047
C        4.94089743       5.70477792       3.86286344       0.00171930       0.00414846      -0.00752778
C        3.70633453       7.80708786       3.85974290       0.00096510       0.01119209      -0.00944470
C        2.46638997       9.94689175       3.69117397       0.00011600      -0.00609163       0.01126718
C        9.86351877       1.40938019       3.62670176       0.00037459      -0.00658309      -0.00438147
C        8.63461685       3.55381809       3.61854668       0.00007642       0.00567715      -0.00399763
C        7.40518159       5.69884679       3.64504879       0.00851465      -0.00213720       0.00563640
C        6.17576682       7.83904689       3.68457684      -0.00814598      -0.00996983       0.00191192
C        4.93317235       9.96038323       3.65958385      -0.00086293       0.00352432       0.01084479
Cu       2.46618458       5.79556833       5.33515539       0.00027465       0.00978947       0.00125304
O        2.46470396       5.68929592       7.04710305       0.00017651      -0.01144300      -0.00110629
