51
Lattice="12.336457 0.0 0.0 -6.168228499999997 10.683685154694365 0.0 0.0 0.0 15.0" Properties=species:S:1:pos:R:3:forces:R:3 energy=-454.3277767483596 free_energy=-454.3277767483596 stress="-0.0011383849683146911 3.551738582524562e-07 2.195068023175666e-06 3.551738582524562e-07 0.0001676445208950145 5.551283596278483e-06 2.195068023175666e-06 5.551283596278483e-06 2.3983124642875682e-05" pbc="T T T"
C       -0.00228925       0.02997774       3.59352842       0.00062714      -0.00038949      -0.00580298
C       -1.23691689       2.16669727       3.66099404       0.00048913      -0.00847477       0.00067049
C       -2.46299148       4.29846203       3.64191647       0.00367387      -0.00344844       0.00119046
C       -3.70191188       6.43508372       3.56389537       0.00003955       0.00160435      -0.00088908
C       -4.93485066       8.57743786       3.54272148      -0.00483993       0.00046695       0.00329197
C        2.46629958       0.03860981       3.64232046      -0.00040637       0.00414540      -0.00016290
C        1.21624006       2.15933551       3.88581415      -0.00281046       0.00227621      -0.00802973
C        0.01841776       4.30329458       3.95244897      -0.00612370       0.00120437      -0.00077722
C       -1.23726491       6.44157750       3.67402940      -0.00667334      -0.00411639       0.00200847
C       -2.46905084       8.57736939       3.54292224       0.00501111       0.00076512       0.00417589
C        4.93484519       0.02990283       3.59366377      -0.00072607      -0.00017111      -0.00606457
C        3.71635701       2.15934779       3.88520870       0.00280217       0.00211541      -0.00777119
B        2.46669188       3.96114899       4.92015457      -0.00061028      -0.00974134      -0.01016661
N        1.10643370       6.52475224       4.13248569       0.00250301       0.00233036      -0.00298108
C       -0.00900370       8.57311176       3.61840653       0.00026897       0.00413798       0.00045314
C        7.40314721       0.01830981       3.58547416       0.00315426       0.00148689       0.00641579
C        6.16948922       2.16665515       3.66055025      -0.00030875      -0.00830919      -0.00014698
C        4.91423828       4.30332462       3.95132166       0.00622974       0.00142558       0.00014024
N        3.82628854       6.52473479       4.13198223      -0.00333817       0.00255419      -0.00320044
C        2.46626726       8.54281348       3.75639524       0.00021148       0.00179123       0.01084664
C        9.86579892       0.01836181       3.58563301      -0.00232906       0.00125247       0.00501849
C        8.63450463       2.16120983       3.58828148       0.00009803       0.00997843      -0.00090947
C        7.39562429       4.29846720       3.64132444      -0.00374596      -0.00330750       0.00206333
C        6.16992016       6.44165828       3.67348583       0.00650432      -0.00437345       0.00149123
C        4.94150051       8.57318097       3.61777907       0.00061129       0.00379345       0.00178167
C       -0.01106737       1.44868330       3.68601013      -0.00005004      -0.00456862      -0.00350957
C       -1.22495005       3.59475469       3.73361562       0.00300084      -0.00757628      -0.00485529
C       -2.46683592       5.72304521       3.61545000      -0.00426283      -0.00501252      -0.00195718
C       -3.70195184       7.86115722       3.53653289       0.00010140       0.00471890       0.00692000
C       -4.93591418      10.00449042       3.57942948      -0.00115036       0.00142705       0.00397415
C        2.46630014       1.44746587       3.83379043      -0.00019664       0.00415626      -0.00417720
C        1.18164152       3.54339439       4.14594132      -0.00277572       0.00247800      -0.00581725
C       -0.00812199       5.76293134       3.91889979      -0.00506078       0.00344004      -0.00014605
C       -1.23840379       7.86188843       3.59470015       0.00341455      -0.00378558      -0.00207470
C       -2.46796691      10.00441897       3.57973236       0.00064048       0.00176381       0.00262925
C        4.94364085       1.44863945       3.68560441       0.00015689      -0.00443082      -0.00339327
C        3.75103540       3.54346876       4.14488987       0.00294849       0.00216900      -0.00492881
C        1.20426127       7.85273192       3.81229925      -0.00038001       0.00236340       0.00570251
C        0.00078015       9.99677944       3.57521800       0.00083597       0.00457299       0.00221575
C        7.40294737       1.44686257       3.58943788       0.00443215       0.00186569       0.00824016
C        6.15757601       3.59474446       3.73273957      -0.00294585      -0.00744939      -0.00471258
C        4.94081869       5.76294783       3.91816972       0.00422498       0.00390520      -0.00078303
C        3.72830659       7.85273525       3.81194131       0.00064654       0.00266917       0.00529351
C        2.46624453       9.96928795       3.62239722       0.00043656      -0.00273154       0.00071302
C        9.86605631       1.44690749       3.58959924      -0.00410633       0.00172499       0.00882901
C        8.63454295       3.58689083       3.60557002      -0.00010055       0.00746050       0.01192213
C        7.39947382       5.72306875       3.61504578       0.00426287      -0.00500217      -0.00208220
C        6.17094546       7.86198878       3.59420235      -0.00286906      -0.00432350      -0.00213993
C        4.93172883       9.99687152       3.57499880      -0.00028132       0.00402008       0.00227091
Cu       2.46653819       5.94801505       5.28768452      -0.00029992      -0.00299070      -0.00869038
O        2.46760148       4.35438747       6.23013256      -0.00093430       0.00013934      -0.00208850
