51
Lattice="12.336457 0.0 0.0 -6.168228499999997 10.683685154694365 0.0 0.0 0.0 15.0" Properties=species:S:1:pos:R:3:initial_magmoms:R:1:forces:R:3 energy=-445.6988680795791 free_energy=-445.6988680795791 stress="-0.0055444845531048515 0.00046228068071611095 1.5713025342208583e-06 0.00046228068071611095 6.522559093782457e-06 -2.0280354758669034e-06 1.5713025342208583e-06 -2.0280354758669034e-06 1.82612587932312e-05" pbc="T T T"
C        0.00678871      -0.07819618       3.63745573       0.00000000       0.00461461       0.00278465      -0.00310520
C       -1.23052152       2.05889399       3.69282524       0.00000000       0.00241972       0.00126839      -0.00150390
C       -2.48635084       4.20417028       3.70792637       0.00000000       0.00203047      -0.00121115       0.00019495
C       -3.69678760       6.35031175       3.65523218       0.00000000      -0.00117854      -0.00899202       0.00323719
C       -4.91576735       8.48927438       3.61153660       0.00000000       0.00176680       0.00121534       0.01911105
C        2.49458087      -0.04828910       3.65812139       0.00000000      -0.00846646       0.00463760      -0.00510412
C        1.25429273       2.04210188       3.74481467       0.00000000       0.00769765       0.00069997      -0.00372288
C       -0.08366948       4.24063024       3.95916090       0.00000000      -0.00093379      -0.00594799       0.00988217
C       -1.25956715       6.35457213       3.93188527       0.00000000       0.00617950      -0.00126298      -0.00554523
C       -2.45186476       8.49154236       3.73220579       0.00000000      -0.00526620       0.00649050       0.00067322
C        4.95033286      -0.05099666       3.66773604       0.00000000      -0.00560066       0.00653164      -0.00131255
C        3.73714383       2.13029071       3.67656117       0.00000000       0.00050359      -0.00438975       0.00489443
B        1.17269315       6.41157999       4.56184531       0.00000000      -0.00448992      -0.00448793      -0.00088486
C        0.01687963       8.49048956       3.86195216       0.00000000       0.00586733      -0.00238254       0.00024093
C        7.42164304      -0.08154059       3.63919272       0.00000000      -0.00402338      -0.00361631       0.00330769
C        6.18988766       2.06207827       3.57744020       0.00000000       0.00162672       0.00608213       0.00216184
C        4.96563838       4.19029272       3.60407435       0.00000000      -0.00340972      -0.00729952      -0.00727283
N        3.78067285       6.32986301       3.69563247       0.00000000       0.00367588      -0.00162833      -0.00033734
C        2.48487221       8.44005714       3.75222765       0.00000000       0.00026650       0.00027200      -0.00310455
C        9.88101868      -0.08899948       3.61589396       0.00000000       0.00284356      -0.00064052      -0.00514749
C        8.64955696       2.05753440       3.59456765       0.00000000      -0.00750305      -0.00235031      -0.00484727
C        7.41284275       4.20662092       3.56596784       0.00000000       0.00437066       0.00002107       0.00306910
C        6.18871144       6.35013486       3.57277931       0.00000000       0.00091943       0.00486990      -0.00379142
C        4.94622383       8.45051419       3.60290863       0.00000000      -0.00227025       0.00064383       0.00465499
C        0.00055366       1.34483373       3.69408139       0.00000000       0.00660302       0.00462316      -0.00609348
C       -1.26545265       3.48182111       3.77591033       0.00000000       0.00095611      -0.00167284      -0.00009378
C       -2.48493015       5.63211417       3.75610243       0.00000000       0.00309268      -0.00290632       0.00249604
C       -3.68543000       7.77726953       3.66297324       0.00000000      -0.00166631      -0.00541596       0.01022082
C       -4.91541098       9.91439383       3.63332982       0.00000000      -0.00259188       0.00189321      -0.00254225
C        2.50349111       1.37818721       3.69212884       0.00000000       0.00286866      -0.00077864       0.00361041
B        1.19319019       3.49491653       3.89758866       0.00000000      -0.00894741      -0.00134333       0.00380672
C       -0.08272496       5.62761664       4.11804300       0.00000000       0.00207227      -0.00715014      -0.00272402
C       -1.23164877       7.78455626       3.87188027       0.00000000       0.00083333       0.00307790      -0.00972994
C       -2.44781890       9.91765552       3.68318941       0.00000000      -0.01022669       0.01047083      -0.00111971
C        4.95782013       1.37522147       3.62466819       0.00000000       0.00215289       0.00621879       0.00086744
N        3.79516937       3.49881101       3.71200647       0.00000000      -0.00178655      -0.00965663      -0.00253855
C        1.25743678       7.81119613       4.00889179       0.00000000       0.00697357      -0.00572262       0.00558008
C        0.01445793       9.91222021       3.70547041       0.00000000      -0.00401677       0.00085752       0.00889085
C        7.42135572       1.34446338       3.58502931       0.00000000      -0.00820445      -0.00229777       0.00197002
C        6.19188667       3.48478097       3.55485468       0.00000000       0.00564349       0.00070264       0.00801917
C        4.95622808       5.64690429       3.59978815       0.00000000      -0.00109050      -0.00218239      -0.00272256
C        3.72997492       7.69498143       3.66992512       0.00000000      -0.00378538      -0.00133447       0.00204671
C        2.48575556       9.87196288       3.64038442       0.00000000       0.00061072       0.00108149       0.00003919
C        9.87895678       1.33993148       3.62383440       0.00000000      -0.00220813      -0.00035845      -0.00286772
C        8.63661992       3.48575720       3.60638232       0.00000000       0.00202435      -0.00096929      -0.00386746
C        7.41270649       5.63098934       3.58255879       0.00000000      -0.00101678      -0.00180741      -0.00061137
C        6.18747719       7.76961558       3.58695999       0.00000000       0.00136209       0.00696256       0.00575503
C        4.94284449       9.88088610       3.61855971       0.00000000       0.00556973       0.00047989      -0.00660030
Cu       2.47183629       4.89343402       3.99767463       0.00000000       0.00566921       0.01057958      -0.00407655
O        2.58691351       7.05931531       6.19206182       1.00000000       0.00010769       0.00364093      -0.01293608
O        1.81833281       5.98416984       5.84497446       1.00000000      -0.00263938       0.00170007      -0.00052664
