49
Lattice="12.336457 0.0 0.0 -6.168228499999997 10.683685154694365 0.0 0.0 0.0 15.0" Properties=species:S:1:pos:R:3:forces:R:3 energy=-431.7595182608292 free_energy=-431.7595182608292 stress="-0.0076652940395368655 0.0012553063594411993 -9.094658841984889e-07 0.0012553063594411993 0.001247810237828651 5.576721122158973e-07 -9.094658841984889e-07 5.576721122158973e-07 8.648922749924031e-07" pbc="T T T"
C       -0.00093454       0.01248907       3.74622425      -0.00368874       0.01211308       0.00570089
C       -1.24401832       2.13270831       3.73678144       0.00108083       0.00449865      -0.00578545
C       -2.46786133       4.27866865       3.72697826       0.00298141       0.00841513      -0.00338190
C       -3.69609031       6.41878629       3.73518983      -0.00395780      -0.01031760      -0.00430981
C       -4.93806386       8.56391278       3.74716404       0.00177750      -0.00597738       0.00650269
C        2.45038284       0.05025161       3.75357980      -0.00928160       0.00131795      -0.00225702
C        1.19757860       2.15681853       3.76002638       0.00250833      -0.00727183      -0.00250491
C       -0.06764666       4.28940117       3.72953057       0.00988991      -0.00488509       0.00483418
C       -1.25175277       6.41671638       3.72501660      -0.00002707       0.00096567      -0.00229119
C       -2.47607564       8.56595571       3.73865546       0.00013134      -0.00128596      -0.00430626
C        4.93009689       0.00860841       3.74762381       0.00447465      -0.00409210       0.00104748
C        3.70460577       2.18502500       3.78028316      -0.00308165       0.00774221      -0.00823887
O        1.13813523       6.41936183       3.75301055      -0.00682531       0.00756002       0.00223756
C       -0.01551405       8.52876496       3.74121767      -0.00173339      -0.00330901       0.00216050
C        7.39884729      -0.02748210       3.74314763      -0.00211196      -0.00725783       0.00175543
C        6.19116777       2.10983419       3.74845622      -0.00562683      -0.00264568       0.00727115
C        5.00420528       4.23412037       3.79033541       0.01683960      -0.00778758      -0.00484154
B        3.76605737       6.38230587       3.82819302       0.01309995      -0.00715861      -0.01212566
C        2.42359216       8.50429141       3.76705209       0.00141838       0.01145207      -0.00104141
C        9.85868662      -0.02350323       3.74758691      -0.00111850      -0.00557925      -0.00268388
C        8.64029623       2.11858818       3.73650423      -0.00011284      -0.00043826      -0.00566277
C        7.43483269       4.26342057       3.74083926      -0.00646552       0.00524282       0.00370674
C        6.20499881       6.41314655       3.76718085      -0.00238623       0.00682345       0.00744913
C        4.93151013       8.54233645       3.76921970      -0.00637883       0.00913360       0.00108389
C       -0.00672551       1.44366806       3.74510324      -0.00284655       0.01123378       0.00522891
C       -1.24610013       3.56103764       3.72801589       0.00264667       0.00410910      -0.00532676
C       -2.47071811       5.69578052       3.72730002       0.00010574       0.00190840      -0.00806542
C       -3.70898419       7.85017262       3.73966691       0.00258656      -0.00756805      -0.00235006
C       -4.93814913       9.99854410       3.74694849      -0.01204500       0.00329803       0.01063221
C        2.43372297       1.48709419       3.76828512       0.00296944       0.00116016      -0.00590271
O        1.13385541       3.55412126       3.76184668       0.00953250      -0.00559531      -0.00130705
C       -0.06925323       5.68790810       3.72637561       0.00197473      -0.00110541       0.00762981
C       -1.25550969       7.84272510       3.73271692      -0.00118619      -0.00269454       0.00290826
C       -2.48358207      10.00092183       3.74766869      -0.00316184       0.00124214      -0.00265486
C        4.94169933       1.42948635       3.75812039      -0.00562647      -0.00318629       0.00507365
C        3.79454245       3.55793415       3.80854229       0.01078092       0.00787840      -0.00446493
C        1.18735413       7.81616335       3.75630899      -0.00019857       0.01048185      -0.00279279
C       -0.00523624       9.95922084       3.74228535       0.00532964      -0.01120128       0.00699956
C        7.41612725       1.39785366       3.74083731      -0.00574670      -0.00246758      -0.00435963
C        6.22676259       3.52488739       3.75583473       0.00324825      -0.00343546       0.00793124
C        5.02224993       5.65401235       3.79845005       0.01230124      -0.00973697      -0.00185021
C        3.68227660       7.83830371       3.78912029      -0.00661569       0.00331694       0.00141535
C        2.45004008       9.93629557       3.75129095      -0.00314065       0.00217418      -0.00468680
C        9.87276695       1.41014870       3.73860541       0.00168863      -0.01263086      -0.00138386
C        8.65084438       3.54878051       3.73227877      -0.00338329       0.00919966      -0.00130990
C        7.43077898       5.69513976       3.74366141      -0.00509763       0.00061328       0.01117226
C        6.17061430       7.84026924       3.76304101      -0.00272593       0.00432069      -0.00469582
C        4.93341659       9.96937868       3.75118642       0.00396989       0.00372196       0.01005801
Cu       2.59756348       4.93417451       3.84143151      -0.00676533      -0.01229534      -0.00221746
