49
Lattice="12.336457 0.0 0.0 -6.168228499999997 10.683685154694365 0.0 0.0 0.0 15.0" Properties=species:S:1:pos:R:3:forces:R:3 energy=-428.48370059540866 free_energy=-428.48370059540866 stress="-0.004554736213318213 0.0015143205329051631 -1.0950498059578605e-06 0.0015143205329051631 -0.004269182415394506 4.0648858518360163e-07 -1.0950498059578605e-06 4.0648858518360163e-07 9.527103732360813e-07" pbc="T T T"
C       -0.01096976      -0.01750411       3.81979194       0.01273288       0.00325697       0.00304423
C       -1.22912420       2.13871895       3.90277560       0.00700958      -0.00276955       0.00049282
C       -2.46219039       4.27425073       3.93730146      -0.01029102       0.00250225      -0.01227158
C       -3.69978057       6.40372084       3.83688685      -0.00398251       0.00808912       0.00287066
C       -4.94410867       8.53293821       3.74438435       0.00408585       0.00493664      -0.00316062
C        2.46018200      -0.03251824       3.87379657      -0.00526828      -0.00658220      -0.00015892
C        1.24146561       2.09886950       3.83467192       0.00067014       0.00025228      -0.00414749
C       -0.01302888       4.33488210       3.95002580      -0.00180733       0.00777540       0.00137422
C       -1.25422293       6.43102055       4.01554429      -0.00486455       0.00311007       0.00743228
C       -2.47343600       8.53888878       3.93347668       0.00013973       0.00001766      -0.00570696
C        4.93569213      -0.00882432       3.90729181       0.00022350       0.00004330       0.00503681
C        3.69413642       2.09243402       3.76459020      -0.01631462       0.00004616      -0.00768067
O        1.14046637       6.46598714       3.96349522       0.00084116      -0.00263188      -0.01168735
C       -0.00947988       8.54242662       3.93080010       0.00449978      -0.00756369      -0.00337061
C        7.40275342      -0.01248822       3.88959371       0.00589966      -0.00701371       0.00290322
C        6.17807844       2.12752444       3.80210039       0.00531076      -0.00100301       0.00694727
C        5.00114801       4.27299746       3.42164298       0.00394543       0.00098680       0.00373918
P        3.70296286       6.43016981       2.30495626      -0.00633804      -0.00182301      -0.00609387
C        2.43625358       8.51934327       3.66275524      -0.00670371      -0.00396189       0.00183876
C        9.86211268      -0.01282387       3.82453955       0.00326313       0.00045968      -0.00351042
C        8.64152476       2.12953749       3.88761440       0.00072878      -0.00012962       0.00289097
C        7.42537667       4.26446934       3.73848486       0.00004909      -0.00084508       0.00976191
C        6.21919171       6.41415426       3.42947944       0.01142224       0.00073176       0.00415020
C        4.92263187       8.54253402       3.52801047      -0.00481685       0.00076886       0.00176356
C       -0.00572832       1.41234662       3.86781268       0.00955133       0.00087802      -0.00335811
C       -1.22672901       3.56959920       3.94500340      -0.00311752       0.00181821       0.01144657
C       -2.47421973       5.69308294       3.94900917      -0.01032153       0.00569150      -0.00354537
C       -3.70920876       7.82691814       3.84476263      -0.00051107       0.00699808      -0.00266119
C       -4.94586098       9.95158815       3.82065200       0.00206084      -0.00132714       0.00914257
C        2.46568896       1.38300643       3.83105804      -0.01003253      -0.00751865      -0.00132544
B        1.26984444       3.57917874       3.78852401      -0.00553111      -0.00276224       0.00546913
C       -0.05710650       5.74168224       4.01079506      -0.00127570       0.00790100      -0.00650156
C       -1.24847826       7.84436413       3.98078766       0.00077410       0.00031686       0.00439197
C       -2.46973739       9.96023362       3.91307649      -0.00310712      -0.00286820      -0.01352593
C        4.94276625       1.41331948       3.82979093      -0.00536493       0.00409478      -0.01407722
B        3.68055172       3.56248657       3.56453766      -0.00934102       0.00243593      -0.00480803
C        1.19043324       7.85353455       3.81620105      -0.00099378      -0.00781614      -0.01001045
C        0.00009080       9.96877180       3.91456343       0.00479968      -0.00593573       0.00493079
C        7.40688696       1.41720746       3.87452319       0.00653413      -0.00489974       0.00052904
C        6.19708049       3.54490024       3.66504329       0.00399692      -0.00098520       0.00581271
C        5.05963141       5.66407743       3.13499079       0.00592809       0.00235804       0.01092659
C        3.67610143       7.88253330       3.32388235      -0.01224699      -0.00147292      -0.00050012
C        2.45582458       9.94964193       3.81850626       0.00324544      -0.00530867       0.00449972
C        9.87235760       1.41723977       3.89070855       0.00242420      -0.00103796       0.00363018
C        8.64579415       3.55506616       3.86943285      -0.00713257      -0.00078544       0.00242457
C        7.42554268       5.68939966       3.67578419       0.00716197      -0.00178961       0.00688758
C        6.17307032       7.83363412       3.53470663       0.00626350       0.00459484      -0.00372633
C        4.92605274       9.96035506       3.74599121       0.00898480       0.00446860       0.00349732
Cu       2.45910926       5.03367261       3.44056601       0.00681606       0.00429848      -0.00600659
