50
Lattice="12.336457 0.0 0.0 -6.168228499999997 10.683685154694365 0.0 0.0 0.0 15.0" Properties=species:S:1:pos:R:3:forces:R:3 energy=-432.5065872545213 free_energy=-432.5065872545213 stress="-0.0010281967780753373 0.0019157987414730462 2.1250070082434275e-06 0.0019157987414730462 -0.0016449362473226808 -3.167396870476975e-06 2.1250070082434275e-06 -3.167396870476975e-06 3.21285102334075e-06" pbc="T T T"
C        0.00944661      -0.01646052       3.84549845      -0.00477300      -0.00778191      -0.00075667
C       -1.22396570       2.11844896       3.56027911       0.00072295      -0.00013861       0.00243447
C       -2.49467959       4.26085782       3.59133992      -0.00259171       0.00889091       0.00264823
C       -3.71956042       6.39226457       3.81872564      -0.00884832       0.00079674      -0.00912559
C       -4.94424138       8.51919192       3.97554229      -0.00082082       0.00248944      -0.00628020
C        2.47875268      -0.00923937       3.89138567       0.00559865       0.00029611       0.00286322
C        1.26716774       2.05031085       3.43047736       0.00904336      -0.00075307       0.00481074
C       -0.14997986       4.27966923       2.99576154      -0.00471329      -0.01242048      -0.00336096
C       -1.29235619       6.42049300       3.37187099      -0.00846740       0.00368912       0.00313521
C       -2.46653694       8.52432681       3.77296097      -0.01168883       0.00410856       0.01445411
C        4.93596971      -0.02226063       3.87195276       0.01077374       0.00115297      -0.00636345
C        3.74902641       2.10768410       3.90369185      -0.00553475      -0.00166006       0.00053837
S        1.35244589       6.45257958       2.50319812       0.01392052       0.01070151      -0.00478378
C       -0.00002341       8.53627714       3.59117959      -0.00133946       0.00647887       0.00036265
C        7.40782127      -0.01454671       3.84389410       0.01342269      -0.00404331      -0.00052861
C        6.18461190       2.11377500       3.94531736      -0.00237887      -0.00349767       0.00207196
C        4.97089433       4.21671630       4.11196105       0.00259914      -0.00414548       0.00762972
B        3.68082192       6.39502494       4.62328990      -0.00100763       0.00167483       0.00769154
C        2.48208552       8.53960400       3.81926667       0.00066333      -0.00350861      -0.00018524
C        9.88402498      -0.00461423       3.85835323      -0.00498079      -0.00091714       0.00527263
C        8.64677065       2.12354587       3.80615233      -0.00425385       0.00295601      -0.00027670
C        7.40367456       4.25442896       3.92387100       0.00850626       0.00071326      -0.00874332
C        6.14889525       6.35986330       4.10548126       0.00816784       0.00388941      -0.01573963
C        4.91835693       8.52776223       4.05235763      -0.00097855      -0.00347400       0.00428624
C        0.01923457       1.40639057       3.60978620       0.00608187      -0.00394582      -0.00151379
C       -1.27814209       3.53216041       3.38291104      -0.00970959      -0.00131719       0.00099684
C       -2.50407648       5.68650571       3.59479434      -0.00806732       0.00744565       0.00515783
C       -3.70894979       7.81363517       3.86437040      -0.00954070      -0.00224160      -0.00120347
C       -4.93005379       9.95432493       3.91791396       0.00196792       0.00026351      -0.00843069
C        2.50230194       1.42423040       3.78459695       0.00347551      -0.00342863       0.00705474
S        1.34633797       3.51297004       2.50310773       0.00254200      -0.00654649      -0.00482381
C       -0.15780838       5.68722821       2.97581653      -0.00788930      -0.01015278       0.00367012
C       -1.24596965       7.83049376       3.55410868      -0.00969563       0.00941290       0.01092137
C       -2.46236700       9.95393864       3.87059849       0.00598708       0.00450454       0.00154858
C        4.94512403       1.40888916       3.93518517      -0.00404043      -0.00088979      -0.00410121
O        3.78704440       3.47988752       4.08998837      -0.01021757      -0.00244259       0.01650763
C        1.25265012       7.89700660       3.44194171      -0.00097741       0.00241859      -0.00093783
C        0.00379439       9.95585993       3.79749023       0.01418960       0.00301304       0.00324856
C        7.40949139       1.41206729       3.88110673      -0.00115391      -0.00394374      -0.00548056
C        6.18140496       3.52650732       4.00037983       0.00808410      -0.00241201      -0.00110178
C        4.95151729       5.61055590       4.22815529       0.00890140      -0.00060613      -0.00335490
C        3.68579436       7.84868244       4.08131495      -0.00056196       0.00191169      -0.00077989
C        2.47669861       9.97082733       3.85478267       0.00545843      -0.00929025       0.00378457
C        9.88949591       1.41926757       3.74814802      -0.00352335       0.00306755       0.00619494
C        8.63214252       3.54390189       3.78416616       0.00400966       0.00427834      -0.00723015
C        7.39340243       5.66961109       3.95675122       0.00175430      -0.00031514      -0.01599664
C        6.15784087       7.80178731       4.07872981       0.00293089       0.00311303      -0.00868799
C        4.94079050       9.96409182       3.91770419      -0.00956782      -0.00681283       0.00523090
Cu       1.92524972       4.88403867       4.24583102       0.00359245       0.01006597       0.00403151
O        2.77077420       5.95336609       5.51350845      -0.00507144      -0.00064723      -0.00675985
