52
Lattice="12.336457 0.0 0.0 -6.168228499999997 10.683685154694365 0.0 0.0 0.0 15.0" Properties=species:S:1:pos:R:3:initial_magmoms:R:1:forces:R:3 energy=-456.8354692650485 free_energy=-456.8354692650485 stress="-0.004376926064407601 -1.3228701819584421e-05 -9.105824850485392e-06 -1.3228701819584421e-05 -0.0005746622750477489 2.3555002128548877e-05 -9.105824850485392e-06 2.3555002128548877e-05 -1.9015563048104597e-05" pbc="T T T"
C       -0.00337578      -0.01876362       3.59476419       0.00000000       0.01015247      -0.00783063       0.00243679
C       -1.24143895       2.11428274       3.64891876       0.00000000       0.00167873       0.00116025      -0.00309923
C       -2.47229366       4.25403472       3.59775151       0.00000000      -0.00235721       0.00170528       0.00810690
C       -3.70025650       6.39476552       3.52103342       0.00000000      -0.00651930       0.00698639      -0.00314096
C       -4.93090098       8.53710721       3.52744742       0.00000000      -0.00880228      -0.00490722       0.00582180
C        2.46713160      -0.00576537       3.59825457       0.00000000       0.00811927      -0.00120063      -0.00043516
C        1.22202990       2.11071569       3.77626283       0.00000000      -0.00761775       0.00500217       0.00565888
C       -0.02211820       4.26916721       3.84773378       0.00000000      -0.00026993       0.00496184      -0.00421705
C       -1.24949659       6.40337884       3.62772216       0.00000000       0.00649382      -0.00578720      -0.00554088
C       -2.46931353       8.53677930       3.52591185       0.00000000      -0.00352207       0.00093468       0.00075755
C        4.93794563      -0.01967189       3.58946166       0.00000000       0.00471605       0.00323772       0.00067465
C        3.71370236       2.11015490       3.77368803       0.00000000       0.00207673       0.00587617       0.00405459
B        2.46860316       4.12316265       4.31747041       0.00000000      -0.00517793      -0.00342978       0.00238259
N        1.09004116       6.45619314       4.09989727       0.00000000       0.01060450      -0.00186605       0.00315129
C       -0.00812646       8.52295561       3.63654476       0.00000000      -0.00832597      -0.00164002      -0.00392166
C        7.40716941      -0.03746379       3.63003250       0.00000000      -0.00939724       0.00578700       0.00037528
C        6.17632918       2.11417695       3.64263201       0.00000000       0.00424853      -0.00228670       0.00289187
C        4.95789485       4.26910780       3.84644958       0.00000000       0.00084386       0.00383248      -0.00377106
N        3.84429003       6.45567395       4.10443542       0.00000000       0.00798910       0.00252193       0.00230800
C        2.46830390       8.48069349       3.79786259       0.00000000      -0.00432870       0.00598329      -0.00526082
C        9.86483480      -0.03682577       3.63344757       0.00000000       0.00250138      -0.00203483       0.00382209
C        8.63554477       2.11000420       3.59994084       0.00000000       0.00425375      -0.00280589       0.00714532
C        7.40820669       4.25443834       3.59603286       0.00000000      -0.00577664      -0.00387887       0.00615519
C        6.18453366       6.40336201       3.62946306       0.00000000      -0.00187803      -0.00216978      -0.00819173
C        4.94449303       8.52322940       3.64255852       0.00000000       0.00104983      -0.00276174      -0.00688015
C       -0.00989209       1.39989316       3.65897391       0.00000000      -0.00133645      -0.00369474      -0.00105353
C       -1.24203593       3.54804911       3.68289966       0.00000000       0.00063141       0.00325932       0.00068028
C       -2.47105717       5.67997577       3.56498003       0.00000000      -0.00214366       0.00421325       0.00128744
C       -3.70000699       7.82094486       3.51035486       0.00000000      -0.00874508       0.00636511      -0.00842759
C       -4.93412828       9.96268161       3.56306539       0.00000000       0.00889603      -0.00734577      -0.00542720
C        2.46769465       1.41584845       3.72725995       0.00000000      -0.00233603       0.00509508       0.00066693
C        1.17150789       3.52357525       3.95532077       0.00000000      -0.00319464       0.00766857      -0.00291747
C       -0.02058254       5.71475679       3.84974949       0.00000000       0.00935101      -0.00115684       0.00244954
C       -1.24106280       7.82018898       3.58033584       0.00000000      -0.00540306      -0.00555427      -0.00192548
C       -2.46799803       9.96224372       3.55959188       0.00000000       0.00818566       0.00073884       0.00204401
C        4.94494190       1.39913467       3.65341145       0.00000000       0.00530901       0.00246177       0.00030788
C        3.76482638       3.52284678       3.95405193       0.00000000      -0.00114835       0.00932941      -0.00237244
C        1.20322186       7.79181024       3.82919907       0.00000000      -0.00510579       0.00359397       0.01022684
C        0.00398179       9.94514337       3.60362622       0.00000000      -0.00501074       0.00020768      -0.00334971
C        7.40605710       1.39342509       3.61157427       0.00000000       0.00252654       0.00192578      -0.00579180
C        6.17770912       3.54828532       3.67892785       0.00000000      -0.00350037      -0.00406153       0.00187903
C        4.95506894       5.71475823       3.85194699       0.00000000       0.00580880       0.00133765       0.00222722
C        3.73308741       7.79197548       3.83436756       0.00000000       0.00041676       0.00237907       0.00395593
C        2.46805163       9.91008291       3.67779553       0.00000000      -0.00812064       0.00720241      -0.00272811
C        9.86512442       1.39388788       3.61580803       0.00000000       0.00458290      -0.00265417      -0.00973792
C        8.63606498       3.53766168       3.58169757       0.00000000      -0.00262755      -0.00369213      -0.00934429
C        7.40660082       5.68042574       3.56419257       0.00000000      -0.00411198      -0.00112597       0.00811059
C        6.17741261       7.82031509       3.58327447       0.00000000      -0.00442849      -0.00538104       0.00411743
C        4.93138952       9.94566989       3.60937396       0.00000000       0.00661418      -0.00404986      -0.00504858
Cu       2.46549309       5.77713210       5.22766309       0.00000000       0.00150720      -0.01663335       0.00372675
O        2.35967953       5.63677996       7.63884590       1.00000000       0.00107915      -0.01468602       0.01236078
O        2.46607082       6.67126966       6.86569120       1.00000000       0.00154920       0.00886796      -0.00720061
