50
Lattice="12.336457 0.0 0.0 -6.168228499999997 10.683685154694365 0.0 0.0 0.0 15.0" Properties=species:S:1:pos:R:3:forces:R:3 energy=-439.7405524616526 free_energy=-439.7405524616526 stress="-0.0016209949601676697 -0.000387087368260366 -2.366445093711323e-06 -0.000387087368260366 0.00372720806948132 -1.2522603906912712e-05 -2.366445093711323e-06 -1.2522603906912712e-05 4.684633401084827e-06" pbc="T T T"
C        0.01935619      -0.01743568       3.65167757       0.00021418      -0.00410236       0.00280985
C       -1.23101727       2.10655470       3.60478317       0.01397305      -0.00547285      -0.00025437
C       -2.46047427       4.25173075       3.55673737       0.00695789       0.00588045       0.00130386
C       -3.67859118       6.39651644       3.56817213      -0.00433013      -0.00351762       0.00148298
C       -4.90555578       8.54258659       3.62165880       0.01166077       0.00604488       0.00364852
C        2.48425574       0.03524813       3.69185380      -0.00559403      -0.00339810       0.00969625
C        1.20558987       2.13047287       3.74261896       0.00900915       0.00254647       0.00683554
C       -0.03700827       4.22383467       3.80359137       0.00508964       0.00696042       0.00364123
C       -1.22007924       6.36530879       3.78513486       0.00435431       0.00497500       0.01296931
C       -2.44666480       8.53512632       3.70948803       0.00425970      -0.00953240      -0.00190079
C        4.94272510      -0.00898988       3.72425394       0.00030817      -0.00233477      -0.00375785
C        3.74447019       2.12969642       3.74116883      -0.00278220       0.00149619       0.00347132
B        1.10415089       6.40399407       4.66690653      -0.00127942       0.01141340      -0.00141632
C        0.01474215       8.52936572       3.91299453      -0.00123807      -0.00605105       0.00873321
C        7.41774394      -0.03254171       3.72810207      -0.00411384      -0.00175219       0.00308281
C        6.18865026       2.10988726       3.62257752      -0.00538855       0.00264676      -0.00912219
C        5.00209903       4.23818685       3.67449069      -0.00601181      -0.00195220      -0.00644118
C        3.80012754       6.37294727       3.94164566      -0.00503000      -0.00548424      -0.00794635
C        2.46463930       8.49352751       3.93912908      -0.00690393      -0.00101681      -0.01010856
C        9.87868147      -0.04306921       3.68139327      -0.00334569       0.00518873      -0.00344371
C        8.64821099       2.10617929       3.57483526      -0.00968256      -0.00332335       0.00192975
C        7.42278409       4.25609815       3.53143799      -0.00613826      -0.00630391      -0.00299572
C        6.20355563       6.39293064       3.59433989      -0.01236329      -0.00169144      -0.01033215
C        4.95795716       8.51241901       3.72031402       0.00140444       0.00476961      -0.00811501
C        0.01549519       1.41541709       3.65416520       0.01367026      -0.00843051       0.00581530
C       -1.23509170       3.52529360       3.60916893       0.01110254       0.00033339       0.00965297
C       -2.45690724       5.67145487       3.60059454       0.00606871       0.00864743       0.00348581
C       -3.67879520       7.82513946       3.62256910       0.00554497      -0.00447585      -0.00080672
C       -4.90754139       9.97787210       3.65514306      -0.00053113       0.00277210       0.00954984
C        2.47901635       1.48980000       3.73398433       0.00037732      -0.00310737       0.00323015
O        1.14161084       3.50303421       3.90913395       0.00973150       0.00639377      -0.00542798
C       -0.04086769       5.61216094       3.96963276      -0.00994659       0.00100666      -0.00015243
C       -1.22382109       7.81039756       3.82522181       0.00302063      -0.00278450       0.00554275
C       -2.45947703       9.97853476       3.71485161      -0.00178965      -0.00673253      -0.00551466
C        4.93967983       1.42450857       3.68611939      -0.00255972       0.00439946       0.00255187
O        3.81395598       3.52976228       3.82043670       0.00095605       0.00270315       0.00219656
C        1.23400724       7.84796224       4.11357138      -0.00198638      -0.00208940      -0.00625878
C        0.01037831       9.95768153       3.77979239       0.00168128      -0.00920278      -0.00664068
C        7.41175110       1.39749728       3.62739608      -0.01185679      -0.00278208      -0.00328090
C        6.19132011       3.53097372       3.57767307      -0.00408698      -0.00335961      -0.00702721
C        4.96042538       5.65977225       3.70742392      -0.01070788      -0.00506818       0.00521837
C        3.72394862       7.75597662       3.87463092       0.00006573      -0.00215726       0.00563181
C        2.47884421       9.92554396       3.77164360      -0.00525691       0.00462014       0.00112365
C        9.88312138       1.38829351       3.60350922       0.00010402       0.00437339       0.00591371
C        8.64597032       3.53513487       3.53031692      -0.00034380      -0.00107645      -0.00529102
C        7.42478860       5.67972980       3.53834641      -0.00724089      -0.00619251      -0.00341406
C        6.19648384       7.81833923       3.63241155       0.01521495       0.01132824      -0.00264164
C        4.95168716       9.93673320       3.68173135      -0.00260875       0.00605756       0.00101558
Cu       2.74814517       5.03210937       4.76950643       0.00858375       0.00440474      -0.01029188
O        1.60518514       5.96914983       5.84380311      -0.00023577       0.00443037       0.00204914
