50
Lattice="12.336457 0.0 0.0 -6.168228499999997 10.683685154694365 0.0 0.0 0.0 15.0" Properties=species:S:1:pos:R:3:forces:R:3 energy=-436.4430491778916 free_energy=-436.4430491778916 stress="-0.005282730154600761 0.0025141864743552116 -9.376824685441359e-06 0.0025141864743552116 -0.007460653259417879 -3.665717304962075e-06 -9.376824685441359e-06 -3.665717304962075e-06 -1.1535334626251576e-06" pbc="T T T"
C        0.01260202      -0.02462792       3.58165904      -0.00049318      -0.01334139       0.00176877
C       -1.21392987       2.12473401       3.44104864       0.00274453      -0.01084819      -0.00291377
C       -2.46822620       4.26146933       3.59562370      -0.00039170       0.00415523       0.00293596
C       -3.70823364       6.38695515       3.73591664      -0.00492793      -0.00549754       0.00165998
C       -4.93657477       8.51348589       3.73199722      -0.00121324       0.00469207       0.01009315
C        2.48058187      -0.05598238       3.65823695      -0.00940242      -0.00331362      -0.00252097
C        1.28112272       2.05365812       3.34635964       0.00029555       0.00150390       0.00226035
C       -0.03408461       4.30429623       3.57014408      -0.00664678       0.00139924       0.00144175
C       -1.26195701       6.39372295       3.98501549       0.00287274       0.00699841      -0.01042454
C       -2.46061049       8.51798122       3.87671397      -0.00239270      -0.01118686      -0.00323202
C        4.94944574      -0.02927240       3.76476643      -0.01326592       0.00896374       0.00335449
C        3.72766061       2.08771544       3.60006367      -0.00320286      -0.00729736      -0.00299954
P        1.34701184       6.30694021       4.83993295      -0.00005410       0.00070347      -0.01564244
C       -0.00372624       8.56146074       4.12193766       0.00212115       0.00720219       0.00039875
C        7.41376086       0.00022680       3.78736286       0.01178411      -0.00677814       0.01131304
C        6.19063002       2.10362191       3.60755201       0.01282043       0.01164765       0.00161625
C        4.94671795       4.21652296       3.65634466       0.00163379      -0.00014587      -0.00015289
B        3.67321454       6.36203703       4.13831923      -0.00719061       0.01636011       0.00666328
C        2.48352949       8.61151247       4.10372614      -0.00577276      -0.00805128       0.00035369
C        9.89058492       0.00280653       3.67674250       0.00077730       0.00804297      -0.00172608
C        8.65412011       2.12185974       3.56039312      -0.00484082       0.00566764      -0.00921830
C        7.40946840       4.25116259       3.58922300       0.01555287      -0.00611063       0.00406372
C        6.16457853       6.38142401       3.74479506       0.00543069      -0.00435801       0.00389634
C        4.93898253       8.53419317       3.83152666      -0.00918890       0.00149285       0.00215552
C        0.02171044       1.40192006       3.43478518       0.00543770      -0.01735098       0.00102903
C       -1.23338225       3.54955008       3.49146949      -0.00395834      -0.00457887      -0.00433889
C       -2.48020314       5.67916989       3.75899817      -0.00078158       0.00587632      -0.00419839
C       -3.70137371       7.80789627       3.78758518      -0.00647675      -0.00556679       0.00211612
C       -4.93060545       9.93346235       3.65893558      -0.00184385      -0.00139838      -0.00247888
C        2.49130700       1.35372151       3.53795141      -0.00533952      -0.00472385      -0.00070171
P        1.51886740       3.73936171       2.91797462       0.00375340       0.00947134      -0.00597228
C       -0.07867034       5.62982754       4.04301013       0.00131557       0.00731330      -0.00555016
C       -1.23616799       7.82063944       4.04149422       0.00749525       0.00136852      -0.00483720
C       -2.45430125       9.93438744       3.78203424      -0.01360410      -0.00831326      -0.00630097
C        4.96359427       1.38469558       3.65052601       0.00406396       0.01231309       0.00156514
C        3.73946591       3.48522993       3.69058027       0.00038984      -0.00692564      -0.00084186
C        1.25082378       7.95772874       4.37346795      -0.00488054      -0.00180800       0.00867108
C        0.01032494       9.96657138       3.88975797      -0.00437785       0.00981465       0.00180790
C        7.42463326       1.40800358       3.63372146       0.00540352      -0.00380613      -0.00136724
C        6.18925004       3.52125959       3.57415961       0.01363815       0.00856405      -0.00069282
C        4.95342658       5.63884440       3.80874380      -0.00463794       0.00457267       0.00433517
C        3.69838564       7.86010582       4.04426250      -0.00887020       0.00459304       0.00377693
C        2.48581914      10.00153742       3.84833735       0.01155774      -0.00970507       0.00461583
C        9.89309241       1.41747634       3.54056597      -0.00683816       0.00856202      -0.00937409
C        8.64442066       3.54536159       3.56004959       0.00726816       0.00053351      -0.01337825
C        7.40131690       5.67340279       3.66550390       0.00547190      -0.01332156       0.00118283
C        6.16344791       7.80744628       3.76946688      -0.00162595       0.00270680       0.01106525
C        4.94947711       9.96110658       3.69242083      -0.00614947       0.00027000       0.00386451
Cu       2.72546106       4.69002218       4.70216898       0.00469239       0.00162676       0.01541568
O        1.60127089       5.79650358       6.25859804       0.01184746      -0.00198809      -0.00455722
