52
Lattice="12.336457 0.0 0.0 -6.168228499999997 10.683685154694365 0.0 0.0 0.0 15.0" Properties=species:S:1:pos:R:3:forces:R:3 energy=-443.8181120757757 free_energy=-443.8181120757757 stress="-0.005227885977764484 -0.00549475567314063 3.590376341391948e-05 -0.00549475567314063 -0.00033709218829157953 -2.737283071393128e-05 3.590376341391948e-05 -2.737283071393128e-05 -3.6697607108506197e-06" pbc="T T T"
C        0.03794963       0.04719182       3.81574188       0.00111904      -0.00649964      -0.00414137
C       -1.23091098       2.16356520       3.80846186       0.00807330      -0.00394929      -0.00547598
C       -2.43868985       4.32025643       3.80367616      -0.00232247      -0.01044260      -0.00762515
C       -3.62847318       6.47389042       3.79148089      -0.00423234       0.00650713      -0.01119958
C       -4.86029271       8.62243183       3.81782884      -0.00857240       0.00643954       0.00365593
C        2.50651821       0.08354925       3.79696040       0.00076564      -0.00633074       0.00552738
C        1.20669883       2.16880150       3.75356325      -0.00374464       0.00363058      -0.00461243
C       -0.02161129       4.24821192       3.93117315       0.00349776       0.00283486      -0.00536535
C       -1.17623673       6.43937269       3.93259987       0.00660684       0.00143274       0.00277139
C       -2.40257329       8.60577082       3.86260528      -0.00120965       0.00290078      -0.00079284
C        4.96811723       0.06935012       3.73552594       0.00058725      -0.00097686      -0.00205637
C        3.70037626       2.17104691       3.41265085       0.00392305      -0.01054276       0.01335325
B        1.24780394       6.43856137       4.23592693       0.00365099      -0.00470403       0.00128128
C        0.04940784       8.60162425       3.93446675      -0.00263178       0.00110230      -0.00156037
C        7.43358416       0.05101621       3.76275548      -0.00331791       0.00017258       0.00839350
C        6.18574285       2.20835865       3.53577812       0.01007343       0.00425191       0.00073247
C        5.06203340       4.42765862       3.32903208      -0.00070724       0.00308146       0.00466345
N        3.86516105       6.48268582       3.82840202       0.00484297       0.00697674      -0.00295129
C        2.53052697       8.57923586       3.92403997      -0.00306382      -0.00893507      -0.01096239
C        9.89816809       0.03629331       3.79788383       0.00458301       0.00402965      -0.00280906
C        8.65285298       2.18670150       3.71216472       0.00111901      -0.00437216      -0.00779172
C        7.45704029       4.34529606       3.63210423      -0.00379800      -0.00094338       0.00370651
C        6.27555097       6.51411691       3.66501092      -0.00372235      -0.00035768      -0.00480899
C        5.00271441       8.59868196       3.80816747       0.00602693      -0.00019640      -0.01039759
C        0.01128873       1.46873690       3.80230054       0.00275753      -0.00722852      -0.00672677
C       -1.22962283       3.57400594       3.84373020       0.00609498      -0.00463535      -0.01283602
C       -2.41319578       5.74254437       3.83839957       0.00060005      -0.00339613       0.00095297
C       -3.62933916       7.89964495       3.83005559      -0.00718760       0.01139464       0.00110449
C       -4.88385868      10.04580082       3.83191595      -0.00019775       0.00080451       0.00436762
C        2.47182828       1.51239204       3.67965593      -0.00260888      -0.00701095       0.00636002
O        1.14603717       3.52320962       3.97044533       0.00238169       0.00628634       0.00355016
C        0.01710048       5.65929793       4.02163658       0.00954760       0.00145650      -0.01268843
C       -1.16874761       7.87407265       3.92099713       0.00062887       0.00326896       0.01022716
C       -2.42199430      10.04087575       3.80804902       0.00149965      -0.00091186       0.00760302
C        4.94524703       1.50460721       3.55130188       0.00940700      -0.00218527       0.00311192
S        3.59544958       3.76816238       2.75530691      -0.00252526       0.01253418      -0.00124320
C        1.29753952       7.90210577       4.03271579      -0.00757868      -0.00596264      -0.00365302
C        0.03520865      10.03303116       3.81085794      -0.00444106      -0.00059905       0.00053943
C        7.41376247       1.48370457       3.66430728       0.00242694      -0.00040724       0.00417447
C        6.21630106       3.64085386       3.48525283      -0.00001556       0.00392461       0.00439015
C        5.04768266       5.83263855       3.56292338      -0.00117576      -0.00077623       0.00815908
C        3.78295025       7.84589966       3.86406303       0.00720994       0.00390601      -0.00621488
C        2.50658831      10.00793112       3.82235465       0.00072949      -0.00248057       0.00258322
C        9.88528210       1.46267459       3.77182004       0.00416014       0.00580884       0.00664771
C        8.66765037       3.61376881       3.71355518      -0.00664079      -0.00936229       0.00326391
C        7.48153810       5.76858839       3.68649062      -0.00652199      -0.00023774       0.00273263
C        6.24912504       7.92177677       3.77075197      -0.00071011      -0.00373088       0.00493951
C        4.97218972      10.01466047       3.81643287       0.00298085      -0.00269265      -0.00284939
Cu       2.70324380       5.24362070       4.64352590      -0.00430791      -0.00556492       0.00631842
O        2.90298799       4.04983008       6.08494065      -0.00554344       0.00784167      -0.00240214
O        1.58632115       3.80815850       6.60191190      -0.01209005       0.00259387      -0.00115536
H        1.67582529       4.21737460       7.48703685      -0.00642656       0.01225249       0.00720863
