49
Lattice="12.336457 0.0 0.0 -6.168228499999997 10.683685154694365 0.0 0.0 0.0 15.0" Properties=species:S:1:pos:R:3:forces:R:3 energy=-428.41368563919525 free_energy=-428.41368563919525 stress="-0.003617656879360781 -0.0013763081748086486 -1.0746742910459667e-05 -0.0013763081748086486 -0.005522842150229381 7.738720901508317e-06 -1.0746742910459667e-05 7.738720901508317e-06 -1.511980178310064e-06" pbc="T T T"
C        0.00190964      -0.00967685       3.65220557      -0.00111410      -0.00181055       0.00427512
C       -1.24180926       2.12605745       3.49802838       0.00069980       0.00114308       0.00587286
C       -2.49332018       4.26385864       3.60048421       0.00393165       0.01235560      -0.00574152
C       -3.71527691       6.39884679       3.73412237      -0.00139024       0.00307072      -0.00329264
C       -4.93538707       8.53062496       3.75461875       0.00510053      -0.00300827      -0.00237659
C        2.46944638      -0.05558315       3.81853499       0.00345450       0.00453020      -0.00050840
C        1.26433738       2.05066115       3.48043127       0.00101690       0.00061952       0.00523894
C       -0.05683107       4.31125960       3.45825651       0.00244165       0.00043089       0.00233944
C       -1.27370298       6.40785378       3.85098353       0.00360386       0.00334392      -0.00968159
C       -2.46289567       8.52510987       3.90259260       0.00086939      -0.00213943      -0.00258014
C        4.93980807      -0.02067257       3.90659747       0.00801481      -0.00381874      -0.00396913
C        3.68782082       2.07890187       3.78043354       0.00739941      -0.00149059       0.00080213
B        1.16003593       6.38814003       4.19971269      -0.00479374      -0.01261124       0.00841453
C        0.01052214       8.53324823       4.00283007       0.00220694      -0.00614327      -0.00608390
C        7.40683419      -0.00573044       3.85037636      -0.01178490       0.00902768      -0.00476222
C        6.15508149       2.14364071       3.76384967      -0.00765044       0.00006937      -0.01297703
C        4.90000647       4.33843190       3.64732436      -0.00516952       0.00168921      -0.00033686
O        3.78443880       6.48362343       3.79374078       0.00753410       0.00046230       0.00136263
C        2.50728696       8.53356661       3.93688257      -0.00437128       0.00563854       0.00024478
C        9.86949696      -0.00342795       3.70689459      -0.00825356      -0.00880604      -0.00758837
C        8.62414920       2.13101609       3.65353609       0.00009236      -0.00464837       0.00035541
C        7.37566632       4.27231837       3.64664070      -0.00736788       0.00184831       0.00201021
C        6.17095162       6.42672746       3.64173497      -0.00546836       0.00341724       0.01149994
C        4.94862910       8.55158075       3.73587203       0.00314988      -0.00339409       0.01337931
C        0.00281405       1.41329292       3.52381064       0.00056820      -0.00048293       0.00261086
C       -1.25369441       3.55069619       3.47920772       0.00429608       0.00527410       0.00381491
C       -2.49571225       5.68498689       3.72536343       0.00402866       0.01265680      -0.00184039
C       -3.69943055       7.81937828       3.80649356       0.00246948      -0.00276726      -0.00797591
C       -4.93806153       9.95000975       3.74930707       0.00269612      -0.00139974       0.00562590
C        2.47325886       1.35196387       3.72450428       0.00306804       0.00457824      -0.00166583
P        1.56794170       3.72136923       3.01279874      -0.01015368       0.00295884      -0.01323088
C       -0.07231623       5.68135944       3.80148598      -0.00216816      -0.00191786      -0.00524024
C       -1.22912601       7.82064340       3.95202923       0.00071433      -0.00166087       0.00342212
C       -2.45902934       9.94040129       3.90243603       0.00544432       0.00002943      -0.00603125
C        4.93372971       1.41055315       3.83744619       0.00291835      -0.00403542       0.00173074
B        3.57535860       3.58210859       3.71627422       0.01210449      -0.01080254      -0.00557907
C        1.26353186       7.84292498       4.06345943       0.00130047      -0.00638533       0.01631872
C        0.00445351       9.96261725       3.93275527       0.00262926      -0.00376604       0.00440235
C        7.39237707       1.42347708       3.75874085      -0.00846691       0.00403875      -0.00916331
C        6.13098028       3.57666105       3.67393740      -0.00915921      -0.00059449      -0.00175948
C        4.96042338       5.74728154       3.64889776      -0.00244850       0.00059678       0.01681745
C        3.74545006       7.86220778       3.84112822       0.00033600       0.00058752      -0.01050125
C        2.48253749       9.96289752       3.83235579      -0.01491323       0.00868574       0.00523209
C        9.86435625       1.42258453       3.61119370       0.00134713      -0.00831483       0.00012206
C        8.61344196       3.55468607       3.62423232       0.00224000       0.00270404      -0.00065501
C        7.39076240       5.69020134       3.65843614      -0.00682960       0.00530856      -0.00044377
C        6.17630748       7.83887796       3.69646799       0.00394580       0.00063021       0.00757136
C        4.93545082       9.97470477       3.69709444      -0.00364315      -0.00389106       0.00393904
Cu       2.41438975       4.99228755       4.66817909       0.01552396      -0.00180661      -0.00341814
