51
Lattice="12.336457 0.0 0.0 -6.168228499999997 10.683685154694365 0.0 0.0 0.0 15.0" Properties=species:S:1:pos:R:3:initial_magmoms:R:1:forces:R:3 energy=-438.59971116777893 free_energy=-438.59971116777893 stress="-0.006626772336900635 -0.004938678990842071 -9.75934630203241e-06 -0.004938678990842071 -0.007602080729093422 1.8749352567929827e-05 -9.75934630203241e-06 1.8749352567929827e-05 -3.5690170809437317e-06" pbc="T T T"
C       -0.04320144      -0.03721032       3.71189090       0.00000000      -0.00086415      -0.00367732       0.00692266
C       -1.30701338       2.08136344       3.65427977       0.00000000      -0.00577480      -0.00461893      -0.00158551
C       -2.52554570       4.23615875       3.66298615       0.00000000      -0.00349068       0.00000967       0.00432885
C       -3.72002120       6.37951165       3.74779691       0.00000000       0.00055208       0.00123569       0.00354103
C       -4.95954055       8.51437982       3.81226425       0.00000000       0.00324416       0.01393611      -0.00314807
C        2.42359901      -0.03804795       3.66707261       0.00000000       0.00948482      -0.00809172       0.00152971
C        1.14429741       2.10577661       3.70255193       0.00000000       0.00862280       0.00017428      -0.01174392
C       -0.08846503       4.15653136       3.73797803       0.00000000       0.00004832       0.00378386       0.00621788
C       -1.24703416       6.35296424       3.66314604       0.00000000      -0.00031287      -0.00508023       0.00136032
C       -2.47887897       8.50035845       3.69550854       0.00000000       0.00203610      -0.00475771      -0.00198963
C        4.89000526      -0.03111351       3.61758806       0.00000000      -0.00907847       0.01182544      -0.00928624
C        3.62440869       2.05952808       3.37238582       0.00000000       0.00134042      -0.00461620      -0.00069700
S        1.47901125       6.21010939       3.35559440       0.00000000       0.00157664       0.00543628      -0.00118404
C       -0.01655944       8.50329699       3.69807672       0.00000000      -0.00488584      -0.00308130      -0.01598136
C        7.34482093      -0.01079976       3.68873066       0.00000000       0.00181452      -0.00234228       0.00315682
C        6.10052915       2.12906295       3.53319463       0.00000000       0.00126611       0.01014139      -0.01624192
C        4.95198370       4.33791649       3.57042821       0.00000000      -0.00711457      -0.00959345      -0.00008335
B        3.80613454       6.47605196       4.61145438       0.00000000       0.00342285      -0.00597758      -0.01006832
C        2.45325471       8.56474752       3.89494422       0.00000000       0.00614372      -0.00451483      -0.00136025
C        9.82200279      -0.01615051       3.74237752       0.00000000       0.00485310       0.00354087      -0.00180143
C        8.56808525       2.11310954       3.63816490       0.00000000      -0.00705187       0.00686420      -0.00129109
C        7.36460345       4.25441259       3.68685162       0.00000000      -0.00532047      -0.00042684      -0.00850222
C        6.16452618       6.39222093       3.92936149       0.00000000      -0.00682704      -0.00142437       0.00263352
C        4.89829640       8.53799959       3.93216701       0.00000000      -0.00500627      -0.00030360      -0.00237673
C       -0.06900545       1.38048027       3.65989639       0.00000000      -0.00049897      -0.00239649      -0.00156092
C       -1.32231275       3.48864934       3.66215889       0.00000000      -0.00281102      -0.00218264      -0.00275561
C       -2.49958855       5.65496354       3.68904692       0.00000000      -0.00041993      -0.00297680       0.00677178
C       -3.71919551       7.80075632       3.75770327       0.00000000       0.00049934       0.00529461       0.00043276
C       -4.97226546       9.93531811       3.73766442       0.00000000       0.00483569       0.01018092       0.00941973
C        2.40305729       1.38972601       3.59158645       0.00000000       0.00883790      -0.01129907       0.00080901
N        1.06797443       3.44383321       3.93919908       0.00000000       0.01435422       0.01226021      -0.00120854
C       -0.07707652       5.56808844       3.63862211       0.00000000       0.00375402       0.00210328      -0.00021301
C       -1.24207567       7.78270326       3.66963505       0.00000000      -0.00223751      -0.00805369      -0.00285306
C       -2.50073812       9.93341159       3.65834896       0.00000000       0.00320115      -0.00520888       0.01168064
C        4.87395939       1.40369488       3.50198974       0.00000000       0.00066778       0.01276897       0.00738256
S        3.57094263       3.68984745       2.77184911       0.00000000       0.00067814       0.00711397       0.01415996
C        1.23607426       7.85963998       3.74306649       0.00000000      -0.00041913       0.00065175      -0.00842492
C       -0.04016935       9.94679054       3.68012994       0.00000000      -0.00987372       0.00462519       0.00748497
C        7.32884463       1.41521752       3.61660811       0.00000000      -0.00249004       0.00478194       0.00427715
C        6.13036017       3.54841956       3.58454096       0.00000000      -0.00588936       0.00230442      -0.00041471
C        4.95603242       5.66996779       4.00070089       0.00000000      -0.00045196      -0.01452973       0.01260533
C        3.67319540       7.89098498       4.05209986       0.00000000       0.00068832      -0.00332074       0.00249216
C        2.41824235       9.98306769       3.78652436       0.00000000       0.00917910      -0.00438662       0.00506212
C        9.80069966       1.39507649       3.66493476       0.00000000      -0.01015122       0.00370618       0.00299604
C        8.58003257       3.53016376       3.65387018       0.00000000      -0.00523212       0.00393763       0.00327905
C        7.38729520       5.67365105       3.78406044       0.00000000      -0.00119009      -0.00262313      -0.00666191
C        6.15194552       7.81658995       3.93383403       0.00000000      -0.00017786       0.00730247      -0.01452324
C        4.89103044       9.96051990       3.78147805       0.00000000      -0.00152242      -0.00315598      -0.00011595
Cu       2.43865144       4.36371099       4.80850957       0.00000000       0.00536364      -0.01430066      -0.00621606
O        3.36542564       5.02823298       6.27557565       1.00000000      -0.00033185      -0.01211514       0.00811596
O        3.44466291       6.42366647       6.02862426       1.00000000       0.00295931       0.01107660       0.00562896
