49
Lattice="12.336457 0.0 0.0 -6.168228499999997 10.683685154694365 0.0 0.0 0.0 15.0" Properties=species:S:1:pos:R:3:forces:R:3 energy=-429.4243759775971 free_energy=-429.4243759775971 stress="-0.007756745766175524 0.002263001068132424 4.106160589335728e-06 0.002263001068132424 -0.005903297609179042 -4.222960729211397e-06 4.106160589335728e-06 -4.222960729211397e-06 -7.046217185962926e-08" pbc="T T T"
C       -0.00753464      -0.00625103       3.57171331       0.00416082      -0.00311147       0.00251006
C       -1.23669836       2.14063471       3.45231214      -0.00111430      -0.00094040       0.00046116
C       -2.48590869       4.27909281       3.63715499      -0.00049984      -0.00199085      -0.00118620
C       -3.71868820       6.41001780       3.75244863      -0.00240274      -0.00189993      -0.00620554
C       -4.95015775       8.54144658       3.73022290      -0.00365165      -0.00041017       0.00462793
C        2.46197108      -0.01913883       3.62142504      -0.00321571       0.00279306      -0.00171981
C        1.24817087       2.07912862       3.30959078      -0.00512356      -0.00519271      -0.00627471
C       -0.06383139       4.32460722       3.65515163       0.00070279       0.01796087       0.00249357
C       -1.28416536       6.41969161       4.01437901      -0.00823107      -0.00169660      -0.00018034
C       -2.48163062       8.54741643       3.84405821      -0.00452566       0.00281467       0.00877363
C        4.93259466      -0.00468249       3.70725822      -0.00294368      -0.00160130      -0.00366744
C        3.71129733       2.13069793       3.56233007       0.00316517       0.00383747       0.00678211
P        1.26574339       6.35553213       5.04725109      -0.00244775      -0.00425058      -0.00166650
C       -0.02348931       8.57365614       4.05878519       0.00644344      -0.00293810       0.01115800
C        7.39818662       0.00478805       3.72424814      -0.00594293       0.00414349       0.00289423
C        6.17942753       2.11870393       3.58016236       0.00677293       0.00047422       0.00880861
C        4.95666158       4.23436128       3.69305453       0.00352977      -0.00120455      -0.00373595
B        3.68985305       6.37959299       4.15007832      -0.00500266       0.00178244      -0.01549371
C        2.45692214       8.59968167       4.05443342       0.00060675       0.00629710       0.00611427
C        9.86801602       0.00865909       3.65061909      -0.00026910      -0.01087851      -0.00156288
C        8.63726545       2.13443145       3.54896415       0.00516684       0.00231645       0.00206942
C        7.40543132       4.26830257       3.61246629      -0.00401145       0.00214211       0.00048486
C        6.16565303       6.40459375       3.77918428       0.00535947      -0.00098541       0.00602765
C        4.92550070       8.55162257       3.83986026       0.00253505       0.00231922       0.00035606
C       -0.00329463       1.41847092       3.42349820      -0.00257904      -0.00316916       0.00964481
C       -1.25680592       3.56519150       3.54680836       0.00217243       0.00387128      -0.00070156
C       -2.49561969       5.69982496       3.78850717      -0.00376560      -0.00357781      -0.00861225
C       -3.71750554       7.83423558       3.78102401      -0.00373519      -0.00140387      -0.00204926
C       -4.94623744       9.96185491       3.64133549       0.00049963      -0.00096786       0.00181179
C        2.46868017       1.39519915       3.49668271       0.00169262       0.00058738      -0.01976326
P        1.38277838       3.76405972       2.81200251       0.00532243      -0.00906108      -0.00244579
C       -0.10158038       5.65930564       4.14260993      -0.00359567      -0.00035144       0.00188528
C       -1.26140045       7.84661599       4.01718870      -0.00051331       0.00142258       0.00226269
C       -2.47467984       9.96476769       3.73506008      -0.00533948       0.00139115      -0.00783124
C        4.94738445       1.41036126       3.60383467       0.00528332       0.00023749      -0.00117101
C        3.75590289       3.51783579       3.68577043      -0.00103402       0.00620492       0.00266869
C        1.22054473       7.94322120       4.29921188       0.00861780       0.00027654      -0.00141507
C       -0.00762340       9.98041794       3.82091937      -0.00198917      -0.00535299      -0.00758922
C        7.41036984       1.41687355       3.59649151       0.00547486       0.00361876      -0.00293805
C        6.19063485       3.53630453       3.58886741       0.00153789      -0.00171590       0.00295549
C        4.96619454       5.65794534       3.85103479       0.00671062      -0.00347375      -0.00111649
C        3.68544023       7.87018652       4.04367714       0.00127646       0.00932071       0.00337314
C        2.46513010       9.99704141       3.79310378      -0.00772886       0.00219007       0.00881531
C        9.87246836       1.42782752       3.52924908       0.00155563      -0.00902524       0.00693072
C        8.63355993       3.55995559       3.57668925      -0.00526540       0.00375782       0.00263198
C        7.39748974       5.69268511       3.69513128       0.00101045       0.00029221      -0.01050239
C        6.15359782       7.83229616       3.78833414      -0.00008847      -0.00077316       0.00709827
C        4.93070695       9.97489742       3.68591763       0.00536807      -0.00334540      -0.00375705
Cu       2.61066719       4.77458674       4.41461798       0.00005107      -0.00073377      -0.00205405
