50
Lattice="12.336457 0.0 0.0 -6.168228499999997 10.683685154694365 0.0 0.0 0.0 15.0" Properties=species:S:1:pos:R:3:forces:R:3 energy=-446.6358061055462 free_energy=-446.6358061055462 stress="-0.004421505688639005 4.914192923969543e-06 1.2663486869891766e-06 4.914192923969543e-06 -0.0008604543102620378 4.996123460001115e-06 1.2663486869891766e-06 4.996123460001115e-06 -8.414118385780117e-08" pbc="T T T"
C       -0.00439312      -0.00351572       3.60601120       0.00468261      -0.00309910      -0.00370271
C       -1.24122926       2.13168919       3.64318786      -0.01229582      -0.00644274       0.00571018
C       -2.47383119       4.27135370       3.61907319      -0.00048651      -0.00585752       0.00297682
C       -3.70178188       6.41104775       3.57343432       0.00014539       0.01227926      -0.01420799
C       -4.93439867       8.55065702       3.57171860       0.00919006       0.00666080      -0.01049096
C        2.46621719       0.00821378       3.59890477       0.00408945       0.00900050       0.01120704
C        1.22279950       2.12778098       3.75353401       0.00143275       0.00323969       0.01766832
C       -0.02152343       4.28550217       3.85337378       0.00804922       0.00410945      -0.00281441
C       -1.24897529       6.41883838       3.67925055      -0.00848788      -0.00564131      -0.01062029
C       -2.46947481       8.55081254       3.57006280      -0.00379814       0.00480117       0.00071450
C        4.93725230      -0.00310616       3.60725222      -0.00843187      -0.00939559      -0.00355325
C        3.70962798       2.12767072       3.75633009       0.00325568       0.00560625       0.00468253
B        2.46611530       4.14086772       4.32602273      -0.00412109      -0.00754672       0.01159627
N        1.08296716       6.47276668       4.19174421       0.00052929       0.00587996      -0.00454074
C       -0.00944569       8.54068739       3.69914598      -0.00702210      -0.00323689      -0.01356592
C        7.40570085      -0.01919883       3.65801451       0.00256632       0.00032202       0.01053862
C        6.17400996       2.13169775       3.64581947       0.00788623      -0.00385803       0.00361959
C        4.95452127       4.28545450       3.85859084      -0.01121946       0.00622684      -0.00571869
N        3.85034279       6.47288063       4.19600629      -0.00673266       0.00904384       0.00016901
C        2.46648964       8.50105886       3.86470409       0.00128674       0.00051377      -0.01496150
C        9.86391534      -0.01943109       3.65742379      -0.00721284       0.00528376       0.01058236
C        8.63452891       2.12735981       3.60945142       0.00140632      -0.00226742      -0.00225062
C        7.40584272       4.27159338       3.62148636       0.01308506      -0.01106660       0.00250338
C        6.18228952       6.41908285       3.68343927       0.00229036      -0.01195811      -0.00919291
C        4.94223053       8.54038980       3.70051265       0.00652282      -0.00199693      -0.00936510
C       -0.00988457       1.41606104       3.64872599      -0.00449287      -0.00272745      -0.00165497
C       -1.24264148       3.56524026       3.68393814      -0.00000980      -0.00341060       0.01771986
C       -2.47234064       5.69708309       3.60926459      -0.01013648      -0.00375825      -0.01306659
C       -3.70196934       7.83616968       3.55923102       0.00483910       0.01235111      -0.00413448
C       -4.93577454       9.97631630       3.57885802       0.01125483       0.00385762       0.01293191
C        2.46616828       1.43100439       3.70810768       0.00352651       0.00710870       0.01546948
C        1.17458556       3.53833041       3.93594907       0.00827219       0.00958737       0.00060043
C       -0.02626374       5.72645630       3.89372672       0.00245781       0.00413516      -0.00210928
C       -1.24115930       7.83619916       3.63804745      -0.01048930      -0.00321823       0.00129225
C       -2.46801687       9.97657879       3.58038155      -0.00840234      -0.00012302       0.00150053
C        4.94255543       1.41637669       3.64997624       0.00211536      -0.00745731       0.00966748
C        3.75813434       3.53826828       3.93830706      -0.00982363       0.01095957       0.00765375
C        1.19835741       7.81584621       3.90406581      -0.00030740       0.00409113       0.00159588
C        0.00241669       9.96301821       3.64263043      -0.00289330      -0.00217728      -0.01259464
C        7.40433577       1.41129738       3.62304318       0.01074802      -0.00418111       0.00016646
C        6.17513126       3.56515620       3.68812876       0.00318591      -0.00111416       0.01608447
C        4.96008672       5.72654836       3.89985622      -0.01609334       0.00168179      -0.00806265
C        3.73463731       7.81578057       3.90723776      -0.00038859       0.00265696      -0.00669777
C        2.46656224       9.93001297       3.71837305      -0.00040157       0.00303144      -0.00188631
C        9.86492910       1.41115931       3.62174369      -0.01171456      -0.00127146       0.00055705
C        8.63410137       3.55497688       3.59656797       0.00799673      -0.00863656       0.00866613
C        7.40520202       5.69725803       3.61144324       0.01099175      -0.00594287      -0.01126385
C        6.17396648       7.83619631       3.64039775       0.01081095      -0.00522642       0.00363303
C        4.93062923       9.96254094       3.64205192      -0.00355377       0.00382613      -0.01116449
Cu       2.46473288       5.78867637       5.24611099       0.00589779      -0.01464265      -0.00188719
