50
Lattice="12.336457 0.0 0.0 -6.168228499999997 10.683685154694365 0.0 0.0 0.0 15.0" Properties=species:S:1:pos:R:3:forces:R:3 energy=-434.9510209859427 free_energy=-434.9510209859427 stress="-0.0015139056215737684 0.0010812252011000213 -9.802474456935684e-05 0.0010812252011000213 -0.0015432853513443155 4.912481046628754e-05 -9.802474456935684e-05 4.912481046628754e-05 0.0003357454922843383" pbc="T T T"
C        0.00185871      -0.01299986       3.85536045       0.00243435      -0.00931575      -0.00506090
C       -1.23413328       2.11315746       3.51193122      -0.00893156      -0.01415344       0.01165870
C       -2.50949106       4.25822391       3.48552152      -0.00390583       0.01214988       0.02028146
C       -3.72984000       6.39156296       3.73507595      -0.00651665       0.00927488       0.02415627
C       -4.94557469       8.52230216       3.96387973      -0.01344109      -0.01547580       0.00192907
C        2.47192037      -0.01707237       3.88786205      -0.01372236       0.00287192      -0.00388235
C        1.26362746       2.04248904       3.44809217      -0.03536287       0.04179255      -0.02768829
C       -0.15240621       4.27467663       2.96775802       0.03232307       0.01738435       0.00077158
C       -1.28900010       6.41481551       3.33811978       0.00744486      -0.01124291       0.01422072
C       -2.46806670       8.52355825       3.73584768      -0.01043605      -0.01711689       0.02388155
C        4.93455142      -0.01887463       3.85217211       0.03428763       0.01572936       0.00656036
C        3.72390864       2.15423470       3.92916282       0.01092158      -0.06200782      -0.03355655
S        1.41526524       6.40600020       2.67884875      -0.06264751       0.02570521      -0.04285932
C        0.00315778       8.52801761       3.62073959       0.00620228       0.00483883       0.00216594
C        7.40447825      -0.01728369       3.83238652      -0.01093280      -0.00425363       0.01185431
C        6.17541041       2.11233073       3.88948461       0.05453641       0.04303415       0.01500494
C        4.93922267       4.21857059       4.11856064       0.09915807       0.08603566       0.00429967
B        3.69214291       6.40198869       4.75449135      -0.02921177      -0.04774524       0.08632033
C        2.48010273       8.53710665       3.92931046       0.03902262       0.04687068       0.00750755
C        9.87744347      -0.00288767       3.87003891       0.00739770       0.00254285       0.00988449
C        8.63537293       2.12029067       3.71861868       0.01179826       0.01503851       0.02005033
C        7.39295572       4.25252415       3.83402287      -0.03721385      -0.01723105       0.01914479
C        6.15232842       6.37316728       4.11465609      -0.06538979      -0.11823498      -0.00789241
C        4.92061020       8.53591937       4.13066857      -0.06437517       0.00640454      -0.01605398
C        0.00407277       1.40321226       3.60174562       0.02791251      -0.00846924      -0.00023914
C       -1.28919546       3.52608694       3.31009472       0.00027446       0.00443064       0.01114915
C       -2.51347876       5.68452824       3.50297988       0.00098171       0.00606029       0.02623270
C       -3.71368718       7.81418621       3.81248764       0.00200336      -0.00509530       0.02077475
C       -4.93654391       9.95407834       3.91798920       0.02038457       0.03158017      -0.00453784
C        2.47952701       1.41190633       3.79887815       0.02169136      -0.01774740      -0.00121785
S        1.36186587       3.51739451       2.53586705      -0.03489203      -0.03570579      -0.03987918
C       -0.14284732       5.67198509       2.99543708       0.01426539       0.00200014       0.01135412
C       -1.24326270       7.82435913       3.53962066       0.00198468       0.01084448       0.02107036
C       -2.46446681       9.94803867       3.85048036       0.00256429       0.04527918       0.00982899
C        4.94415147       1.40945260       3.91530354      -0.07173363      -0.01549802      -0.00955169
N        3.76642383       3.50537922       4.08243192       0.02799282      -0.10594346      -0.00936195
C        1.26204428       7.88324677       3.54754372      -0.03055787       0.00091916      -0.01928111
C        0.00235398       9.95271507       3.79369899      -0.02093923       0.02389869       0.00851569
C        7.40776113       1.40625708       3.81642729      -0.01846729       0.00717594       0.02182712
C        6.17946131       3.52513318       3.94754770       0.01502073      -0.02591712       0.00537083
C        4.95848987       5.63626010       4.28266429       0.04685499       0.01766303      -0.01149571
C        3.68869967       7.85642144       4.20534623       0.00446155       0.03676630      -0.01612165
C        2.47279728       9.97043730       3.89565255       0.00874988      -0.04182384       0.00157298
C        9.87971550       1.41602377       3.69759953       0.00334703      -0.01304637       0.01770224
C        8.61877418       3.54101531       3.67126651      -0.02067822       0.00190053       0.02508460
C        7.38907908       5.67218121       3.88985909       0.00230651       0.02126683       0.01087344
C        6.16027798       7.81312278       4.10893650       0.04332549       0.04425378      -0.01416248
C        4.93585025       9.96996314       3.95722895      -0.01155851      -0.04353146       0.00238663
Cu       2.26570748       4.72273232       4.23994108      -0.03609888       0.07911040       0.27491271
O        2.79130126       5.93392998       5.65616313       0.05736481      -0.03326743      -0.48550599
