50
Lattice="12.336457 0.0 0.0 -6.168228499999997 10.683685154694365 0.0 0.0 0.0 15.0" Properties=species:S:1:pos:R:3:forces:R:3 energy=-428.9041789925939 free_energy=-428.9041789925939 stress="-0.0005961804423006519 -0.003918944262740352 -1.0457451413286474e-05 -0.003918944262740352 -0.004930130902849197 -6.441270802991796e-06 -1.0457451413286474e-05 -6.441270802991796e-06 2.388356576407392e-06" pbc="T T T"
C        0.02043961       0.00423449       3.88698357      -0.00331557      -0.00977931       0.00137032
C       -1.24182128       2.12858743       3.84996992       0.00402224      -0.01027538      -0.00060481
C       -2.46815392       4.27682912       3.81188245      -0.00420924      -0.00548909       0.00302550
C       -3.67570861       6.41058818       3.82502199       0.00517926       0.00381601      -0.00601447
C       -4.91005031       8.54364858       3.90094455       0.00790283       0.00343274      -0.00224991
C        2.47684041       0.00663915       3.76184190      -0.00382303      -0.00456977      -0.00910015
C        1.19860033       2.11887441       3.71504294       0.00739807       0.00447623       0.00853420
C       -0.03709888       4.19416553       3.79977313      -0.00411003       0.00575886      -0.00655982
C       -1.17383538       6.37204388       3.75648769       0.00213733      -0.00279975      -0.00295235
C       -2.42473943       8.52792154       3.77800171      -0.00714349       0.00411565      -0.01067406
C        4.94143590      -0.00206090       3.63464934      -0.00150870       0.00455400       0.00184867
C        3.67812272       2.08424425       3.31451509      -0.00816307      -0.00120402      -0.01027793
S        1.62247720       6.21684502       3.41528502      -0.00864805      -0.01098909       0.00442339
C        0.04048497       8.53289155       3.68622309      -0.00812392       0.00274535       0.00785962
C        7.39574809       0.03147276       3.70873593       0.00809407       0.00681994       0.00321733
C        6.15379693       2.16009015       3.48842860      -0.00083643      -0.00186768       0.00219430
C        5.00201189       4.34357613       3.33276417       0.00104404       0.00524927       0.00353431
B        3.64361304       6.42595277       4.09114229       0.00547594       0.01067048       0.00696640
C        2.49522273       8.62191637       3.86241678       0.00266865      -0.00452081       0.00338223
C        9.88165201       0.03142574       3.87161008      -0.00793196      -0.00116761       0.00214718
C        8.62350591       2.15492792       3.73913858       0.00228254       0.00148416      -0.00315716
C        7.41003260       4.29029282       3.68076126       0.00450291      -0.00468113      -0.00659559
C        6.17831505       6.41788361       3.83347675       0.00149651      -0.00120993      -0.00488340
C        4.95369436       8.56980775       3.97692870       0.00447726      -0.00100082      -0.00159858
C        0.00510438       1.42993912       3.83250867       0.01072149      -0.00678571       0.00668376
C       -1.25092227       3.53557631       3.83888257      -0.00111922      -0.00539853       0.00551983
C       -2.43731546       5.68997641       3.80430322       0.00200708      -0.00418151      -0.00327662
C       -3.67014029       7.83086108       3.84495007       0.00167217       0.00467556      -0.00623896
C       -4.91474138       9.97372304       3.87312495      -0.00185589      -0.00300075      -0.00149787
C        2.44727178       1.43506564       3.61666520      -0.00130830      -0.00628047      -0.00274217
O        1.15970376       3.49270257       3.78126063       0.00125157       0.01022773      -0.01303074
C        0.01098705       5.58152425       3.72871768       0.01071351       0.00583915      -0.00066944
C       -1.18531348       7.80593992       3.72738908      -0.01287476      -0.00287691      -0.00162071
C       -2.44963834       9.96543602       3.72751779      -0.00342569       0.00231627      -0.00648043
C        4.92218196       1.43239614       3.47545459      -0.00583742       0.00307050       0.00285864
S        3.63140800       3.64429943       2.57366305      -0.00331291      -0.00080714       0.00452000
C        1.30252537       7.90138910       3.68795420      -0.00670017       0.00167623       0.01284992
C        0.01335802       9.97759748       3.67707001       0.00468150       0.00910295      -0.00156636
C        7.38238012       1.45551516       3.64510224       0.00464666       0.00544159       0.00751436
C        6.18184703       3.57820873       3.48264558       0.00212351      -0.00080686       0.00274396
C        4.94642728       5.69726672       3.70851769      -0.01164516       0.00664498      -0.00254181
C        3.70470400       7.91941509       3.98858045       0.00569925      -0.00181244       0.00338977
C        2.47105783      10.03853900       3.82820412       0.00096702      -0.00482222       0.01025942
C        9.86746100       1.44522162       3.82863004      -0.00258710      -0.00184374      -0.00116443
C        8.63217576       3.57201955       3.74958807       0.00036279      -0.00433152      -0.00379545
C        7.42092736       5.70772150       3.78382196       0.00536715      -0.00275402      -0.00257842
C        6.19058985       7.84057957       3.94101601       0.01095705       0.00055748       0.00559248
C        4.95127696       9.99939907       3.93029642      -0.00922220      -0.00226183      -0.00301408
Cu       2.58723731       5.53265042       5.52428696      -0.00331672       0.00131805       0.01115558
O        1.70638693       4.67967635       6.70660176       0.00316663       0.00352482      -0.00670545
