52
Lattice="12.336457 0.0 0.0 -6.168228499999997 10.683685154694365 0.0 0.0 0.0 15.0" Properties=species:S:1:pos:R:3:forces:R:3 energy=-442.90189198913583 free_energy=-442.90189198913583 stress="-0.00373806736115263 -0.0037838042887122616 1.463248480727811e-05 -0.0037838042887122616 -0.005830971785791933 7.019161757808666e-06 1.463248480727811e-05 7.019161757808666e-06 -1.2459298699417157e-05" pbc="T T T"
C       -0.02892871      -0.03112492       3.91619545       0.00066074      -0.00210427       0.00457121
C       -1.27878633       2.10641317       3.83824470       0.00292606       0.00281461      -0.00315938
C       -2.51236771       4.24837542       3.73637986      -0.00654648       0.00165577      -0.00076330
C       -3.72327439       6.38981850       3.75493624       0.00966973      -0.00147352      -0.01562059
C       -4.94858348       8.52149413       3.85500208      -0.00122444       0.00102915       0.00489444
C        2.44781540      -0.06618056       3.91428025       0.00456988      -0.00184375      -0.00119124
C        1.20723712       2.05480756       3.94446916      -0.00475766      -0.00950988      -0.00693461
C       -0.05492340       4.25470967       3.87235359      -0.00055701      -0.00573918       0.00317289
C       -1.27758866       6.39219057       3.86229554       0.00729292       0.00420265       0.00557937
C       -2.47443675       8.51574815       3.86243406      -0.00780027       0.01227043      -0.00343742
C        4.91009959      -0.02084185       3.76600818       0.01263971      -0.00270909       0.00017142
C        3.62870685       2.05961370       3.62597907      -0.00983851      -0.00505382       0.00650804
B        1.17088178       6.38222988       4.21663097       0.00483223       0.00784882      -0.00436548
C       -0.00507945       8.52473382       3.89880274       0.00184729      -0.00380552       0.00625780
C        7.37462556      -0.01236180       3.75271842      -0.00134339      -0.00202739      -0.00223166
C        6.11586856       2.14135829       3.57378987       0.00264744       0.00269363       0.01047597
C        4.91178336       4.37455762       3.39841708       0.00340841      -0.00416870      -0.00220718
O        3.77267975       6.48477019       3.60161862      -0.00880106      -0.00589222       0.00088407
C        2.48183049       8.52255043       3.87067037       0.00269334      -0.00401458      -0.01291132
C        9.84037656      -0.01780587       3.81551021      -0.01262133      -0.00699680      -0.00779349
C        8.59146720       2.12105895       3.69217842       0.00714163       0.00716946       0.00601379
C        7.35791522       4.26726567       3.60172608      -0.00189060       0.00798678      -0.00094980
C        6.17064667       6.43349805       3.63431503      -0.00185094       0.00071016       0.00359201
C        4.92926998       8.53879706       3.81800912      -0.00418763       0.00166106      -0.00180953
C       -0.04001741       1.39129059       3.92461747      -0.00231345      -0.00209339       0.00201700
C       -1.27549824       3.52758685       3.79711416      -0.00691038       0.00251309       0.00673474
C       -2.50607810       5.67253174       3.77104830       0.00883871      -0.00040881      -0.00081520
C       -3.70976082       7.80980172       3.83013406      -0.00297426       0.00107824      -0.00030559
C       -4.95973842       9.93548347       3.92278048       0.00315950       0.00148187       0.00106552
C        2.43045073       1.34056658       3.86918178      -0.00845383      -0.00735373       0.00107340
B        1.31068412       3.56198392       3.96366764       0.00799861      -0.00739087       0.00010273
C       -0.08621788       5.65647567       3.95112190       0.00779123      -0.00127357       0.00547188
C       -1.24001308       7.80991992       3.88325241      -0.00717287       0.00664317      -0.00044611
C       -2.47804280       9.93370991       3.85683194       0.00754093       0.00960338      -0.00535856
C        4.89066040       1.41141535       3.63409820      -0.00039312      -0.00223171       0.01220599
P        3.27611639       3.71281370       3.14829023      -0.00462019       0.00305241       0.00088244
C        1.24339767       7.83241053       3.98624829       0.00577425       0.00176666      -0.00655215
C       -0.02365098       9.95673956       3.79797834       0.00806842      -0.00736024       0.00112324
C        7.35389894       1.41837655       3.66206432       0.00560165       0.00597547       0.00596145
C        6.10697540       3.57932297       3.50680036       0.00313877       0.00368956       0.00148765
C        4.96384075       5.77182999       3.49202558      -0.00210582      -0.00265776      -0.00623197
C        3.72566846       7.84256524       3.78404346      -0.00013695      -0.00062340      -0.00929710
C        2.45077788       9.95054814       3.80474891      -0.01103812      -0.00732489      -0.00433551
C        9.82763783       1.40776375       3.78195338       0.00599538      -0.00452988      -0.00546620
C        8.59102564       3.54475344       3.66950636      -0.00652055       0.00741113      -0.00133925
C        7.38328466       5.68533761       3.65696371       0.00457837       0.00578981       0.00578714
C        6.16485390       7.83584291       3.77860666      -0.00328383       0.00392484      -0.00738406
C        4.90712514       9.95740834       3.86362180      -0.00508704       0.00148029       0.00373384
Cu       2.36436602       5.00584763       4.83551851       0.00499037      -0.00336155       0.00425499
O        3.55287157       5.55099160       6.18970942      -0.00447092       0.00038139      -0.00025276
O        3.17492106       4.59859373       7.21039065       0.00341625      -0.00460550       0.00132462
H        2.87194098       5.20392357       7.91380168      -0.01032120       0.00172018       0.00581177
