52
Lattice="12.336457 0.0 0.0 -6.168228499999997 10.683685154694365 0.0 0.0 0.0 15.0" Properties=species:S:1:pos:R:3:forces:R:3 energy=-443.64673318138847 free_energy=-443.64673318138847 stress="0.0006372548792523304 0.0009656213094773618 -1.1557836327306672e-05 0.0009656213094773618 -0.006100233736851933 -3.672663001147207e-05 -1.1557836327306672e-05 -3.672663001147207e-05 1.8754229157213774e-05" pbc="T T T"
C       -0.01471064       0.00707688       3.61928907       0.00586189      -0.00294346       0.00504163
C       -1.24159764       2.15505401       3.41372385      -0.00669939       0.00140149       0.00370094
C       -2.48900887       4.29328943       3.55676306      -0.00686361      -0.00010521       0.00345374
C       -3.73107943       6.41130966       3.76719284      -0.00594291      -0.00039145      -0.00920512
C       -4.96318262       8.53822826       3.80131605       0.00173658      -0.00418560       0.00155247
C        2.45097204      -0.03581931       3.73469464       0.00182829      -0.00144499       0.00084694
C        1.25880456       2.06971690       3.33409861      -0.00087993      -0.00274819       0.00131441
C       -0.03221637       4.31879861       3.40825789      -0.00333797       0.00429480       0.00280286
C       -1.25410855       6.41563029       3.89178866      -0.00231328       0.00387485      -0.00503114
C       -2.48060341       8.53765121       3.91831728      -0.01361639       0.00052860      -0.01432717
C        4.91663127       0.00564458       3.86427993       0.00318896      -0.00621511      -0.00165870
C        3.67654208       2.12076447       3.69705601      -0.00043417      -0.00207869       0.00251691
P        1.48188711       6.25033207       4.51177056      -0.00460894      -0.00919846       0.00094182
C       -0.01931799       8.57786409       4.09856239      -0.00097677       0.00427774      -0.00668771
C        7.37921627       0.04638869       3.85360768       0.00126085       0.01364244       0.00098460
C        6.14345985       2.15281374       3.70132152       0.00149472      -0.00938874      -0.00715578
C        4.86651494       4.26544017       3.70052430       0.00138692       0.00358355       0.00364151
B        3.58426427       6.41593367       4.19543909       0.00262216      -0.00873295       0.00167883
C        2.46360536       8.65850566       4.10154395      -0.00307199       0.00062877       0.00011159
C        9.86108244       0.05021644       3.71756406      -0.00085370      -0.00447087       0.00094347
C        8.61633199       2.16463594       3.58869134       0.00196238      -0.00650305       0.00013976
C        7.36338862       4.28819497       3.62737477       0.00776703      -0.00276266       0.00840550
C        6.11835150       6.41107029       3.80472342       0.00714067       0.00930467       0.00055676
C        4.91579489       8.58011117       3.88884897       0.00620184      -0.00402028      -0.00381979
C       -0.00454726       1.42818395       3.42981154      -0.00139675      -0.00097389      -0.01069364
C       -1.24854770       3.58054716       3.41116396      -0.00767035       0.00448813       0.00276299
C       -2.48973734       5.70801661       3.72958468      -0.00448201       0.00041576      -0.00310699
C       -3.72342069       7.83031186       3.84017840      -0.00794348      -0.00489013      -0.00703721
C       -4.95977772       9.95796566       3.71998190       0.00660047      -0.00631663       0.01224636
C        2.45910629       1.37169795       3.59914336      -0.00266905      -0.00070615       0.01755147
P        1.55947783       3.72348989       2.82774749       0.00604159       0.00418890       0.00394524
C       -0.03820911       5.66451458       3.84260533       0.00394669       0.00659533      -0.00832655
C       -1.24566239       7.83519314       4.00899137      -0.00978514       0.00810589       0.00043031
C       -2.48090513       9.95715343       3.86255956      -0.00182008      -0.00108501       0.00620230
C        4.91604067       1.42870051       3.76836246       0.00052103      -0.00926167       0.00437235
C        3.62274208       3.53890063       3.75198768      -0.01161954       0.00617795       0.01199637
C        1.24097598       7.95034080       4.26225908      -0.00260559      -0.00647818      -0.00007596
C       -0.01847490       9.99997111       3.95291395       0.00693063       0.00368377      -0.00834669
C        7.38255466       1.45620086       3.70479673       0.00385276       0.00401677      -0.00082003
C        6.12548862       3.57084934       3.63487042       0.00722107      -0.00508611       0.00449826
C        4.88588585       5.68110085       3.85649444       0.00723213       0.00724696      -0.00466769
C        3.67471613       7.92158422       4.07423399       0.00209961      -0.00365527      -0.00602332
C        2.45638530      10.05318306       3.89205983      -0.00612007       0.00461259      -0.00170705
C        9.86097735       1.46007570       3.55338362      -0.00275080      -0.00337786       0.00808698
C        8.60881169       3.58587425       3.56887583       0.00228210      -0.00890016      -0.00065559
C        7.36346865       5.70599152       3.71304354      -0.00253940       0.00122421       0.00527871
C        6.13557913       7.83883655       3.83728041       0.00661280       0.00189862      -0.00353628
C        4.92111479      10.00459091       3.74025491       0.00306368      -0.00417949      -0.00835129
Cu       2.79979978       4.67314661       5.12744860       0.00848371       0.00807059      -0.00036169
O        3.02519959       3.88915062       6.83721133      -0.00022730       0.00411507      -0.00498047
O        2.48507925       4.82240477       7.76824186      -0.00187949       0.00873318       0.00527716
H        3.28746094       5.06707732       8.26700832       0.00576754       0.00498964      -0.00470635
