51
Lattice="12.336457 0.0 0.0 -6.168228499999997 10.683685154694365 0.0 0.0 0.0 15.0" Properties=species:S:1:pos:R:3:initial_magmoms:R:1:forces:R:3 energy=-445.00224307959434 free_energy=-445.00224307959434 stress="-0.0007271886621079566 -1.3473207692646785e-05 -1.755903708002656e-05 -1.3473207692646785e-05 0.00452955119853912 -1.0947190348693153e-06 -1.755903708002656e-05 -1.0947190348693153e-06 1.5095991131519117e-05" pbc="T T T"
C       -0.00542963      -0.02159147       3.71033309       0.00000000      -0.00574343      -0.00252082       0.00625084
C       -1.24491658       2.10751114       3.68157166       0.00000000       0.00543999       0.00324814       0.00850668
C       -2.47095624       4.24556750       3.60654315       0.00000000       0.00105805      -0.00476842      -0.00290794
C       -3.70328298       6.38416631       3.60370500       0.00000000       0.00173954       0.00349411       0.00662035
C       -4.93981677       8.52870641       3.65990236       0.00000000      -0.00193116       0.00038420      -0.00320834
C        2.46562491      -0.00149247       3.74446105       0.00000000      -0.00236429       0.00361724       0.00661712
C        1.22432969       2.14654370       3.83440740       0.00000000      -0.00224708       0.00106097      -0.00963308
C        0.00140386       4.27111803       3.72711578       0.00000000      -0.00009929       0.00265038       0.00264514
C       -1.23690285       6.39186953       3.61314039       0.00000000       0.00034688       0.00038955       0.00443800
C       -2.46538500       8.52861965       3.65551593       0.00000000      -0.00292626       0.00153229      -0.00325741
C        4.93684103      -0.02166435       3.70495149       0.00000000       0.00140148      -0.00847156      -0.00046954
C        3.70652088       2.14618183       3.83301728       0.00000000       0.00340506       0.00436163      -0.00758739
O        1.14779873       6.40550984       3.71884768       0.00000000       0.00404226      -0.00712786       0.00981166
C        0.00480041       8.50147813       3.66205835       0.00000000      -0.00397469       0.00093765      -0.00683544
C        7.41037080      -0.05694359       3.67364094       0.00000000       0.00241064       0.00568176       0.00131237
C        6.17572346       2.10752910       3.67827258       0.00000000      -0.00706707      -0.00099783       0.00016624
C        4.92841199       4.27087549       3.74062401       0.00000000       0.00249914       0.00242438       0.00159876
O        3.78532125       6.40774372       3.78978533       0.00000000      -0.00400796      -0.00331223      -0.00792028
C        2.46588428       8.42937827       3.69400879       0.00000000      -0.00370936      -0.00167567       0.00382764
C        9.85693019      -0.05654802       3.67974483       0.00000000       0.00251128       0.00075327      -0.00645365
C        8.63354366       2.09691729       3.63494903       0.00000000       0.00079101      -0.00222986      -0.00296474
C        7.40103311       4.24524204       3.60740513       0.00000000      -0.00112959       0.00410313       0.00490049
C        6.16702083       6.39224904       3.62695761       0.00000000      -0.00389142      -0.00127981       0.00312500
C        4.92647948       8.50184306       3.67566104       0.00000000       0.00485076      -0.00221838      -0.00159430
C       -0.01009968       1.40589535       3.73913619       0.00000000      -0.00104074      -0.00331367      -0.01016076
C       -1.23652712       3.53938762       3.65378906       0.00000000       0.00323039       0.00106846      -0.00533106
C       -2.47271953       5.66892810       3.60014089       0.00000000       0.00125152      -0.00254540       0.00179234
C       -3.70274541       7.81458374       3.63688594       0.00000000      -0.00099707       0.00316064      -0.00418297
C       -4.93554736       9.95932981       3.70683478       0.00000000      -0.00463945       0.00062526       0.00618085
C        2.46500749       1.42701862       3.83125856       0.00000000       0.00244979       0.00671923      -0.00507485
C        1.17686227       3.54348134       3.93842529       0.00000000      -0.00623761      -0.00194658       0.00247297
C       -0.03426017       5.69958251       3.65744592       0.00000000       0.00245926      -0.00015833      -0.00594498
C       -1.23982074       7.81285030       3.63778411       0.00000000      -0.00391383       0.00123878       0.00215869
C       -2.46948578       9.95930342       3.70383064       0.00000000      -0.00263454      -0.00094302       0.00416250
C        4.94141388       1.40556785       3.73329750       0.00000000      -0.00185306      -0.00783271       0.00676248
C        3.75407243       3.54087164       3.94297701       0.00000000       0.00232463       0.00520774      -0.00210202
C        1.19930731       7.78327652       3.67420051       0.00000000      -0.00526845      -0.00408628      -0.00204202
C        0.00338911       9.93424828       3.67902281       0.00000000       0.00465558       0.00088556      -0.00207589
C        7.40769441       1.38032242       3.65589121       0.00000000      -0.00433489       0.00420036       0.00402977
C        6.16688312       3.53920267       3.65546678       0.00000000      -0.00052491       0.00099995       0.00325507
C        4.96505821       5.70026237       3.68562459       0.00000000      -0.00293576      -0.00159500       0.00336151
C        3.73256142       7.78401655       3.69961339       0.00000000       0.00190859       0.00012397      -0.00952150
C        2.46558208       9.88051397       3.68074922       0.00000000       0.00075849       0.00187269       0.00018140
C        9.85957377       1.38063161       3.66017202       0.00000000       0.00607387       0.00222578      -0.00170742
C        8.63343120       3.52696675       3.60666059       0.00000000      -0.00149950      -0.00228973       0.00525481
C        7.40264907       5.66870455       3.60464365       0.00000000      -0.00184494       0.00594176       0.00125650
C        6.17087113       7.81323797       3.64917504       0.00000000       0.00157045      -0.00367191       0.00649697
C        4.92766191       9.93479113       3.68681453       0.00000000      -0.00132446      -0.00296143      -0.00258797
Cu       2.46409579       4.55257085       4.70572337       0.00000000       0.01134678      -0.00575167       0.01098558
O        3.12653977       5.54580368       6.24071025       1.00000000       0.00056803      -0.00031928      -0.00518565
O        1.83495607       5.67349098       6.16859683       1.00000000       0.00904737       0.00310855      -0.00942250
