52
Lattice="12.336457 0.0 0.0 -6.168228499999997 10.683685154694365 0.0 0.0 0.0 15.0" Properties=species:S:1:pos:R:3:forces:R:3 energy=-444.84278929178345 free_energy=-444.84278929178345 stress="0.004216853393374647 0.0019259339550075254 1.8022340266939182e-05 0.0019259339550075254 0.0012363994723020512 -6.971579542301529e-05 1.8022340266939182e-05 -6.971579542301529e-05 -1.0871358145420108e-05" pbc="T T T"
C        0.03655121      -0.01772490       3.74303103      -0.00769436       0.00089396       0.00175459
C       -1.18627745       2.13193069       3.69567371       0.00021766      -0.00394476      -0.00640296
C       -2.41478448       4.26692501       3.67751910       0.00382727       0.00297761      -0.00094681
C       -3.66782477       6.38742917       3.70537472       0.00866790       0.00419539      -0.00576639
C       -4.91976235       8.51598175       3.75607652      -0.00396346      -0.00066034       0.00606978
C        2.49307419       0.01553817       3.70185015      -0.00215020      -0.00847463      -0.00104203
C        1.24414048       2.12665441       3.71995196       0.00068905       0.00332201      -0.01062801
C        0.04886596       4.23062004       3.80174834      -0.00004202       0.00526005      -0.00408704
C       -1.15890652       6.37405065       3.78271455       0.00438610      -0.00417034       0.00611946
C       -2.44460183       8.52394708       3.72841503      -0.00274229      -0.00719911      -0.00385198
C        4.95418166      -0.01907185       3.66133304       0.00921641       0.00001317       0.00135868
C        3.76183278       2.11610165       3.64391424       0.00111025      -0.00004472       0.00009621
C        1.31519935       6.42131758       4.17531807      -0.01066521       0.00676986      -0.00929602
C        0.01930025       8.53127946       3.80016404      -0.01060371      -0.00654880      -0.00918277
C        7.42591600      -0.00488121       3.68211118      -0.00387217       0.00209612       0.00849489
C        6.20564870       2.11074787       3.57174719      -0.00026384      -0.01233712       0.00113695
C        4.99204004       4.17790296       3.65526991       0.00324888      -0.00243229      -0.00600229
P        3.39281751       6.20470364       4.34715421      -0.00621042      -0.00321416      -0.00639913
C        2.47003877       8.58282416       3.92523311       0.00493490       0.00651739      -0.00355485
C        9.90699550      -0.00179620       3.74447564      -0.00223740      -0.00042584      -0.01107203
C        8.67799313       2.12893520       3.62499376      -0.00277334      -0.00426177      -0.00594128
C        7.44372143       4.25720404       3.60927551      -0.00554579      -0.00191191       0.00071234
C        6.16036351       6.35737060       3.76745921       0.00613659       0.00270872       0.00090558
C        4.95355588       8.52557675       3.88661702       0.01232077       0.00573177      -0.00653381
C        0.04800120       1.42026110       3.71341414       0.00201214      -0.00016195       0.00322698
C       -1.17225756       3.55294178       3.71067360       0.00366380      -0.00058744      -0.00611691
C       -2.41134899       5.68238026       3.71128278       0.00987957       0.00299306       0.00431032
C       -3.67854546       7.81117999       3.72883796      -0.00288238      -0.00072040       0.00571665
C       -4.90279270       9.95734962       3.73814269      -0.01011401      -0.00447118       0.00773687
C        2.49906235       1.46357290       3.68578331       0.00062632      -0.00272424       0.00120893
O        1.21201345       3.50171401       3.79933263      -0.00308139       0.00556509       0.00371892
C        0.10702661       5.65664658       3.89276738      -0.00007139       0.00326751       0.00632993
C       -1.20451320       7.80752942       3.77279091      -0.00688997      -0.01120093      -0.00169716
C       -2.44964412       9.96077019       3.69709188       0.00806165      -0.00430022       0.00683803
C        4.95777247       1.41046195       3.60971950       0.00117362      -0.00162406      -0.00523398
O        3.80037315       3.48929330       3.66525834      -0.00244749       0.00144155      -0.00399124
C        1.25329505       7.83029903       3.94851825      -0.00552041       0.00470228       0.00202461
C        0.02256116       9.95725016       3.70472878       0.00164784      -0.00554319      -0.00250889
C        7.43361491       1.41427987       3.60780571      -0.00221289      -0.00515726       0.00895343
C        6.21182494       3.52158445       3.56525131      -0.00209771      -0.01351742       0.00588186
C        4.93424663       5.57842982       3.80198866       0.00393764       0.00012184       0.00430780
C        3.68803044       7.87282616       4.02986506       0.01016730       0.00367535      -0.00515205
C        2.49234895       9.98802093       3.76814559      -0.00243003       0.00800928      -0.00251524
C        9.91931417       1.42334949       3.67897120      -0.00195194      -0.00318789      -0.00458524
C        8.68392745       3.55279800       3.62059558      -0.00190824      -0.00032189       0.00912430
C        7.42266749       5.67440143       3.68135782       0.00399469       0.00340756       0.00634188
C        6.17482361       7.79324001       3.81594368       0.00707034       0.00276006       0.00766924
C        4.96643599       9.95556652       3.79259456      -0.00232437       0.00355888       0.00225733
Cu       2.07632147       5.61714829       5.80597362       0.00213273       0.00247608       0.00410377
O        1.69701339       5.02892995       7.53131567      -0.00116732       0.01136365       0.00575337
O        1.77548845       6.29954909       8.25375587       0.00632441       0.00332492      -0.00011591
H        2.46316706       6.05432807       8.90018063      -0.01158410       0.01199070       0.00047131
