49
Lattice="12.336457 0.0 0.0 -6.168228499999997 10.683685154694365 0.0 0.0 0.0 15.0" Properties=species:S:1:pos:R:3:forces:R:3 energy=-435.4707391058905 free_energy=-435.4707391058905 stress="-0.007010620990571511 0.0007216302257724704 6.629077790668681e-06 0.0007216302257724704 0.0007377942293942396 9.217582641832221e-06 6.629077790668681e-06 9.217582641832221e-06 7.281583642738541e-07" pbc="T T T"
C       -0.00517732       0.01247979       3.79104414      -0.00407488      -0.00813407      -0.00019144
C       -1.24542592       2.12598770       3.92741944      -0.00870513       0.00564237       0.01423235
C       -2.47677888       4.27229548       3.97651140      -0.00191166      -0.00232038      -0.00733044
C       -3.70602814       6.41793731       3.85939637       0.00575338       0.00221321      -0.00097545
C       -4.93839838       8.56358399       3.72082265       0.00136600      -0.00093234       0.00293289
C        2.46283459       0.03919521       3.80710114       0.01187168       0.00042741       0.00351217
C        1.22689232       2.18616646       3.82477075      -0.00458766       0.00582195      -0.00401526
C       -0.02647100       4.27603311       3.93065420      -0.00275382      -0.00470615       0.00288314
C       -1.26184629       6.43161384       3.95775842       0.00245172      -0.00276478       0.00266482
C       -2.48178497       8.56834899       3.87980476       0.00611418       0.00076357      -0.00700497
C        4.93638760       0.00724773       3.85870478      -0.00429384      -0.00144037      -0.00102906
C        3.71374134       2.17763612       3.71241022      -0.00094666       0.00156228       0.00082946
N        1.14156835       6.40662982       3.80343433      -0.00868893       0.00320167      -0.00189604
C       -0.01102095       8.53050336       3.86518347       0.00011470       0.00661167       0.00579202
C        7.40658095      -0.02766174       3.88916431      -0.00221149      -0.00189515      -0.00493982
C        6.19108548       2.11487464       3.83560171      -0.00275415      -0.00006766      -0.00378441
C        5.00632089       4.23026427       3.47795344      -0.00356066       0.00301221       0.00624035
P        3.67955695       6.36979135       2.41479462       0.01257355       0.01258902       0.00110887
C        2.45469926       8.51326049       3.64448630       0.00359790      -0.00359571       0.00017049
C        9.86359692      -0.02227680       3.82935240      -0.00163027      -0.00343913       0.00638751
C        8.63878277       2.11822789       3.94011977       0.00738816      -0.00391983      -0.00223944
C        7.42540361       4.26480117       3.81725324       0.00549855       0.00298484      -0.01072838
C        6.20966538       6.41182790       3.49790489      -0.00008968       0.00203176       0.00820684
C        4.93711240       8.55214240       3.53096902      -0.00736460      -0.00679630      -0.00629395
C       -0.01382609       1.43390400       3.86086532      -0.01037864      -0.00131303       0.00331218
C       -1.25895634       3.55060172       3.97399323      -0.00815455       0.00154229       0.01128125
C       -2.48196369       5.70285056       3.95471002       0.00313294      -0.00305487      -0.00445756
C       -3.70942848       7.84924259       3.82517214       0.00730559       0.00139657      -0.00524447
C       -4.93580652       9.99352138       3.77211305       0.00923773      -0.00041949       0.00123515
C        2.46742507       1.46465071       3.78035921      -0.00116893       0.00175712      -0.00351771
C        1.16147961       3.58388296       3.82332149       0.00841485       0.01095377      -0.00517893
C       -0.03458059       5.73236003       3.92365513       0.00366756      -0.00505348       0.00469973
C       -1.25224978       7.84944853       3.91593889       0.00260608      -0.00001509      -0.00436703
C       -2.47535780       9.99484845       3.84632492       0.00622075      -0.00244049       0.00454893
C        4.95287942       1.42513915       3.80601722      -0.00310843      -0.00281908      -0.00265140
C        3.78649713       3.55938460       3.53818218      -0.00826402       0.00280119       0.01155132
C        1.20423032       7.77878697       3.76082550       0.00137752       0.00311329       0.00838006
C       -0.00087798       9.95618025       3.87723089      -0.00665242       0.00503700      -0.00187976
C        7.41520361       1.39653738       3.90911196       0.00269991      -0.00123013       0.00023689
C        6.21916559       3.52964399       3.73065437      -0.00171862       0.00511504      -0.01035777
C        5.05320662       5.64919004       3.23640977       0.01427205      -0.00199194      -0.00301720
C        3.68730389       7.87636537       3.34572084      -0.00258486       0.00155299      -0.00959863
C        2.46237920       9.93523498       3.81574327       0.00040387      -0.00624403       0.00232793
C        9.86202184       1.40170845       3.91903041       0.00333750       0.00066033       0.00691173
C        8.64088105       3.55051378       3.93789087       0.00661512      -0.00613416      -0.01101261
C        7.42168450       5.69506766       3.74286132       0.00088069       0.00548161       0.00141601
C        6.18002485       7.84570962       3.55007659      -0.00770685       0.00022798       0.00801125
C        4.93306023       9.96846693       3.73310508      -0.00831377      -0.01106161      -0.00315490
Cu       2.45170072       4.91439853       3.58279012      -0.01527746      -0.00471188      -0.00400668
