52
Lattice="12.336457 0.0 0.0 -6.168228499999997 10.683685154694365 0.0 0.0 0.0 15.0" Properties=species:S:1:pos:R:3:forces:R:3 energy=-449.0450334059767 free_energy=-449.0450334059767 stress="-0.0012697200093759963 5.999801330874891e-05 -6.668112166324844e-06 5.999801330874891e-05 0.0048552823653893774 1.588508776183113e-05 -6.668112166324844e-06 1.588508776183113e-05 -6.7437314305549804e-06" pbc="T T T"
C        0.04607904      -0.06781133       3.79891852       0.00145243      -0.00296683       0.00437304
C       -1.19393358       2.05727707       3.75896324       0.00139039       0.00394649       0.00302188
C       -2.41740828       4.19621909       3.69124922      -0.00899432       0.00192872       0.00391325
C       -3.64962052       6.33703466       3.69997415      -0.00327141      -0.00129644      -0.00030222
C       -4.88559761       8.48360124       3.75545933      -0.00207300       0.00357157      -0.00513346
C        2.51818918      -0.04254033       3.84883295      -0.00392201       0.00162889      -0.00548384
C        1.27563939       2.10714218       3.93171706      -0.00116987      -0.00362706      -0.00897533
C        0.05748263       4.22011941       3.81004130       0.00486180      -0.00030450      -0.00359776
C       -1.18913390       6.34643180       3.70310471       0.00421488       0.00383088      -0.00081989
C       -2.41417614       8.48448578       3.75175734      -0.00944595      -0.00272438      -0.00442694
C        4.98909330      -0.06610065       3.77869281       0.00147406       0.00155685       0.00607707
C        3.76033313       2.10994415       3.91788828      -0.00076177      -0.00922862       0.00115799
O        1.19158265       6.36341702       3.77121613      -0.00051601      -0.00455374       0.00110474
C        0.05279825       8.45686415       3.70868126       0.00950385      -0.00019642       0.00638225
C        7.46355533      -0.10730727       3.71868137       0.00014015       0.00186308      -0.00308704
C        6.22979777       2.05720524       3.73628807       0.00813861       0.00505659       0.00261186
C        4.97710316       4.21933963       3.77479466       0.00682515      -0.00638925      -0.00045469
O        3.84224856       6.35800432       3.67238118      -0.00978179       0.00672603       0.00360185
C        2.51831625       8.37767966       3.69022824      -0.00285752       0.00371373       0.00860840
C        9.90887019      -0.10737182       3.73016229      -0.00177680      -0.00100529       0.00150591
C        8.68695187       2.04669630       3.69717202      -0.00733447      -0.00282054       0.00098799
C        7.45467551       4.19559460       3.67707658       0.00298716       0.00489136      -0.00972175
C        6.22528920       6.34533003       3.67972121       0.00178277       0.00264887       0.01028704
C        4.98065619       8.45474402       3.71824548       0.00087815      -0.00019683      -0.00776637
C        0.03742667       1.35646714       3.82767117       0.00063309      -0.00197121       0.00110418
C       -1.18793908       3.48713293       3.73536151      -0.00223237       0.00484626      -0.00708714
C       -2.42041816       5.62129000       3.69605545      -0.00003453       0.00386540      -0.00519840
C       -3.64949249       7.76828405       3.73797786      -0.01027671      -0.00388510      -0.00769776
C       -4.88201236       9.91495872       3.80917810      -0.00039578       0.00174701      -0.01119308
C        2.51837821       1.38681293       3.93050246      -0.00402388      -0.00227670      -0.01183034
C        1.22630050       3.49710161       4.02636087      -0.00174869      -0.00675045      -0.00139635
C        0.01636577       5.65186927       3.72889494       0.00194763      -0.00106722      -0.00808571
C       -1.19143426       7.76786752       3.71983309       0.00210681       0.00545363      -0.00605205
C       -2.41825519       9.91592417       3.79678554      -0.00466276      -0.00040000       0.00907232
C        4.99780865       1.35823741       3.80607180       0.00736428       0.00240445      -0.00039708
C        3.80925446       3.50154722       4.01228994       0.00809344      -0.01201730       0.01289507
C        1.24782890       7.73597293       3.68094820       0.00432995      -0.00719964       0.01105543
C        0.05449180       9.88714351       3.73100777       0.00496571       0.00183115       0.00763473
C        7.46208632       1.32921009       3.71086802      -0.00283066      -0.00106660       0.00087733
C        6.22421282       3.48674954       3.70837941       0.01110708       0.00252478       0.00419578
C        5.01878127       5.65110742       3.68604155      -0.00204443       0.00169967      -0.00380725
C        3.78650721       7.73356045       3.67449099      -0.00369900       0.00853533       0.00067045
C        2.51830807       9.82942015       3.71198694      -0.00303737       0.00217042       0.00173703
C        9.91106540       1.32940914       3.72377131      -0.00303453       0.00082158      -0.00090677
C        8.68726127       3.47777868       3.68146888      -0.00935508      -0.00188080      -0.00147355
C        7.45751147       5.62045207       3.68203855       0.00134730       0.00210896       0.00405303
C        6.22706485       7.76680311       3.71613505       0.00317221       0.00413137      -0.00161246
C        4.97996950       9.88595554       3.75095607       0.00071247      -0.00246593      -0.00372609
Cu       2.50954225       4.61383382       4.73303104       0.00924201       0.00449412       0.01596249
O        2.72032298       6.06773094       5.96576426      -0.00342989      -0.01627939       0.00049877
O        1.39493487       6.16224662       6.47278460       0.00567427       0.00666591      -0.01095655
H        1.55363289       6.07632969       7.43809087      -0.00163505      -0.00209283       0.00779999
