52
Lattice="12.336457 0.0 0.0 -6.168228499999997 10.683685154694365 0.0 0.0 0.0 15.0" Properties=species:S:1:pos:R:3:forces:R:3 energy=-443.5175722245499 free_energy=-443.5175722245499 stress="-0.00479026359710901 0.0013713307141716379 -8.345914375180468e-06 0.0013713307141716379 -0.0018263582841129883 9.585561608530304e-06 -8.345914375180468e-06 9.585561608530304e-06 2.0713478689428573e-05" pbc="T T T"
C        0.06912962       0.05291059       3.74570897       0.00040054      -0.00598604       0.00930172
C       -1.15843157       2.19308480       3.65309842      -0.00203943      -0.00475309      -0.00244482
C       -2.40286151       4.33020240       3.82328266      -0.00369192      -0.00111480      -0.00042551
C       -3.64034261       6.46715516       3.89321290      -0.00012236       0.00191416       0.00627203
C       -4.88166039       8.59622662       3.81280753      -0.00255484       0.00231851       0.00129874
C        2.52955654       0.06355336       3.87615136      -0.00089128      -0.00473570       0.00062090
C        1.31789058       2.12589673       3.45337614       0.00106455       0.00397991      -0.00740208
C       -0.01246473       4.38175980       3.43148674       0.00096441       0.00138045       0.00348576
C       -1.19933303       6.48503724       3.87024740       0.00532486      -0.00362322      -0.00208936
C       -2.41780268       8.61417447       3.96235107      -0.00318876      -0.00719266      -0.00141248
C        5.00101774       0.05870045       3.99684231       0.00439303       0.00143582       0.00428320
C        3.76883466       2.24104990       3.88693995      -0.00249636       0.00002295      -0.00302715
C        1.25201883       6.45435263       3.86906483      -0.00047753      -0.00239404      -0.00310238
C        0.05934085       8.59305333       3.96535882       0.00229284       0.00018648      -0.00111926
C        7.47664366       0.04203398       3.97786161       0.00518526       0.00752888       0.00102211
C        6.25582502       2.17232884       3.99257099       0.00148083       0.00337391       0.00256804
C        5.02528339       4.29134342       3.78948407      -0.00471456      -0.00141568       0.00160777
S        3.68785015       6.37562672       2.78012194      -0.00291774       0.00411177      -0.00634520
C        2.53444576       8.59143003       3.78347641       0.00340437      -0.00047308       0.00110887
C        9.94279512       0.04789643       3.82148087      -0.00023587       0.00265237       0.00205961
C        8.71922635       2.18224506       3.90509571      -0.00739425       0.00020594       0.00887214
C        7.48809160       4.31828834       3.90467626       0.00045422       0.00054686      -0.00080733
C        6.24877582       6.45405589       3.67880751      -0.00227976       0.00346719       0.01926249
C        5.00206835       8.59478224       3.64601868       0.00335003      -0.00032940      -0.00315744
C        0.06898219       1.47869308       3.61765984       0.00215784      -0.00571937       0.00032423
C       -1.17381921       3.61950378       3.63832072       0.00019861      -0.00065598       0.00778419
C       -2.41170196       5.75582253       3.87614939       0.00163310       0.00004615      -0.00071543
C       -3.64456800       7.89283761       3.89858259      -0.00630732       0.00031511      -0.00546965
C       -4.87078210      10.02815449       3.81426580       0.00039885      -0.00358356      -0.00429870
C        2.53344625       1.48704617       3.76620984      -0.00110354      -0.00200435      -0.00503362
S        1.35821125       3.66659412       2.66652544       0.00528810       0.00941455      -0.00017452
C        0.05079922       5.77982193       3.72209442       0.00214872      -0.00039672      -0.00932576
C       -1.18439628       7.90148959       3.96058863       0.00226013      -0.00438765       0.00874275
C       -2.40660311      10.03445892       3.96540161       0.00035850      -0.00553208       0.01370597
C        5.00930629       1.48362282       3.98183328       0.00252658       0.00269505      -0.00359502
C        3.81202013       3.62455479       3.91335878      -0.01057486       0.00307163       0.00461552
C        1.29960761       7.83619521       3.87214036       0.00202199      -0.00284090       0.00359309
C        0.06791676      10.01804834       3.99769837       0.00769680       0.00367428      -0.00064741
C        7.49013327       1.46165387       3.98063374      -0.00268415       0.00434865      -0.00179631
C        6.27436460       3.58890249       3.92163369       0.00089443       0.00131026       0.00069259
C        5.08590797       5.68681501       3.50981202      -0.00063453      -0.00046753      -0.00462170
C        3.75146073       7.94575506       3.49991377       0.00186693       0.00112827      -0.00760993
C        2.54082927      10.01495724       3.88997179       0.00224795       0.00318615      -0.00123658
C        9.95525699       1.47963425       3.80829832      -0.00770341       0.00233429       0.00286185
C        8.71769242       3.60724427       3.89940397      -0.00412299      -0.00295418      -0.00164524
C        7.48073638       5.74260827       3.84425029       0.00009906       0.00148928       0.00040081
C        6.23025972       7.88118448       3.67836801       0.00273988       0.00301809      -0.00406683
C        5.00190668      10.02313807       3.75511317      -0.00065459      -0.00226357      -0.00512359
Cu       2.49660951       5.00522941       4.36014120      -0.00407652      -0.00378644       0.00164557
O        2.17735060       4.90897621       6.23697703       0.00238880      -0.00138626      -0.00697196
O        1.11563229       3.95657600       6.45943977       0.00323528      -0.00638263      -0.00334028
H        1.54886408       3.39295636       7.13197634       0.00239009       0.00522197      -0.00912440
