52
Lattice="12.336457 0.0 0.0 -6.168228499999997 10.683685154694365 0.0 0.0 0.0 15.0" Properties=species:S:1:pos:R:3:forces:R:3 energy=-440.5380123783882 free_energy=-440.5380123783882 stress="-0.0049263700744602784 -0.0015308375145304096 2.950861249302598e-05 -0.0015308375145304096 -0.00440659392249714 -2.456593577579311e-06 2.950861249302598e-05 -2.456593577579311e-06 2.7977702253016107e-05" pbc="T T T"
C        0.06524877      -0.00388862       3.97557121       0.00569471      -0.00564218      -0.00601026
C       -1.18710337       2.11840917       3.70241144      -0.01589064       0.00179330      -0.00610826
C       -2.41407062       4.27080086       3.85616789      -0.00036393      -0.00611018      -0.00710789
C       -3.61115337       6.41556200       4.09547007      -0.00020551       0.00222845       0.00373986
C       -4.84408921       8.56081043       4.16932326      -0.00059201      -0.00846528      -0.00469065
C        2.53294326      -0.01265061       3.86844652       0.00134917      -0.00187952       0.00560802
C        1.25357560       1.99293514       3.24776470      -0.00983045       0.00651891       0.01515937
C       -0.13777038       4.25922039       3.03649905       0.00448328      -0.00235470       0.00029335
C       -1.19673617       6.41345993       3.61599828       0.00154478       0.00377110      -0.00350704
C       -2.38341887       8.54534002       3.96434948      -0.00045617      -0.00293804      -0.01165489
C        5.00172795       0.00401446       3.88411261      -0.00528503      -0.00920286      -0.00739590
C        3.75485408       2.07586115       3.48769152       0.01103483      -0.00614103      -0.00451779
P        1.43991816       6.43680818       2.63297492      -0.00266658      -0.00491670      -0.00788945
C        0.06713944       8.55799385       3.75596283       0.01064453       0.00486988      -0.01126574
C        7.46648263       0.00653301       3.98227567      -0.00240238       0.00516326       0.01014241
C        6.23187549       2.14406604       3.88890627       0.00394259       0.00330194       0.00259988
C        5.09295604       4.33962097       3.81802031      -0.00892129       0.01227211       0.00473888
C        3.82766301       6.42877363       3.99209098       0.00271927       0.00487464      -0.01274667
C        2.54002058       8.56342487       3.91944586       0.00430939       0.00587426      -0.00170561
C        9.93791857       0.00163357       4.05302546       0.00884153       0.00566255       0.00300624
C        8.69959402       2.13924991       4.00486881      -0.00273807      -0.01198823      -0.00297438
C        7.48847517       4.28382015       4.09739012       0.00608248      -0.00046445       0.00761320
C        6.28011956       6.44052356       4.23103245      -0.00369136       0.00563224      -0.00505364
C        5.01580846       8.55259488       4.17311944      -0.00162519      -0.00092890       0.00042790
C        0.04498350       1.39427387       3.65929600      -0.01407477      -0.00109221       0.00127392
C       -1.22763843       3.53287406       3.54433814       0.00278839       0.00080979       0.00367486
C       -2.40326904       5.69817157       3.87869987       0.00109756      -0.00165027       0.00977048
C       -3.61367427       7.84171702       4.09950321       0.00100530      -0.00184647       0.00226934
C       -4.86135723       9.97545045       4.02875732       0.00821282      -0.01053489      -0.00035440
C        2.51517155       1.37805673       3.53292747      -0.00161059       0.00493316       0.01396555
S        1.11113950       3.37820615       2.19466230       0.00287376       0.01138837       0.01017664
C       -0.07870329       5.66971633       3.14542235       0.00296655      -0.00323694       0.00338638
C       -1.16424517       7.83553978       3.77147850       0.00954149       0.00738491       0.00732189
C       -2.39355651       9.97109028       3.93046450      -0.00466438      -0.00771150      -0.00771962
C        4.99418971       1.43227346       3.76660432       0.00671367      -0.00738396       0.01459101
P        3.73736754       3.72788603       2.90872284       0.00147370      -0.00675238      -0.00754270
C        1.32099136       7.90936835       3.59191496       0.01282428      -0.00788005      -0.00158868
C        0.06622054       9.97923756       3.90847910      -0.00239532       0.00093438       0.00040348
C        7.46152258       1.43153899       3.99067397      -0.00101158      -0.00210001      -0.00307837
C        6.26036213       3.57031761       3.95455395      -0.00083057       0.01008586      -0.00711023
C        5.05168582       5.74831519       4.05991850      -0.00358899       0.00967320       0.00896311
C        3.77869380       7.82573487       4.04455443      -0.00022803       0.00020125       0.00138831
C        2.53452022       9.97817553       4.03031587       0.00478020       0.01102812       0.00477839
C        9.93854362       1.42522873       3.95241682      -0.00635816       0.00170885       0.00739125
C        8.70431627       3.56320760       4.02335699       0.00400576      -0.01454938       0.00695719
C        7.49757629       5.70774055       4.17946687      -0.00258305       0.00461999      -0.00273768
C        6.25999767       7.85770447       4.23737408      -0.00559890      -0.00028132      -0.00483891
C        5.00439416       9.97177980       4.09979688       0.00669524      -0.00068917      -0.00125475
Cu       2.45806633       5.14144212       4.15056583      -0.01073285      -0.00236258      -0.00664086
O        1.55648258       4.45581470       5.68465521      -0.00235740       0.00565975      -0.00738078
O        1.74728237       5.55468948       6.61235874      -0.01056359      -0.00674319      -0.00145491
H        2.09565595       5.05754531       7.37907349      -0.00435850       0.00545610      -0.00531080
