52
Lattice="12.336457 0.0 0.0 -6.168228499999997 10.683685154694365 0.0 0.0 0.0 15.0" Properties=species:S:1:pos:R:3:forces:R:3 energy=-446.1379443756607 free_energy=-446.1379443756607 stress="-0.004117775760463265 -0.0030576369674701546 4.137623160513179e-06 -0.0030576369674701546 0.002672621086978031 3.889276994518129e-05 4.137623160513179e-06 3.889276994518129e-05 -6.751597630375758e-06" pbc="T T T"
C       -0.05220634      -0.00515970       3.87499576      -0.00018722       0.00561769       0.00080070
C       -1.31484103       2.10178489       3.92657076      -0.00268773       0.00657450      -0.00728070
C       -2.54288285       4.24629911       3.89600679      -0.00090421      -0.00177169       0.00481550
C       -3.74210044       6.40026177       3.83514703      -0.00417198      -0.01029962      -0.00229087
C       -4.97145209       8.55055412       3.83041192      -0.00006779      -0.00081197       0.00529777
C        2.42185987       0.00089874       3.84781639      -0.00447867       0.00963706       0.00597042
C        1.17294329       2.16377747       3.92135929      -0.00133094      -0.01047078       0.01000443
C       -0.08570380       4.23437439       4.06833580      -0.00207449      -0.00439317       0.00535304
C       -1.30823690       6.39735208       3.96408600      -0.00294002       0.00147857      -0.00364790
C       -2.51264550       8.54042791       3.87367774       0.00421511       0.00713883      -0.00120414
C        4.88921816      -0.02195614       3.72072627      -0.00478262      -0.00064115       0.00021088
C        3.62062695       2.07294879       3.44441652       0.00649613       0.00406082       0.00197458
C        1.12516363       6.35547381       4.08621453       0.00311331      -0.00700581      -0.00649316
C       -0.03612901       8.49963831       3.86664753       0.00854305      -0.00077692      -0.00556746
C        7.35306629      -0.04719998       3.72571715      -0.00079427       0.00043945       0.00279312
C        6.10452765       2.12602674       3.52912555      -0.00164451       0.00638076       0.00869126
C        4.96709862       4.36345374       3.25739215       0.00247814       0.00197825       0.00030691
O        3.78231988       6.45953195       3.38344479       0.01049638      -0.00070754       0.00249397
C        2.45185428       8.45807262       3.76882481      -0.00075220      -0.00682964      -0.00532361
C        9.80687486      -0.04517346       3.79674495       0.00265027       0.00015195      -0.00123271
C        8.56557425       2.10481240       3.75620103       0.00005037       0.00564011       0.00005880
C        7.35329471       4.26527445       3.65976585       0.00330916      -0.00193421      -0.00668702
C        6.16877153       6.43504609       3.59742878      -0.00089220       0.00126042       0.01485788
C        4.90633311       8.53352654       3.72330071      -0.00737786       0.00208050      -0.00236621
C       -0.06522909       1.41778564       3.92875602      -0.00505102       0.00330724       0.00743527
C       -1.32581067       3.52091071       3.97557068      -0.00374464       0.00183195      -0.00218887
C       -2.52909571       5.67644155       3.90753680      -0.00349299      -0.00586117      -0.00057786
C       -3.73833016       7.82977745       3.85700976       0.00520568      -0.00352078      -0.00455133
C       -4.97923116       9.97505556       3.87491583      -0.00233836       0.00500373      -0.00318804
C        2.41110900       1.42633924       3.77377563       0.00385512       0.00287363      -0.00438839
C        1.11724396       3.54362167       4.10415144      -0.00870216      -0.01190230       0.00414360
C       -0.07758545       5.67777550       4.05197709       0.00019169      -0.00085610       0.00307798
C       -1.28202335       7.81778081       3.90711898       0.00607548       0.00423873      -0.00235257
C       -2.51168895       9.96492412       3.81864928      -0.00720295       0.00885051       0.00131192
C        4.87724234       1.40804569       3.54718340       0.00167997      -0.00037592       0.00708665
S        3.48711158       3.64840405       2.74815219      -0.00131844       0.00394463      -0.00428529
C        1.20486415       7.72994895       3.90159617       0.00390570      -0.00507047      -0.00499132
C       -0.04365749       9.92846404       3.76454511      -0.00122430      -0.00032870      -0.00256878
C        7.33168209       1.39470689       3.66432134      -0.00269744       0.00648018       0.00339594
C        6.11868343       3.56615919       3.47318285       0.00207497       0.00544751      -0.00050011
C        4.98309438       5.76381490       3.36231955       0.00741019       0.00255313      -0.01012059
C        3.70667597       7.81329056       3.63243874      -0.00135028      -0.00292556      -0.00589336
C        2.42089410       9.89661644       3.76136884       0.00157091      -0.00498241      -0.00518986
C        9.79203664       1.38452603       3.83303595      -0.00091614       0.00344734       0.00317616
C        8.57009722       3.53506757       3.77765804       0.00315653       0.00244714      -0.00209375
C        7.37507527       5.68763871       3.70509072      -0.00463602      -0.00611258      -0.00147742
C        6.14992665       7.84870599       3.72367492      -0.00595536       0.00224691       0.00318436
C        4.88298901       9.95360164       3.81220920       0.00299344       0.00152160       0.00365436
Cu       2.30570513       4.91827401       4.50901437       0.00109976       0.00536523      -0.01107194
O        3.55278707       5.53531839       5.79766088       0.00222183      -0.01057880       0.00789362
O        3.12397947       4.82007368       6.97959834       0.00754117      -0.01582649      -0.00614008
H        3.74363665       5.19528557       7.63710602      -0.00661756       0.00198541       0.00568423
