50
Lattice="12.336457 0.0 0.0 -6.168228499999997 10.683685154694365 0.0 0.0 0.0 15.0" Properties=species:S:1:pos:R:3:forces:R:3 energy=-433.633011414306 free_energy=-433.633011414306 stress="-0.002868261050892949 2.1358364656376773e-06 9.585640222318367e-06 2.1358364656376773e-06 -0.0006018476277646035 6.260810023956478e-06 9.585640222318367e-06 6.260810023956478e-06 -4.0966828509078985e-06" pbc="T T T"
C       -0.02438885       0.01613697       3.87106192      -0.00644267      -0.00279514       0.00643582
C       -1.26873845       2.13188468       3.95591933      -0.00714519      -0.00521761       0.00417281
C       -2.49978528       4.26957441       3.91528614       0.00403063      -0.00348451       0.00167221
C       -3.72546012       6.41121448       3.81549854       0.00679417       0.00234335      -0.00679127
C       -4.97202543       8.55085330       3.76476960       0.00511297      -0.00674883       0.00943145
C        2.43865441       0.00779783       3.86183745       0.00121431      -0.00525705       0.00195104
C        1.22011392       2.19425633       3.93986747      -0.00303913       0.00635097       0.00725697
C       -0.03030431       4.25886290       4.05670058      -0.00600808      -0.00150274       0.00160524
C       -1.27639302       6.41652836       3.98475690       0.00111400       0.00086927      -0.01373099
C       -2.50468125       8.54934473       3.90278353       0.00621632      -0.00452698      -0.00803339
C        4.90956435      -0.01305608       3.80175311      -0.00417133      -0.00513604       0.00146706
C        3.66117541       2.05134787       3.41732650       0.00756844       0.00263088      -0.00418920
C        1.17840440       6.38889213       4.12300999      -0.00706765       0.00125514      -0.00194021
C       -0.02365733       8.52313701       3.94679427      -0.00389373       0.00509797       0.01556613
C        7.37035036      -0.01223984       3.85228325       0.00171486       0.00413715       0.01206747
C        6.14487794       2.11999985       3.57669706       0.00355582       0.00384135       0.00713768
C        5.04511880       4.28458338       3.06742308      -0.00966807       0.00179687      -0.01159438
S        3.55510436       6.42306236       2.56948685       0.00912284      -0.00140347      -0.00153899
C        2.44400622       8.53428247       3.78419133       0.00506010       0.00358296       0.00537556
C        9.83918236      -0.00541949       3.86158727       0.00067668       0.00322729      -0.00003457
C        8.60376073       2.12919874       3.83329264       0.00501773       0.00153330       0.00662532
C        7.39627010       4.26912853       3.64683577       0.00041375       0.00360992      -0.01478672
C        6.18029956       6.42637516       3.43225173      -0.00829475      -0.00514793      -0.00652698
C        4.91270736       8.56204510       3.59765430       0.00278369      -0.00317692      -0.00491485
C       -0.02336087       1.44331124       3.94706648      -0.00821792      -0.00228732       0.01411164
C       -1.27642638       3.55027236       3.98442678       0.00378624      -0.00337450      -0.01215602
C       -2.49982509       5.69735461       3.91529527       0.00305548      -0.00149068       0.00208600
C       -3.73308825       7.83737009       3.83323095       0.00843622      -0.00053231       0.00731842
C       -4.96600814       9.97882519       3.85213371      -0.00213812      -0.00561510       0.01313228
C        2.44401809       1.43200060       3.78342467       0.00574127      -0.00066390       0.00941044
C        1.17807865       3.57724197       4.12276392       0.00020804       0.00644195      -0.00058964
C       -0.03022423       5.70765195       4.05682229      -0.00898388       0.00345008       0.00199504
C       -1.26922515       7.83492314       3.95604437      -0.00028733       0.00259760       0.00397354
C       -2.49725194       9.97232733       3.86184899      -0.00056370      -0.00966639      -0.00208932
C        4.91285185       1.40474521       3.59773748       0.00391811      -0.00369934      -0.00384580
S        3.55570209       3.54258702       2.56905653       0.00521517       0.00945048      -0.00761110
C        1.21995052       7.77197916       3.94000206      -0.00206666      -0.00032171       0.00854373
C       -0.02455360       9.95040364       3.87082447      -0.00266306       0.00320853       0.00866336
C        7.36462950       1.41577932       3.76475219       0.00638562       0.00419799       0.01095148
C        6.18056303       3.53994348       3.43198941      -0.00828393       0.00641627      -0.00563793
C        5.04489690       5.68152642       3.06773787      -0.00897774       0.00085601      -0.01222502
C        3.66110969       7.91480183       3.41780156       0.00477195      -0.00007939      -0.00533335
C        2.43859532       9.95880268       3.86218175       0.00327125       0.00327969       0.00081584
C        9.83227859       1.41753955       3.90263557      -0.00026519      -0.00036169      -0.00801900
C        8.61130839       3.55527370       3.81563987       0.00369562       0.00029945      -0.00764989
C        7.39609176       5.69699004       3.64681775       0.00149947       0.00454844      -0.01408732
C        6.14469171       7.84662291       3.57667130       0.00170209      -0.00805901       0.00780410
C        4.90951305       9.97997080       3.80155689      -0.00385778      -0.00263873       0.00175661
Cu       2.43020387       4.98345949       4.67647456      -0.01249714      -0.00152138      -0.00230641
O        3.63945787       4.98156761       5.91721268       0.00245025      -0.00031426      -0.01569490
