51
Lattice="12.336457 0.0 0.0 -6.168228499999997 10.683685154694365 0.0 0.0 0.0 15.0" Properties=species:S:1:pos:R:3:initial_magmoms:R:1:forces:R:3 energy=-443.94114914590284 free_energy=-443.94114914590284 stress="-0.003607389478056329 -0.003492512269654296 1.2230560347471857e-06 -0.003492512269654296 0.006240730718305048 -4.495777319673561e-07 1.2230560347471857e-06 -4.495777319673561e-07 -6.565480266821045e-06" pbc="T T T"
C       -0.05048197      -0.04352466       3.73928569       0.00000000      -0.00445706      -0.00791175      -0.00477808
C       -1.32107601       2.06042116       3.78210110       0.00000000       0.00885466       0.00751658      -0.00441050
C       -2.54420081       4.21736138       3.72458211       0.00000000      -0.00288329       0.00580747      -0.00776848
C       -3.74321400       6.37139213       3.65760889       0.00000000       0.00637551      -0.00251875      -0.00714624
C       -4.96946407       8.52317776       3.66016957       0.00000000      -0.00197140      -0.00146030      -0.00586145
C        2.41108439       0.01381621       3.78202094       0.00000000      -0.00125091      -0.00023962      -0.00163113
C        1.12165077       2.08458534       3.91100066       0.00000000       0.00081770      -0.00641610       0.01465045
C       -0.13828021       4.18364410       3.93273387       0.00000000       0.00799331       0.00747948      -0.00245600
C       -1.29900803       6.35046067       3.79716843       0.00000000       0.00273963       0.00395449      -0.00426162
C       -2.51529813       8.52131842       3.74232157       0.00000000      -0.00732836      -0.00252258      -0.00097491
C        4.88114286      -0.03117321       3.74470164       0.00000000       0.00631577      -0.00557115      -0.00465535
C        3.63645984       2.19249837       3.77735842       0.00000000      -0.00359699       0.00103461      -0.00812986
C        1.13846565       6.30026314       3.93397413       0.00000000      -0.00506287       0.00520621       0.00054695
C       -0.04056212       8.46771983       3.76715497       0.00000000       0.00452742      -0.00767386       0.00203299
C        7.35183705      -0.08255742       3.69893986       0.00000000       0.00244386       0.00612613      -0.00013890
C        6.11267192       2.09098304       3.63868140       0.00000000      -0.00338817       0.00157729       0.00118430
C        4.88296905       4.27006295       3.52114020       0.00000000      -0.00423346      -0.00824916      -0.00299833
O        3.78753084       6.42369947       3.27927681       0.00000000      -0.00312083       0.00588008      -0.00168092
C        2.44829032       8.41589587       3.66891768       0.00000000      -0.00256078       0.00573259      -0.00173787
C        9.80522265      -0.08701767       3.69331585       0.00000000       0.00098528      -0.00866724      -0.00165375
C        8.56604953       2.06790252       3.67183698       0.00000000       0.00708818      -0.00233639       0.00031555
C        7.35149003       4.22727473       3.57707126       0.00000000      -0.00433885       0.00452843      -0.00990417
C        6.15620954       6.38882798       3.48750870       0.00000000      -0.00073274       0.00096233      -0.00183754
C        4.90693221       8.49575762       3.59342951       0.00000000       0.00046751      -0.00051889       0.00039561
C       -0.07808248       1.37513163       3.80995964       0.00000000       0.00210415      -0.00594875       0.00837770
C       -1.32761004       3.48272997       3.80777727       0.00000000       0.00493026       0.01284276      -0.00406763
C       -2.52326559       5.64265982       3.72771217       0.00000000       0.00535805       0.00256200       0.00478561
C       -3.73750947       7.80449816       3.68571213       0.00000000      -0.00435503      -0.00586205       0.00580522
C       -4.97457285       9.95935892       3.73352670       0.00000000      -0.00208836      -0.00267365       0.00228052
C        2.38398449       1.45564429       3.84447034       0.00000000       0.00084317      -0.00092141       0.00249490
O        1.01555195       3.44801561       4.16029245       0.00000000      -0.00111676      -0.00553605       0.00358347
C       -0.05898037       5.60408289       3.89628477       0.00000000       0.00173821       0.00866762      -0.00127252
C       -1.28362237       7.78125651       3.77152041       0.00000000      -0.00291910       0.00084606       0.00938957
C       -2.52298231       9.95493606       3.75941944       0.00000000      -0.00017367      -0.00131798       0.00784720
C        4.87131340       1.40486460       3.71699831       0.00000000      -0.00299780      -0.00138687      -0.00380727
C        3.70458301       3.58450452       3.76060117       0.00000000      -0.00499829      -0.00027846       0.00602735
C        1.19756138       7.68051234       3.78296892       0.00000000       0.00467184      -0.00087079       0.00646673
C       -0.05221002       9.90403680       3.73341812       0.00000000       0.00956127      -0.00661405      -0.00664644
C        7.34447101       1.35079545       3.66338587       0.00000000       0.00093733       0.00596231      -0.00058614
C        6.12585772       3.51809482       3.54961505       0.00000000      -0.00397703      -0.00109113       0.00857632
C        4.95643079       5.69372551       3.39295139       0.00000000      -0.00031337      -0.00514921      -0.00395753
C        3.70323501       7.78031451       3.53684354       0.00000000      -0.00157071       0.00506898       0.00316672
C        2.41714586       9.85811162       3.68598953       0.00000000      -0.00282500       0.00322562      -0.00599162
C        9.79855463       1.34859269       3.71534190       0.00000000       0.01155679      -0.00552154      -0.00030611
C        8.57155048       3.50084707       3.65312327       0.00000000      -0.00359923       0.00175800       0.00450765
C        7.37320060       5.65629996       3.56742913       0.00000000       0.00000652       0.00420601       0.01263872
C        6.15069928       7.81064728       3.56708781       0.00000000      -0.00127726       0.00151798       0.00111343
C        4.88376265       9.91402271       3.68053771       0.00000000      -0.00251492      -0.00698791      -0.00137416
Cu       2.47752224       4.96814175       4.27139351       0.00000000      -0.00855226       0.00148320      -0.01248383
O        4.19868440       6.45518441       5.96543284       1.00000000      -0.01543587      -0.00181376       0.00229697
O        3.21808773       5.68126718       6.01494391       1.00000000       0.01332399       0.00211319       0.00403446
