50
Lattice="12.336457 0.0 0.0 -6.168228499999997 10.683685154694365 0.0 0.0 0.0 15.0" Properties=species:S:1:pos:R:3:forces:R:3 energy=-438.12236884802326 free_energy=-438.12236884802326 stress="-0.002878699457506124 -5.872560897127629e-07 -1.1264189873268869e-05 -5.872560897127629e-07 0.008514066669923598 1.7926579063504034e-07 -1.1264189873268869e-05 1.7926579063504034e-07 -4.375011820305773e-07" pbc="T T T"
C       -0.01362622       0.01982018       3.75376898       0.00473750      -0.00851010      -0.00690942
C       -1.26783452       2.11948006       3.75565977      -0.00466049       0.00141168      -0.00477096
C       -2.51076483       4.26599829       3.65549363       0.00097154       0.00281256       0.00212120
C       -3.72772683       6.42021249       3.60117113       0.00034234      -0.00017588       0.00749777
C       -4.95321868       8.56944206       3.65209544       0.00012483      -0.00851785       0.01112899
C        2.46028970       0.06778201       3.75190549       0.00808096       0.00884914       0.00455237
C        1.22155840       2.22210429       3.91527247       0.00377749      -0.01122455       0.00608673
C       -0.07195219       4.26150267       3.91070198       0.00460790      -0.00397836       0.01025139
C       -1.29305973       6.42500103       3.74949312      -0.00144812      -0.00607399      -0.00119225
C       -2.49580386       8.57292312       3.70693693       0.00168852       0.00616996      -0.01759989
C        4.91964994       0.00824298       3.72732404       0.00050095       0.00341124      -0.00170459
C        3.72633797       2.17594165       3.72126455       0.00290243       0.00179635      -0.01252318
C        1.11761318       6.37677736       4.12427394      -0.00050682       0.01499623       0.00392581
C       -0.01552961       8.51906717       3.81517738       0.00011654       0.00563982      -0.00115240
C        7.39509571      -0.04289589       3.72463596       0.01090391       0.00598522       0.00330830
C        6.16240371       2.12980420       3.61444363      -0.01132715      -0.00266454       0.00353424
C        4.95749166       4.27809304       3.51497860      -0.01158439       0.00204607       0.00796828
O        3.77093561       6.40976483       3.61107977      -0.00325322       0.00310506      -0.00530810
C        2.48173387       8.45938666       3.81675402       0.00798369      -0.00545763      -0.00639179
C        9.84826021      -0.03981930       3.72816122       0.00234622      -0.00761565       0.00890321
C        8.61601460       2.11191819       3.64644867       0.00428087       0.00012879      -0.01007559
C        7.38464624       4.27293144       3.54195805      -0.00682587      -0.00250174       0.00469889
C        6.15522749       6.40539779       3.53411934      -0.01299511       0.00306208      -0.00517868
C        4.92570256       8.52399173       3.68730070      -0.00605367       0.00266885      -0.00073672
C       -0.01555064       1.44741655       3.81549703       0.00038399      -0.00495124      -0.00210142
C       -1.29304651       3.54152139       3.74954644      -0.00132088       0.00557585      -0.00054912
C       -2.51078466       5.70048595       3.65569394       0.00068638      -0.00223668       0.00003464
C       -3.72045170       7.85459773       3.64618738       0.00424835      -0.00064386      -0.00846771
C       -4.94134045      10.00943578       3.72455580       0.01036024      -0.00677586       0.00435189
C        2.48173696       1.50711856       3.81638498       0.00769003       0.00607490      -0.00549366
C        1.11757531       3.58968920       4.12454008      -0.00017790      -0.01458762       0.00173004
C       -0.07195536       5.70504809       3.91054530       0.00473511       0.00269774       0.01118650
C       -1.26781215       7.84702576       3.75526653      -0.00516522      -0.00153382      -0.00340007
C       -2.48823096      10.00629785       3.72804682       0.00316334       0.00797752       0.00734132
C        4.92570557       1.44248510       3.68681785      -0.00604233      -0.00270159      -0.00008355
O        3.77090844       3.55669479       3.61040240      -0.00265403      -0.00357115      -0.00389989
C        1.22155227       7.74442857       3.91561738       0.00381200       0.01177066       0.00237032
C       -0.01364744       9.94666010       3.75327073       0.00533716       0.00902117      -0.00519096
C        7.38324044       1.39710048       3.65211466       0.00011111       0.00721773       0.01027043
C        6.15527876       3.56109219       3.53405779      -0.01386687      -0.00299822      -0.00621392
C        4.95747596       5.68834869       3.51487733      -0.01113523      -0.00105917       0.00975127
C        3.72630622       7.79057213       3.72127572       0.00303772      -0.00208357      -0.00906774
C        2.46028754       9.89873961       3.75219594       0.00810904      -0.00870442       0.00390756
C        9.84065645       1.39356849       3.70709030       0.00191437      -0.00621953      -0.01651628
C        8.60875652       3.54627118       3.60110103       0.00040439       0.00059911       0.00779023
C        7.38460806       5.69355798       3.54204908      -0.00615303       0.00277892       0.00398059
C        6.16239528       7.83668129       3.61505630      -0.01113818       0.00219622       0.00057594
C        4.91968885       9.95822566       3.72776817      -0.00049413      -0.00292642      -0.00183832
Cu       2.27173269       4.98342239       4.78004496       0.01473490      -0.00021747      -0.00067060
O        3.33840490       4.98238411       6.16941320      -0.00529117      -0.00006195      -0.00023114
