50
Lattice="12.336457 0.0 0.0 -6.168228499999997 10.683685154694365 0.0 0.0 0.0 15.0" Properties=species:S:1:pos:R:3:forces:R:3 energy=-433.17024643204974 free_energy=-433.17024643204974 stress="-0.009619407321906153 -0.0008595072613951722 2.920813362842176e-05 -0.0008595072613951722 -0.007765295088607356 -2.776745162143967e-05 2.920813362842176e-05 -2.776745162143967e-05 6.851037788880275e-05" pbc="T T T"
C       -0.02964700       0.00897557       3.83379786      -0.00437945       0.00183760      -0.00300530
C       -1.26817047       2.14741513       3.71159105      -0.00093780      -0.00135226      -0.00109627
C       -2.49729749       4.29323243       3.82244557       0.00049664       0.00146594      -0.00372464
C       -3.71477742       6.43440723       3.89441176      -0.00184053       0.00523007      -0.00294388
C       -4.96396962       8.55903911       3.83595841      -0.00145264       0.00275962      -0.00176461
C        2.43498305      -0.01260298       3.99484511      -0.00041864       0.00007448       0.00375993
C        1.21833335       2.09228078       3.65102379       0.00493645      -0.00335342       0.00254746
C       -0.12539357       4.32970224       3.35448831       0.00043349      -0.00877316       0.00495949
C       -1.29307792       6.45187686       3.76248891      -0.00415060      -0.00567977       0.00473889
C       -2.49758827       8.56562914       3.95501443       0.00033713      -0.00369872      -0.00548986
C        4.91283694       0.00510350       4.05040729      -0.00118532      -0.00257368      -0.00061894
C        3.65468502       2.07705629       4.22634320       0.00227955       0.01060100      -0.00071713
C        1.11512180       6.46911748       3.49303182      -0.00534127       0.00231419      -0.00742034
C       -0.03330370       8.56912851       3.79880188      -0.00157485      -0.00033194       0.00722626
C        7.37700886       0.01454018       3.92073064       0.00635754       0.00043970      -0.00325689
C        6.15049010       2.15425551       4.10762768       0.00187834      -0.00325646       0.00735600
C        5.00572390       4.36967559       3.88481603       0.00134549      -0.00627211      -0.00130583
S        3.81564647       6.45860634       2.39192178       0.00324770      -0.00852677       0.00145518
C        2.44642963       8.57740792       3.53476831       0.00706315       0.00185445       0.00870726
C        9.84043684       0.01487085       3.79927622       0.00043786       0.00625977      -0.00390010
C        8.61340893       2.14960389       3.93347703       0.00049431       0.00513299       0.00030961
C        7.40736922       4.29426590       3.93679572       0.00101170       0.00202049       0.00403755
C        6.20456228       6.44601121       3.60543046       0.00088909      -0.00247538       0.00144677
C        4.92311678       8.57715490       3.56828352       0.00101474       0.00269117      -0.00471210
C       -0.03300100       1.43199658       3.73459270      -0.00036977      -0.00038616      -0.00156122
C       -1.28211723       3.57527541       3.63723169      -0.00229248      -0.00401771      -0.00117111
C       -2.49665216       5.71818343       3.85086030      -0.00410899       0.00031039      -0.00306910
C       -3.72510656       7.85374089       3.90725089      -0.00174437       0.00309721      -0.00052564
C       -4.96756534       9.97770780       3.89611037      -0.00439727       0.00321425      -0.00271855
C        2.43444730       1.40407788       3.97815283       0.00760646       0.00363414       0.00255705
P        1.28509793       3.54269193       2.65062432      -0.00280434      -0.00588372       0.00273573
C       -0.07829384       5.75402689       3.51877456      -0.00154306      -0.00751288       0.00548996
C       -1.26660700       7.86385036       3.86109294      -0.00140539      -0.00600902      -0.00444123
C       -2.49210734       9.97890876       4.02197923      -0.00169202      -0.00373686       0.00017097
C        4.90995763       1.43227916       4.15375908      -0.00262278       0.00022563       0.00118662
P        3.56717027       3.75653772       4.74155668      -0.01427477       0.02061724       0.01866505
C        1.19698434       7.84366658       3.58275043       0.00065774       0.00215105      -0.00153725
C       -0.02469170       9.98445356       3.93239954       0.00366271       0.00088713      -0.00231337
C        7.37657518       1.43970719       4.00894075       0.00445997       0.00015301       0.00478600
C        6.17725425       3.58467384       4.01351705      -0.00005680      -0.00279818       0.00214164
C        5.05488491       5.68314297       3.37401826       0.00437158      -0.00730870       0.00378979
C        3.68996403       7.94969472       3.26484709       0.00209423       0.00235787      -0.00660671
C        2.43985643       9.98810942       3.77030347       0.00629799       0.00337524      -0.00237180
C        9.84312275       1.44045584       3.83663199      -0.00215149       0.00502907      -0.00308746
C        8.62423132       3.57518445       3.92645017       0.00266069       0.00380960       0.00089300
C        7.40949985       5.71825015       3.84107604       0.00109012       0.00280989       0.00649074
C        6.15895112       7.86222197       3.62990641       0.00018819      -0.00065872       0.00459025
C        4.90746379       9.99077256       3.75820088      -0.00327508       0.00394829       0.00073027
Cu       2.41020604       5.17259728       3.58008428       0.01478894      -0.01456246       0.02782661
O        3.48828672       3.99970443       6.21233622      -0.01608207       0.00086657      -0.05923875
