51
Lattice="12.336457 0.0 0.0 -6.168228499999997 10.683685154694365 0.0 0.0 0.0 15.0" Properties=species:S:1:pos:R:3:initial_magmoms:R:1:forces:R:3 energy=-444.45890328403124 free_energy=-444.45890328403124 stress="-0.00464481489777883 7.089275358021082e-05 1.9288682024361092e-06 7.089275358021082e-05 0.008061302933257209 1.8830435982482237e-05 1.9288682024361092e-06 1.8830435982482237e-05 7.717505055881908e-06" pbc="T T T"
C       -0.02611812       0.02046896       3.72252244       0.00000000      -0.00264182       0.00727336       0.00109580
C       -1.28275717       2.12073392       3.72313023       0.00000000      -0.00348833       0.00257657       0.00121750
C       -2.53282412       4.27109048       3.65158891       0.00000000      -0.00222672      -0.00062403       0.00770821
C       -3.74509162       6.42495636       3.60978407       0.00000000       0.00333286      -0.00546007       0.00320614
C       -4.96528368       8.57395114       3.65106857       0.00000000       0.00167316      -0.00017667      -0.00441802
C        2.44775201       0.07294942       3.73211276       0.00000000       0.00146753      -0.00052306       0.00091708
C        1.20691388       2.22010481       3.83351429       0.00000000      -0.00081449      -0.00039180      -0.00131860
C       -0.10200481       4.26894885       3.85733077       0.00000000      -0.00034148      -0.00162743       0.00279345
C       -1.31463117       6.42893953       3.74462938       0.00000000      -0.00154905       0.00197066       0.00535770
C       -2.50904811       8.57834082       3.70547123       0.00000000       0.00266903       0.00582427      -0.00219874
C        4.90832924       0.01333340       3.71988961       0.00000000       0.00790661       0.00318064       0.00006906
C        3.71581094       2.18126712       3.70302573       0.00000000      -0.00367388      -0.00091269      -0.00729109
C        1.10814373       6.37334483       4.00986999       0.00000000      -0.00479540      -0.00270955       0.00088293
C       -0.02609391       8.52286775       3.79022766       0.00000000       0.00089417      -0.00637373      -0.00147963
C        7.38348234      -0.04034605       3.71472726       0.00000000      -0.00630327       0.00405252      -0.00436911
C        6.15185096       2.13076178       3.61730815       0.00000000      -0.00252765       0.00483546       0.00234441
C        4.95656612       4.28265465       3.50926311       0.00000000       0.00331241      -0.00212414      -0.00412859
O        3.76381884       6.40737226       3.59341057       0.00000000       0.00650323       0.00075674       0.00363028
C        2.46658903       8.46033184       3.77112752       0.00000000      -0.00241634       0.00413094      -0.00379377
C        9.83580483      -0.03840330       3.70712898       0.00000000       0.00403473      -0.00809142      -0.00110608
C        8.60282786       2.11378899       3.64163232       0.00000000       0.00273055       0.00022016      -0.00218448
C        7.37069007       4.27495494       3.54722411       0.00000000      -0.00298928       0.00579720       0.00786200
C        6.14430010       6.41203820       3.53453240       0.00000000       0.00056081       0.00202845       0.00094906
C        4.91180425       8.52515811       3.66337438       0.00000000       0.00160086      -0.00273918      -0.00595393
C       -0.02672251       1.45035869       3.76430858       0.00000000      -0.00316074       0.00663361       0.00036459
C       -1.31574111       3.54457563       3.72623897       0.00000000      -0.00373875       0.00040932       0.00917800
C       -2.53279610       5.70329832       3.65818405       0.00000000       0.00324826      -0.00250922       0.00908625
C       -3.73435817       7.85954278       3.65036095       0.00000000       0.00434362      -0.00351863      -0.00035932
C       -4.95307322      10.01353801       3.70768057       0.00000000      -0.00244734       0.00299203      -0.00161670
C        2.46860633       1.51451080       3.77179022       0.00000000      -0.00323643      -0.00295722      -0.00241820
C        1.10353857       3.59925805       3.97372313       0.00000000      -0.00166077      -0.00318053       0.00571722
C       -0.10142528       5.70505651       3.87070830       0.00000000      -0.00360828      -0.00133670       0.00383549
C       -1.28320260       7.85259883       3.74865088       0.00000000      -0.00066324       0.00133466      -0.00564339
C       -2.50089974      10.01177729       3.72185653       0.00000000       0.00761005       0.00695217      -0.00012486
C        4.91384362       1.44765001       3.67912338       0.00000000      -0.00164849       0.00409017      -0.00316827
O        3.77088713       3.56879910       3.65671335       0.00000000       0.00010741      -0.00014835      -0.00795809
C        1.20679273       7.75732344       3.85605706       0.00000000       0.00061200      -0.00218458      -0.00358035
C       -0.02589647       9.95288432       3.74103379       0.00000000       0.00068487      -0.00577183      -0.00219831
C        7.37215015       1.39889411       3.65314001       0.00000000      -0.00245041       0.00512343      -0.00579567
C        6.14686853       3.55977855       3.53666729       0.00000000       0.00342337       0.00056036       0.00095038
C        4.95375030       5.69136824       3.50196179       0.00000000       0.00418592      -0.00321326      -0.00156524
C        3.71316666       7.79140000       3.68117320       0.00000000       0.00028322       0.00182356      -0.00738592
C        2.44779776       9.90114260       3.72959976       0.00000000      -0.00429541       0.00445157      -0.00102427
C        9.82766482       1.39468607       3.68754269       0.00000000       0.00325986      -0.00625191       0.00000498
C        8.59235948       3.54830565       3.60276638       0.00000000      -0.00343928       0.00398273       0.00545205
C        7.36969960       5.69758077       3.54900254       0.00000000      -0.00274886       0.00370517       0.00626236
C        6.15027702       7.84190629       3.60887807       0.00000000       0.00114879      -0.00041422       0.00079312
C        4.90784261       9.95985713       3.70239699       0.00000000       0.00413924      -0.00444075      -0.00125111
Cu       2.18614636       4.98416561       4.49132058       0.00000000      -0.00586088      -0.00505396       0.01361135
O        3.00115179       4.22616366       6.16562749       1.00000000      -0.00558397      -0.01650460       0.00143722
O        3.34578046       5.46463189       6.04565421       1.00000000       0.00857805       0.00453379      -0.01239491
