49
Lattice="12.336457 0.0 0.0 -6.168228499999997 10.683685154694365 0.0 0.0 0.0 15.0" Properties=species:S:1:pos:R:3:forces:R:3 energy=-426.24940272855804 free_energy=-426.24940272855804 stress="-0.005440088032709403 0.00028207369010177003 3.0371389372325146e-06 0.00028207369010177003 -0.003797286971355433 -1.9474210660491296e-05 3.0371389372325146e-06 -1.9474210660491296e-05 2.9693646477394734e-07" pbc="T T T"
C        0.00099767      -0.01314310       3.96439392      -0.00274020       0.00053030       0.00198806
C       -1.24026532       2.11999082       3.78252445      -0.00009757      -0.00217626      -0.01133863
C       -2.47673946       4.26734153       3.99639560       0.00359295       0.00527425       0.00086741
C       -3.69299283       6.41088005       4.18849214      -0.00555804       0.00225434       0.00375815
C       -4.92501630       8.55307686       4.16598374       0.00381347      -0.00184406       0.00922420
C        2.46975330      -0.00544554       3.92995879      -0.01398217       0.00083762      -0.00865265
C        1.20724512       2.00824402       3.32166803      -0.00371182       0.00782427       0.00324799
C       -0.21245075       4.28735031       3.15300053       0.00174639       0.00801839       0.00145538
C       -1.29099089       6.42266561       3.72039831      -0.00188860      -0.00602308       0.00158140
C       -2.46372327       8.54919048       4.07182325       0.00802373      -0.01020031       0.00081208
C        4.93682375      -0.00337098       3.98122597       0.00052642      -0.00345532      -0.00093494
C        3.72690998       2.04613359       3.40606145       0.00663063       0.00186703       0.00316578
P        1.08449478       6.58358392       2.30586174       0.00571496      -0.00600300       0.00531707
C       -0.01525756       8.56101341       3.78044091      -0.00174968       0.00376838       0.00201655
C        7.40873310      -0.01232860       4.01063783       0.00971747       0.00331514      -0.00066053
C        6.18539223       2.12374291       3.91739616      -0.00532521       0.00123461      -0.00563584
C        5.07488602       4.30635378       3.56106721       0.00465126       0.00183419      -0.01554057
C        3.80021486       6.42097682       3.55030178      -0.00614719      -0.01037032      -0.00630062
C        2.46755014       8.54564659       3.71366483       0.00222215      -0.00624426       0.01201989
C        9.87356927      -0.01747370       4.00413610       0.00493294       0.00318703       0.00016295
C        8.64524567       2.12521181       4.08242284      -0.00714709      -0.00042006       0.00366058
C        7.42338775       4.27052652       4.14369069      -0.00490535      -0.00328691      -0.00374751
C        6.19863068       6.42145716       4.09800009       0.00265613       0.00847676      -0.00540433
C        4.94252764       8.53062382       3.99200628       0.00533481       0.01115170       0.00128273
C       -0.00929178       1.39783335       3.70987487      -0.00112394      -0.00389542      -0.00230788
C       -1.28294779       3.54254142       3.67716741       0.00716972       0.00323723       0.00001028
C       -2.47907868       5.69459611       4.01932826      -0.00461269       0.00443070       0.00434639
C       -3.69551968       7.83843551       4.17465311       0.00460575      -0.00300976       0.00345214
C       -4.92866144       9.97300298       4.04525143      -0.01012531      -0.00392623       0.00683264
C        2.47007576       1.38194048       3.54950252      -0.00309230       0.01030681      -0.00453919
S        1.07307250       3.43715316       2.34581323      -0.00554770      -0.00081967      -0.00030995
C       -0.19999583       5.69874634       3.17354127       0.00155890       0.00262558      -0.00101759
C       -1.24970821       7.84394992       3.86041717       0.00527231      -0.01098252      -0.00801587
C       -2.46556101       9.97424954       4.02790503      -0.00644640      -0.00432842      -0.00083824
C        4.94366405       1.41313310       3.79649564       0.00440702      -0.00380727      -0.00754907
P        3.93791744       3.52870232       2.45733294       0.00046330      -0.01431750       0.00095137
C        1.21582477       7.92613341       3.44182682      -0.00685390       0.00943159       0.00167983
C        0.00062563       9.97084534       3.97908427       0.00699860       0.00577924      -0.00285341
C        7.40923199       1.41348645       4.05091407      -0.00761765       0.00228822       0.00646307
C        6.21184493       3.55395262       3.91379612      -0.00861445      -0.00149410       0.00116543
C        4.99449580       5.72495028       3.76254908       0.00057773       0.00087398       0.00412988
C        3.71427895       7.80209323       3.75083807       0.00473410      -0.00583790      -0.00209824
C        2.47184972       9.95390677       3.95265884       0.01042801      -0.00108090      -0.00437220
C        9.88167798       1.41311816       3.99668959      -0.00296046       0.00130950       0.00362362
C        8.64363227       3.55048526       4.13356697       0.00017651       0.00139734      -0.00719980
C        7.41648694       5.69682804       4.19192678      -0.00392502       0.00028577       0.00238792
C        6.17808831       7.83877332       4.12213853       0.00354134       0.01096168       0.00813873
C        4.93709983       9.95148789       4.01267264       0.00260606       0.00931189       0.00322144
Cu       2.55936530       5.15595602       2.96722226       0.00207008      -0.01829024       0.00235412
