50
Lattice="12.336457 0.0 0.0 -6.168228499999997 10.683685154694365 0.0 0.0 0.0 15.0" Properties=species:S:1:pos:R:3:forces:R:3 energy=-433.3604589412499 free_energy=-433.3604589412499 stress="-0.004437142061125991 0.0010805503404815078 9.80698746994579e-07 0.0010805503404815078 -0.0016213928758040876 -8.439578519804012e-07 9.80698746994579e-07 -8.439578519804012e-07 -1.9856048864356982e-05" pbc="T T T"
C        0.00040295      -0.00191196       3.69931453       0.00835387      -0.00811902      -0.00967772
C       -1.22861970       2.13897391       3.61957021       0.00730492      -0.00429248      -0.00115928
C       -2.47445461       4.27585217       3.80151513      -0.01042667       0.00533468       0.00447145
C       -3.71098702       6.41331339       3.86223016       0.00106883       0.00190525      -0.01687782
C       -4.94953425       8.54189199       3.75955098      -0.00343843      -0.00499902       0.00746394
C        2.46193063       0.00837983       3.82496248       0.00089377       0.00072342       0.01089611
C        1.24866957       2.07193972       3.41724431       0.00345545       0.00577429      -0.00453394
C       -0.07774766       4.32861228       3.44411361      -0.01048287       0.00666551      -0.01219772
C       -1.26557663       6.42882725       3.86810814       0.00040402       0.00084986      -0.00594462
C       -2.48437493       8.55899230       3.91991798      -0.00859943      -0.00284612       0.00750459
C        4.93304452       0.00433666       3.94119848      -0.00151247       0.00428839       0.00311034
C        3.69660761       2.19259255       3.84624310      -0.01100457       0.00559882       0.00809636
C        1.19612428       6.38669242       3.89217600       0.00220269       0.00267643      -0.00249621
C       -0.00381084       8.53555194       3.92825547       0.00418871      -0.00976173       0.00660746
C        7.40774668      -0.01264118       3.91385538       0.00079692       0.00064751       0.00971306
C        6.18445854       2.11948702       3.93526595       0.00580177       0.00355002       0.00459559
C        4.94885685       4.24129354       3.73787678      -0.00399782      -0.00389418      -0.00026537
S        3.62835910       6.32924250       2.68142373      -0.00764829       0.00110340       0.00216926
C        2.46812601       8.53357501       3.72478521       0.00275064      -0.00036159      -0.00309803
C        9.87286820      -0.00731009       3.76303637      -0.00684827       0.00879100      -0.00657490
C        8.64668214       2.12773209       3.85589664       0.00574242       0.00127053      -0.00071442
C        7.41471906       4.26505329       3.85997967       0.00272697      -0.00455698      -0.00095805
C        6.17609373       6.40086788       3.62457435       0.00985764      -0.00170514      -0.00265355
C        4.93381014       8.54124180       3.58149121      -0.01004868       0.00662341      -0.01242049
C       -0.00001572       1.42518714       3.58082116       0.00989656      -0.00638131      -0.01017310
C       -1.24234905       3.56549445       3.62421895      -0.00978996       0.00285456      -0.00088253
C       -2.48092660       5.70137041       3.86001268      -0.00304910       0.00506042       0.00023581
C       -3.71289462       7.83878168       3.85592671      -0.00578850      -0.00265431       0.00071510
C       -4.93911775       9.97375392       3.76273519       0.00755056      -0.00872288      -0.00548286
C        2.46570596       1.43285162       3.72404717      -0.00411480       0.00073307      -0.00097633
S        1.30531080       3.63746329       2.68110011       0.00905294      -0.00301918       0.00233516
C       -0.01514188       5.72511569       3.73790391       0.00452480       0.00439194       0.00033637
C       -1.25069500       7.84694139       3.93528318      -0.00539716      -0.00266689       0.00753498
C       -2.47391254       9.97912686       3.91346410      -0.00169498      -0.00113111       0.01263565
C        4.93758431       1.43089921       3.92779825      -0.00392808       0.00984985       0.00890182
C        3.73754045       3.57975572       3.89199981      -0.00076031      -0.00352770      -0.00226240
C        1.23716176       7.77385127       3.84663190       0.01080493      -0.00611835       0.00958833
C        0.00078653       9.96213936       3.94137133       0.00084013      -0.00463392       0.00428284
C        7.41816896       1.40750033       3.91963511       0.00837607       0.00222156       0.01091373
C        6.19933257       3.53757445       3.86791462      -0.00015133       0.00044533      -0.00454880
C        5.01145959       5.63782157       3.44429213       0.01079974      -0.00604927      -0.01205448
C        3.68513384       7.89458495       3.41776014      -0.00425477      -0.00655292      -0.00327427
C        2.47185347       9.95805635       3.82523408      -0.00093466      -0.00030405       0.01357673
C        9.88327498       1.42454615       3.75960337       0.00453312       0.00499721       0.00752654
C        8.64480609       3.55317784       3.86198707      -0.00197146      -0.00289703      -0.01507141
C        7.40829790       5.69056970       3.80152649       0.00901710      -0.00501456       0.00598956
C        6.16237813       7.82739518       3.61975851      -0.00690422       0.00518011       0.00039455
C        4.93334931       9.96837792       3.69952648      -0.00752540       0.00809092      -0.00874427
Cu       2.46691074       4.98312621       4.45244633      -0.00072567       0.00075445      -0.01902155
O        2.46690292       4.98367255       6.18206622       0.00005334      -0.00017223       0.01246878
