50
Lattice="12.336457 0.0 0.0 -6.168228499999997 10.683685154694365 0.0 0.0 0.0 15.0" Properties=species:S:1:pos:R:3:forces:R:3 energy=-439.2731145295516 free_energy=-439.2731145295516 stress="-0.006962741872553259 0.0015305541648880387 1.9090840625384496e-06 0.0015305541648880387 0.0008071354389254211 2.7061240798032193e-06 1.9090840625384496e-06 2.7061240798032193e-06 -1.6730465514185702e-05" pbc="T T T"
C       -0.01765419      -0.00179729       3.76435034       0.00273083      -0.01124774       0.01018244
C       -1.25343846       2.11524136       3.87151610      -0.00217375      -0.00463976      -0.01108108
C       -2.48117905       4.25835661       3.85326310      -0.01138531       0.00059250      -0.00197528
C       -3.71680848       6.40334186       3.74548265      -0.00022959      -0.00344851       0.01042703
C       -4.95587280       8.54821954       3.66811018       0.01424210      -0.00630130      -0.00089677
C        2.44883884       0.02493665       3.81497546       0.00146587      -0.00519336      -0.00816387
C        1.21851232       2.17803763       3.87358660       0.00183322       0.00075507       0.00495211
C       -0.02596951       4.26349324       3.90597066       0.00349659       0.00461307       0.00125451
C       -1.27253851       6.41597071       3.87384716      -0.00348807      -0.00075462       0.00303985
C       -2.49621996       8.55388746       3.82964141      -0.01002129      -0.00519770      -0.00333538
C        4.92207977      -0.00622648       3.86416655       0.00334066       0.00853149       0.00137521
C        3.70037693       2.16627503       3.78438820      -0.00794379       0.00545697      -0.00446297
N        1.13198642       6.39792455       3.85002162       0.00483540       0.00249983       0.00408997
C       -0.02492364       8.51969085       3.87778711      -0.00486947      -0.00481334       0.00322196
C        7.39538476      -0.03997971       3.88747578       0.00444208       0.00810570      -0.00808304
C        6.18210465       2.09889378       3.80031503       0.00340179       0.01072677       0.00846559
C        4.98550322       4.21345702       3.48167823      -0.00090282      -0.00387272       0.00220651
P        3.54762722       6.28345966       2.59838525      -0.00542055      -0.00153695      -0.01680719
C        2.44257785       8.49778979       3.70270606       0.00237703       0.00535675       0.00329402
C        9.85398204      -0.03567539       3.80948858      -0.00823367      -0.00112720       0.00463588
C        8.63155434       2.10502675       3.86095881       0.00097409      -0.00755789       0.00169774
C        7.41895085       4.24832964       3.71209822       0.00227693      -0.00262270      -0.00558216
C        6.18805591       6.39465421       3.44437067       0.00304495       0.00130733      -0.00442168
C        4.91543761       8.52976760       3.52263339       0.00389652       0.00939368       0.00494348
C       -0.02101895       1.42292423       3.84509462       0.00322337      -0.00817360       0.00368939
C       -1.26030499       3.54090648       3.88857862      -0.00379816       0.00484863      -0.00797834
C       -2.49016516       5.68885442       3.83395668      -0.00488342       0.00140431       0.00296426
C       -3.72344787       7.83542937       3.74527609       0.00183756      -0.01116051       0.00346773
C       -4.95006404       9.97839058       3.74785640       0.00673357      -0.01078782       0.00124593
C        2.45516309       1.44941718       3.84031849      -0.00164013      -0.00467701      -0.00241011
C        1.17009612       3.57821727       3.94131386      -0.00065695      -0.00144098       0.00933748
C       -0.03949175       5.72171540       3.88649739       0.00280849       0.00935053       0.00127468
C       -1.26758519       7.83560204       3.87222120      -0.01313267      -0.00197099      -0.00212050
C       -2.48947429       9.98046313       3.83796398       0.00019797      -0.00230231       0.00120012
C        4.93950952       1.41147848       3.82104932      -0.00215231       0.01434309       0.00447326
C        3.76579568       3.55884670       3.67481651       0.00184415      -0.00209563      -0.00203709
C        1.19117189       7.76569074       3.81854578       0.00177191      -0.00135517       0.00247347
C       -0.01465896       9.94479659       3.88562755       0.00557479       0.00074210      -0.00443686
C        7.40656837       1.38301804       3.86474290       0.00122060       0.00627909       0.00475143
C        6.20786794       3.51201890       3.66811491       0.00260511       0.00442080      -0.00059583
C        5.01857052       5.63356626       3.25999038      -0.00028524      -0.00265220      -0.00825073
C        3.66327054       7.84416951       3.40446895       0.00166475       0.00550755      -0.00490942
C        2.45158238       9.91984638       3.83157199      -0.00239442       0.00442849      -0.00694073
C        9.85410934       1.38971295       3.86317865      -0.00271657      -0.00870420      -0.00467694
C        8.63594228       3.53630429       3.82182148      -0.00475509      -0.00939594      -0.00043024
C        7.41054497       5.67998715       3.64144908       0.00366305      -0.00167217      -0.00221496
C        6.16102893       7.82886202       3.51285022       0.01195991       0.00809214      -0.00462955
C        4.92028468       9.95047054       3.70799551      -0.00505609       0.00395176       0.00849443
Cu       2.51439725       4.90666160       4.27826129      -0.00196307       0.00872794       0.00776310
O        3.08103361       5.66252232       5.74045194       0.00063914      -0.00473326       0.00151915
