50
Lattice="12.336457 0.0 0.0 -6.168228499999997 10.683685154694365 0.0 0.0 0.0 15.0" Properties=species:S:1:pos:R:3:forces:R:3 energy=-433.2803890281824 free_energy=-433.2803890281824 stress="-0.004424397918707239 -0.0023371748174100494 -4.8184609286592355e-05 -0.0023371748174100494 -0.006822825370765102 -3.970969276184912e-05 -4.8184609286592355e-05 -3.970969276184912e-05 7.443532336363269e-06" pbc="T T T"
C       -0.00198750       0.00552918       3.72352112       0.00495778      -0.00806910      -0.00707789
C       -1.25346960       2.13579560       3.48497754      -0.00856201       0.00323666      -0.00081710
C       -2.49154554       4.28566077       3.57700342      -0.00563906       0.00327203       0.00596881
C       -3.68631225       6.42833707       3.78495961       0.00163513       0.01336815       0.00064215
C       -4.91175650       8.56429431       3.83492723      -0.00124983      -0.00085831       0.01118224
C        2.46897673      -0.01352339       3.70627080       0.00614272       0.00982935      -0.00230527
C        1.22477981       2.04892501       3.29098886      -0.00194916      -0.00549791      -0.01339572
C       -0.15458370       4.27051783       2.91758315      -0.00668995       0.01000426      -0.02095703
C       -1.26204394       6.43210745       3.37183530      -0.00390387       0.00015523      -0.00851900
C       -2.44821609       8.55657911       3.66972611       0.00340416       0.00569113       0.00834887
C        4.94037191       0.01932150       3.80385798      -0.00268685       0.00255543       0.01313495
C        3.65399952       2.10212698       3.95157260       0.02187908      -0.02243131      -0.00648742
P        1.48063014       6.37235592       2.69221688       0.00532427       0.00675902       0.01176010
C        0.00851137       8.57897493       3.56123667       0.00010643      -0.00296783       0.01122813
C        7.39973706       0.03229188       3.84663400      -0.00454500      -0.00141301       0.00554933
C        6.15758139       2.16576935       4.06550241      -0.00428290      -0.00942470       0.00456339
C        5.04355075       4.36072104       4.48420727      -0.03223656       0.00300019      -0.01978977
C        3.75270073       6.46065091       4.21494220       0.00063377       0.00877975       0.00907440
C        2.48316220       8.59206092       3.81182931       0.00675277      -0.01887686       0.00949127
C        9.87461416       0.02719614       3.83620790      -0.00480567      -0.00036207      -0.00159070
C        8.62930167       2.16053546       3.83257212       0.00031276      -0.00037511       0.01095531
C        7.42287806       4.30185466       4.02086306       0.00367464      -0.00157489       0.00188243
C        6.22048590       6.46552869       4.10858778      -0.00783319       0.00534106      -0.00112481
C        4.95800317       8.57521449       3.96916593      -0.01099019      -0.00916559       0.01160031
C       -0.01835350       1.41796345       3.49490513      -0.00043351      -0.00678860      -0.01411007
C       -1.28900065       3.54604723       3.31604913      -0.00620077       0.01031685      -0.01038008
C       -2.47820595       5.71148151       3.58061306      -0.00716949       0.00260481       0.00518170
C       -3.68261963       7.85051369       3.76232576       0.00638883       0.00996595      -0.00067321
C       -4.93278950       9.97540165       3.74553329       0.01174348       0.00032113      -0.00881647
C        2.44703746       1.39714245       3.65236471      -0.01403392      -0.02977686      -0.01399932
S        1.27996088       3.47817163       2.32954179       0.00311031      -0.00086163      -0.00889801
C       -0.11307271       5.68196277       3.01282082      -0.00259829      -0.00021504      -0.01903048
C       -1.22246007       7.85371843       3.52000770       0.00345661      -0.00003892       0.01281319
C       -2.45317392       9.97686542       3.73575841      -0.00652034      -0.00386696       0.00531144
C        4.92552180       1.44492353       3.96910933       0.01949186      -0.01628856       0.00917706
P        3.49482860       3.63193608       4.70622044      -0.03260133       0.00105731       0.03042456
C        1.27022643       7.92711679       3.48701365       0.00155046      -0.00341389       0.00736451
C        0.00458263       9.99841965       3.75234968      -0.00364168      -0.00338968       0.01298063
C        7.39115136       1.45641618       3.92933151       0.00009714       0.00227602       0.01221772
C        6.19347617       3.59266303       4.21144268       0.01656117      -0.00198189      -0.00764019
C        4.98637641       5.78366939       4.30938013       0.00342794       0.01010828      -0.00088308
C        3.71806253       7.84989445       4.00102107      -0.00417579      -0.01640934       0.01945078
C        2.47208912      10.00845050       3.85956009      -0.00355425      -0.00648246       0.00716024
C        9.86755860       1.44636913       3.72655547      -0.00445282       0.00318101       0.00609721
C        8.63174038       3.58316957       3.81927984      -0.00732392       0.00336893       0.00003881
C        7.42982016       5.72793845       3.98864970       0.00379752      -0.00762063       0.00432487
C        6.19799722       7.87255357       3.97657991      -0.01511223      -0.00455353       0.00889476
C        4.93954128       9.98978797       3.84979450      -0.00047069       0.00439033      -0.00559496
Cu       2.21482897       5.38754273       4.57420823       0.02910655       0.03035041      -0.07071222
O        2.65226511       3.81556005       5.97504105       0.05010792       0.03277139      -0.01401635
