49
Lattice="12.336457 0.0 0.0 -6.168228499999997 10.683685154694365 0.0 0.0 0.0 15.0" Properties=species:S:1:pos:R:3:forces:R:3 energy=-433.8465893262575 free_energy=-433.8465893262575 stress="-0.0065770447397402974 -0.002599651867397705 1.5835095051923233e-07 -0.002599651867397705 0.0034608162582976066 -6.877529540790294e-07 1.5835095051923233e-07 -6.877529540790294e-07 3.831069360776419e-07" pbc="T T T"
C        0.00052521       0.00388638       3.74904115      -0.00514855       0.00718464      -0.00044133
C       -1.26349278       2.11084995       3.73700833       0.00399407       0.00428996       0.00023877
C       -2.49017427       4.26762425       3.72942381       0.00691841      -0.00359777       0.00378360
C       -3.69588197       6.41861109       3.73607581       0.00235551      -0.00819077      -0.00028486
C       -4.92293408       8.56817804       3.74648846      -0.00565390      -0.00002220       0.00274412
C        2.46106440       0.05543949       3.75471479       0.00070536       0.00247327      -0.00424203
C        1.18374048       2.13180681       3.75908804       0.00129925      -0.00153378      -0.00268514
C       -0.08418916       4.24333810       3.74201847       0.00082936      -0.00838869       0.00065212
C       -1.25698989       6.40704377       3.73634427       0.00596343       0.00436419      -0.00324133
C       -2.46976496       8.56987580       3.74056183       0.00482053       0.00668389      -0.00031342
C        4.93410454       0.01335264       3.75146360       0.00070486       0.00412492       0.00369819
C        3.69446851       2.22255474       3.77275923      -0.00752487       0.00440542      -0.00798124
C        1.17280739       6.36132691       3.76690643      -0.00155474      -0.00665936      -0.00963151
C        0.00138070       8.52283430       3.75131504       0.01168763      -0.00217599      -0.00705781
C        7.40675970      -0.03368674       3.75181546      -0.00245073      -0.01198111       0.00164666
C        6.17319364       2.13223305       3.75580330      -0.00732045      -0.00512688       0.00269216
C        4.95318457       4.30506854       3.77785605       0.00160126       0.00516595      -0.00788401
O        3.83039067       6.44274356       3.81560761       0.00725309       0.01271448       0.00847868
C        2.49728111       8.47287010       3.76899780      -0.00100163       0.00313881      -0.01138178
C        9.85952786      -0.03789664       3.75007445       0.00679507      -0.00783138      -0.00397755
C        8.62535634       2.11536404       3.74009416      -0.00083871       0.00234721       0.00175383
C        7.40848517       4.27306683       3.74604232      -0.01217570       0.00758513      -0.00253934
C        6.20514060       6.43239603       3.75631202      -0.00559403       0.00353859       0.00280012
C        4.95491416       8.54144245       3.75841090      -0.00389266      -0.01143511       0.00266375
C       -0.02109239       1.42510369       3.74678122      -0.00016677       0.00964488       0.00153899
C       -1.27124535       3.53403528       3.73089051       0.00241420      -0.00390907       0.00113905
C       -2.47458563       5.69323762       3.73110658       0.00956764      -0.00601662       0.00158974
C       -3.69162163       7.85099124       3.73951245       0.00079124       0.00085925       0.00232505
C       -4.92586959      10.00440653       3.75030626      -0.00664847       0.00850311      -0.00119339
C        2.43649733       1.49338424       3.76529458       0.00142804      -0.00024574      -0.00612773
O        1.10370340       3.52379103       3.76359259      -0.00075174      -0.00399597       0.00092377
C       -0.01938275       5.66144020       3.74669689      -0.00079685      -0.00786747      -0.00431834
C       -1.23952790       7.83425322       3.73985435       0.00839094       0.00632479       0.01291230
C       -2.47308902      10.00029187       3.74849531       0.00348330       0.00660420       0.00455947
C        4.93222441       1.44374265       3.76047491      -0.01012898       0.00085052       0.00379342
C        3.76078646       3.60510249       3.78599707       0.00650358       0.00679482      -0.00457295
C        1.23914466       7.74388720       3.76355130       0.00828782      -0.00223365       0.00164154
C       -0.00045812       9.95328099       3.74961726      -0.00103925      -0.00596623       0.01498377
C        7.40341677       1.39664599       3.74871333      -0.00310992      -0.00715675      -0.00270426
C        6.19081014       3.55936386       3.75978248      -0.00678092      -0.00087479       0.00000091
C        5.01810568       5.72316136       3.77876147      -0.00261224       0.00805704       0.00027838
C        3.75016678       7.83441591       3.77429358      -0.00469819       0.00401317       0.00444817
C        2.47260475       9.91097431       3.75718796       0.00100171      -0.00322268      -0.00419671
C        9.85669459       1.39837407       3.73971260       0.00569193      -0.00379952       0.00565360
C        8.62977681       3.54771447       3.73584159      -0.00609753       0.00923361       0.00237590
C        7.42403148       5.69869715       3.74452660      -0.00758891       0.00514906      -0.00151123
C        6.19729975       7.85567846       3.75430217      -0.00383598      -0.00638203      -0.00654009
C        4.93319222       9.96286040       3.75064515       0.00479110      -0.01596291       0.00527036
Cu       2.46691254       4.98339139       3.79455801       0.00013240       0.00052555      -0.00176040
