50
Lattice="12.336457 0.0 0.0 -6.168228499999997 10.683685154694365 0.0 0.0 0.0 15.0" Properties=species:S:1:pos:R:3:forces:R:3 energy=-442.6392727432048 free_energy=-442.6392727432048 stress="-0.007712966095049235 -0.001085421298219268 6.821102012284658e-06 -0.001085421298219268 -0.0014772537157296919 -1.881379057529549e-06 6.821102012284658e-06 -1.881379057529549e-06 -3.9073376930311065e-06" pbc="T T T"
C       -0.02298295       0.03686803       3.63276506      -0.00319550      -0.00144866       0.00761344
C       -1.27288313       2.14542433       3.64163300       0.00750864       0.00263153       0.00552353
C       -2.50098460       4.28794895       3.58529077      -0.00279398       0.00170815       0.00485791
C       -3.71738858       6.44123166       3.54105881       0.00287011      -0.00268763       0.00557698
C       -4.94582957       8.59101778       3.55595041      -0.00418567       0.00554855       0.00018221
C        2.44273560       0.03248246       3.69653751       0.00431486      -0.00172377      -0.00084999
C        1.20643420       2.20425010       3.82060014      -0.00862907      -0.00005161      -0.01266877
C       -0.04231592       4.27927607       3.68612603      -0.00204833       0.00349665      -0.00501583
C       -1.29010640       6.44679755       3.56073968       0.00301348       0.00228147      -0.00844770
C       -2.49486100       8.58379894       3.57424785       0.00215974      -0.00809419      -0.01249807
C        4.91445534       0.01538367       3.76372723       0.00313896       0.00309860       0.00429334
C        3.66413185       2.07024253       4.17609282      -0.00830715      -0.00980363      -0.00018279
C        1.11881265       6.43155024       3.70268137       0.00075676       0.00171296      -0.00694313
C       -0.03190779       8.56040033       3.63586272       0.00465967      -0.00175499      -0.00385454
C        7.38094297       0.00101925       3.71816138       0.00067028      -0.01069387       0.00346981
C        6.14933149       2.15371194       3.92336473       0.00335214       0.00476225       0.00180503
C        5.01513253       4.38232964       4.15785574      -0.00495209       0.00496087       0.00769003
N        3.79915299       6.45775054       3.85366551      -0.00388395      -0.00403949       0.00047735
C        2.45954098       8.52462043       3.68454490       0.00187868       0.00001972       0.01166083
C        9.84017404       0.00172345       3.65046354       0.00148729       0.00202777      -0.00625953
C        8.60459889       2.14514701       3.68383300       0.00071129       0.00068839       0.00119323
C        7.39416167       4.30043885       3.71372638      -0.00668745       0.00207849      -0.00052593
C        6.19474668       6.46912619       3.67761461       0.00354781      -0.00655878       0.00133492
C        4.93005664       8.56987843       3.63803750      -0.00007750      -0.00167626      -0.00499674
C       -0.03079031       1.45855015       3.68575247      -0.00137518      -0.00438938       0.00085307
C       -1.28049242       3.56461135       3.62385965      -0.00196569       0.00091099      -0.00469211
C       -2.50212349       5.71943658       3.54683894       0.00538392       0.00059076      -0.00095318
C       -3.71887331       7.87027025       3.53771179      -0.00559732      -0.00260725      -0.00497563
C       -4.95479855      10.01184988       3.60772501       0.00073576       0.00768844      -0.00300307
C        2.44032531       1.44281353       3.89481684      -0.01118996      -0.00273384      -0.00650491
C        1.16711421       3.60610496       3.84164238       0.00363660       0.00531230      -0.00853219
C       -0.06594152       5.72778319       3.63772068      -0.00239435      -0.00100317      -0.00527758
C       -1.26677469       7.86668499       3.57750299       0.00717546      -0.00300913       0.00120958
C       -2.49095679      10.00269912       3.66930330       0.00783670      -0.00578466       0.00165519
C        4.91633956       1.43079071       3.96739656      -0.00198421       0.00551816       0.01037426
P        3.59350781       3.64222746       4.94577076       0.00039469       0.00979148      -0.00828222
C        1.21057112       7.81283002       3.66952379       0.00233987       0.00174055      -0.00361004
C       -0.02223867       9.97990870       3.69886939       0.00029933      -0.00358258       0.00360812
C        7.37110826       1.43390397       3.77054557      -0.00025871      -0.00601390      -0.00651974
C        6.16409543       3.59865303       3.93969674      -0.00238053       0.00502196      -0.00128233
C        4.98779711       5.78345010       3.90215223      -0.00259434      -0.00171856       0.00559547
C        3.71269690       7.81421956       3.71584638      -0.00070625       0.00770345       0.01166792
C        2.44644425       9.95249104       3.67514361       0.00309319      -0.00420220       0.00889948
C        9.83030555       1.42623596       3.64451314       0.00818491       0.00511223       0.00573916
C        8.60864165       3.57550988       3.64515549      -0.00563700       0.00304429       0.00273874
C        7.40155558       5.72634490       3.62579236       0.00246320      -0.00246589       0.00263062
C        6.16645188       7.88055079       3.59900414       0.00032852      -0.00279072       0.00522497
C        4.91326516       9.99085752       3.62642302      -0.00239038      -0.00119884      -0.00394684
Cu       2.39752445       5.11725860       3.87846524       0.00202033       0.00647184      -0.00073237
O        3.50141170       3.69780619       6.43286443      -0.00072758      -0.00388886       0.00468005
