52
Lattice="12.336457 0.0 0.0 -6.168228499999997 10.683685154694365 0.0 0.0 0.0 15.0" Properties=species:S:1:pos:R:3:forces:R:3 energy=-445.772564818302 free_energy=-445.772564818302 stress="-0.005300219203936102 -0.0008087470683354678 1.4396435324826177e-05 -0.0008087470683354678 0.0017589390901285014 1.9802529530293774e-05 1.4396435324826177e-05 1.9802529530293774e-05 2.0607545724163685e-05" pbc="T T T"
C        0.01037329       0.00499184       3.73654643       0.00288302      -0.00300555      -0.00208087
C       -1.23573492       2.12738158       3.56559496       0.00531525      -0.00171501      -0.00648946
C       -2.49309048       4.27083172       3.71171114       0.00610317       0.00119932       0.00229669
C       -3.70918791       6.41454102       3.85181325       0.00239536       0.00532544       0.00694801
C       -4.92575385       8.55758719       3.86549941      -0.00851659       0.00050529       0.00674122
C        2.47716503       0.01806873       3.83574795       0.00095834       0.00633331      -0.00155405
C        1.25484640       2.07807033       3.41132708       0.00059385      -0.00300476       0.00149921
C       -0.09794929       4.32195581       3.37032330       0.00619148      -0.00245474       0.00012293
C       -1.28055747       6.43037760       3.77600814       0.00081577      -0.00659811      -0.00065143
C       -2.46890924       8.56324989       3.90062758       0.00584004       0.00557995       0.00319744
C        4.94720750       0.00359424       3.89515526      -0.00114286       0.01103324      -0.00071351
C        3.70837909       2.19840711       3.82025086      -0.00437102       0.00058086       0.01300130
C        1.15793335       6.36979541       3.83302387       0.00368692      -0.00572670      -0.01446415
C        0.01020768       8.52505143       3.88454937       0.00250295       0.00090136       0.00324417
C        7.42053276      -0.02918452       3.85731126       0.00497604      -0.00654809      -0.00229406
C        6.18210453       2.13354055       3.85883324      -0.00592889       0.00126780       0.00461635
C        4.91713828       4.29962276       3.83592890      -0.00188092       0.00288115       0.00717242
O        3.82973782       6.46208349       3.72487245       0.00041190       0.00793604       0.01185770
C        2.50675745       8.48144958       3.84269289      -0.00196836      -0.00952730       0.00234358
C        9.87539144      -0.02565684       3.76772171      -0.00105087      -0.00406499       0.00423409
C        8.64012381       2.12027410       3.76944630      -0.00363591       0.00966366       0.00494086
C        7.39788953       4.26984365       3.82883166      -0.00519433       0.00234650      -0.00451608
C        6.18910845       6.42386668       3.84421600       0.00163473      -0.00494568      -0.00275945
C        4.96101704       8.54663945       3.82655026      -0.00387205       0.00098041      -0.00208022
C        0.00303299       1.42483943       3.56371096       0.00407510      -0.00345580       0.00163519
C       -1.26282733       3.55503206       3.54120390       0.00716193      -0.00159547      -0.00235393
C       -2.49180544       5.69794113       3.78288942      -0.00019111      -0.00045569      -0.00246636
C       -3.69546959       7.84396070       3.88237948      -0.00082658       0.00880063       0.00512813
C       -4.92315640       9.98792026       3.81951494       0.00009355       0.00172762       0.00115779
C        2.47667539       1.44232129       3.71429461      -0.00015793       0.00347863       0.00148193
S        1.30699322       3.62838410       2.63605592       0.00095140      -0.00839703       0.00151701
C       -0.04659022       5.71999676       3.64032080       0.00083594      -0.00524434       0.00045719
C       -1.23988197       7.84598791       3.87431773       0.00415203      -0.00490416      -0.00170718
C       -2.45875434       9.98406453       3.90162261       0.00269613       0.00882285      -0.01199093
C        4.94716441       1.43439602       3.87234798      -0.00714038       0.00660160       0.00312529
C        3.72891648       3.58366535       3.90892301       0.00625930      -0.00289596      -0.00567939
C        1.25025254       7.74637016       3.86173922       0.00002468      -0.00722816      -0.00599992
C        0.01353024       9.95265604       3.89271491      -0.00048815       0.00561681      -0.01205448
C        7.41741409       1.40128779       3.83739976      -0.00275413      -0.00007997      -0.00492257
C        6.17398169       3.56220803       3.83955145      -0.00553687       0.00002451      -0.00000426
C        4.99070011       5.72726161       3.78405676      -0.00260644       0.00438885       0.01161854
C        3.75746490       7.83392159       3.79878464      -0.00087408       0.00292063       0.00507602
C        2.48692792       9.91797652       3.82960936       0.00259193      -0.01317695      -0.00415313
C        9.87805764       1.41077696       3.70280145      -0.00072043       0.00128782       0.00701879
C        8.62871318       3.54878123       3.77648458      -0.00097883       0.01143413      -0.00063257
C        7.40755797       5.69373260       3.84907315       0.00491256       0.00086119       0.00044890
C        6.19160141       7.84724770       3.85104163      -0.00773022      -0.00477398      -0.00656490
C        4.94372599       9.96907586       3.78340147       0.00152361      -0.00110572      -0.00268604
Cu       2.33299396       4.90092756       4.31129479      -0.00782798       0.00378969      -0.00080373
O        2.85408553       5.54531584       6.05956374      -0.00257377       0.00212301      -0.00335254
O        2.12001751       4.72361989       6.96655820       0.00614426      -0.00833049      -0.00369609
H        2.81606898       4.47614548       7.60971201      -0.00776253      -0.00917763      -0.00420945
