51
Lattice="12.336457 0.0 0.0 -6.168228499999997 10.683685154694365 0.0 0.0 0.0 15.0" Properties=species:S:1:pos:R:3:initial_magmoms:R:1:forces:R:3 energy=-439.5231417044294 free_energy=-439.5231417044294 stress="-0.004023812541901687 5.280778612805558e-06 -2.9752456223143874e-05 5.280778612805558e-06 -0.0016423657431913943 -5.745623271301649e-06 -2.9752456223143874e-05 -5.745623271301649e-06 8.40368391572553e-06" pbc="T T T"
C       -0.02393433       0.00896648       3.85874689       0.00000000       0.00964230      -0.00023307      -0.00231907
C       -1.26668734       2.12672844       3.95943954       0.00000000       0.00262494       0.00282828      -0.00230497
C       -2.49749311       4.26665587       3.95313230       0.00000000      -0.00730808       0.00307027       0.00138032
C       -3.72146727       6.40943548       3.85234374       0.00000000      -0.00166836       0.00053630      -0.00494009
C       -4.96764909       8.54756537       3.77696002       0.00000000      -0.00281545      -0.00027820       0.00236579
C        2.44112519       0.00408467       3.83352478       0.00000000       0.00148217       0.00162074      -0.00512890
C        1.21731628       2.17976413       3.83557181       0.00000000      -0.00530409       0.00154039      -0.00154852
C       -0.02925090       4.25676496       3.99556422       0.00000000      -0.00305800       0.00117205       0.00389521
C       -1.27579968       6.41632276       3.99551515       0.00000000      -0.00021992      -0.00105793      -0.00166236
C       -2.50131081       8.54840498       3.91445154       0.00000000      -0.01054760      -0.00046308       0.00734390
C        4.91101785      -0.01346553       3.79129655       0.00000000       0.00464649       0.00234275      -0.00579617
C        3.66986805       2.04387918       3.35972396       0.00000000      -0.00486932       0.00241389       0.00376683
C        1.17150400       6.39430704       3.93302703       0.00000000       0.00185590      -0.01024293      -0.00691937
C       -0.02449519       8.52678747       3.91281228       0.00000000      -0.00058125      -0.00491321       0.00243836
C        7.37367064      -0.01371105       3.84390827       0.00000000      -0.00316741       0.00286387      -0.00189281
C        6.15054561       2.11775244       3.57758955       0.00000000       0.00106586      -0.00024164       0.00062325
C        5.06757720       4.28397533       3.04557754       0.00000000       0.00090740      -0.00174167       0.01545301
S        3.60184988       6.43113946       2.49191206       0.00000000      -0.01047495      -0.00939967      -0.00165111
C        2.44692146       8.53544344       3.70484340       0.00000000      -0.00237244      -0.00031512      -0.00222157
C        9.84172218      -0.00934105       3.85450890       0.00000000      -0.00294436       0.00302172       0.00052382
C        8.60721462       2.12664133       3.85835844       0.00000000      -0.00262263      -0.00359331       0.00393313
C        7.40243832       4.26796976       3.67444416       0.00000000      -0.00090117      -0.00451876       0.00231305
C        6.19028126       6.42388422       3.44247556       0.00000000       0.01025818       0.00000232       0.00084894
C        4.91697354       8.55807032       3.57348907       0.00000000       0.00565992       0.01012943       0.00032259
C       -0.02459199       1.43506868       3.91356789       0.00000000       0.00186156      -0.00100524      -0.00222577
C       -1.27541652       3.54519745       3.99607988       0.00000000      -0.00448291       0.00450956      -0.00426196
C       -2.49783701       5.69484338       3.95299958       0.00000000      -0.00296694       0.00298248       0.00127220
C       -3.72915192       7.83526608       3.85854002       0.00000000      -0.00979356      -0.00109014       0.00212146
C       -4.96348326       9.97524281       3.84386068       0.00000000       0.00626093      -0.00246601      -0.00052011
C        2.44710495       1.42588544       3.70513601       0.00000000      -0.00559185       0.00285949      -0.00247039
C        1.17212852       3.56784109       3.93200468       0.00000000      -0.00594744       0.00003145      -0.00067493
C       -0.02950463       5.70503691       3.99591133       0.00000000      -0.00083924      -0.00370705       0.00087899
C       -1.26636693       7.83477209       3.95858869       0.00000000      -0.00600003      -0.00050527      -0.00296596
C       -2.49487690       9.97057660       3.85378459       0.00000000       0.00146949       0.00188283       0.00260923
C        4.91756481       1.40287451       3.57416880       0.00000000       0.00012827       0.00316254      -0.00377674
S        3.60132482       3.53068355       2.49325145       0.00000000      -0.00035912       0.00088410      -0.00013549
C        1.21702589       7.78213885       3.83573781       0.00000000      -0.00033878      -0.01053042      -0.00186808
C       -0.02336475       9.95269806       3.85877093       0.00000000       0.00267743      -0.00207981      -0.00462342
C        7.36913391       1.41400887       3.77635279       0.00000000      -0.00252378       0.00037446       0.00740481
C        6.19096256       3.53794267       3.44201438       0.00000000       0.00381912      -0.00410318      -0.00176695
C        5.06657126       5.67764323       3.04753147       0.00000000       0.00936887      -0.00225586       0.00351134
C        3.66919654       7.91726262       3.35876453       0.00000000       0.00386758       0.00304943       0.00761089
C        2.44154411       9.95712909       3.83360732       0.00000000      -0.00618498       0.00295663      -0.00379970
C        9.83472403       1.41305950       3.91542954       0.00000000       0.00041758       0.00141817       0.00437342
C        8.61525564       3.55256411       3.85215564       0.00000000      -0.00417638      -0.00423414      -0.00398112
C        7.40203655       5.69436388       3.67456362       0.00000000       0.00464616      -0.00448684       0.00330862
C        6.15012002       7.84378689       3.57736596       0.00000000       0.00359771       0.00269811       0.00380695
C        4.91078576       9.97435389       3.79137620       0.00000000       0.00475912       0.01024533      -0.00573615
Cu       2.42198414       4.98048503       4.16346590       0.00000000       0.00193366       0.00480872      -0.00499975
O        2.39325352       4.99291549       6.71341069       1.00000000       0.01490295      -0.00001638       0.00864162
O        3.29937612       4.98764449       5.84116208       1.00000000       0.01020645       0.00007365      -0.01055626
