50
Lattice="12.336457 0.0 0.0 -6.168228499999997 10.683685154694365 0.0 0.0 0.0 15.0" Properties=species:S:1:pos:R:3:forces:R:3 energy=-439.370432592137 free_energy=-439.370432592137 stress="-0.006261309656783984 0.0005503249505423419 -3.0621832536721594e-06 0.0005503249505423419 0.0005709296686766259 -1.556022493279088e-05 -3.0621832536721594e-06 -1.556022493279088e-05 1.3433700129350305e-06" pbc="T T T"
C        0.00451898       0.00617562       3.71332538       0.00706992      -0.01006582       0.00049578
C       -1.23668878       2.12751707       3.51824797      -0.00622687      -0.00140382       0.00216987
C       -2.48615585       4.27383511       3.61472115      -0.00511137      -0.00104963       0.00149103
C       -3.71062982       6.41794041       3.78264349      -0.00992825       0.01108727       0.00787240
C       -4.92992109       8.56148948       3.84666297       0.00735279      -0.00184821      -0.00871382
C        2.47060959       0.01556761       3.84299777       0.00031292       0.00226087      -0.00889431
C        1.26320414       2.09781071       3.44320462      -0.00432392       0.00318815      -0.00741150
C       -0.07612486       4.32467107       3.31136891       0.00439598      -0.00105870       0.01284799
C       -1.28686979       6.44169332       3.67990477      -0.00379779      -0.00646956       0.00575188
C       -2.47673109       8.56686052       3.86329172      -0.00191401       0.00594214      -0.00064739
C        4.94065291       0.01147982       3.88902514      -0.00012197      -0.00653196       0.01345749
C        3.70861924       2.18549514       3.80183798       0.00502606      -0.00916265      -0.00256972
C        1.14315813       6.39934167       3.72324713       0.01735167      -0.00782095      -0.00216389
C       -0.00622218       8.54168244       3.84209865      -0.00764933      -0.00080042       0.01197278
C        7.41443489      -0.02295677       3.84336790       0.00645746       0.01081299      -0.01076990
C        6.18453853       2.12923674       3.84190242       0.00060036       0.00837122      -0.01247575
C        4.92748978       4.27784613       3.79011393      -0.00643140      -0.00396888      -0.01037955
N        3.80498633       6.42075781       3.94400293       0.00584935       0.00183198       0.00101925
C        2.48587712       8.50012449       3.86205739      -0.00558212      -0.00535137       0.00952114
C        9.87333183      -0.02003327       3.74940752      -0.00205214       0.00688717       0.00784895
C        8.64209963       2.12241320       3.71927733       0.00089850      -0.00484486       0.00604498
C        7.40299079       4.26863664       3.77192388       0.01335325      -0.00581446      -0.00882268
C        6.18961187       6.42529307       3.82201184      -0.00976949      -0.00517384      -0.00218113
C        4.94819937       8.53844901       3.83854845       0.00039541       0.00209768      -0.00467424
C        0.00781056       1.42643622       3.54063327      -0.00267402      -0.00617868       0.00853489
C       -1.25207061       3.56173373       3.45525341      -0.00374913       0.00299776      -0.00022414
C       -2.49423947       5.70423724       3.68873830      -0.01411744       0.00254608       0.00599235
C       -3.70360205       7.84644618       3.84152904       0.00389803       0.00977535      -0.00696355
C       -4.93197154       9.98618106       3.81159563       0.01080105      -0.00706126       0.00111678
C        2.47449916       1.43043159       3.72692527      -0.00327273       0.00248215      -0.00074852
P        1.48925601       3.71750100       2.77825300       0.00277167       0.00451842      -0.00604327
C       -0.06542449       5.73743957       3.53077855       0.01099857       0.00295843      -0.01010262
C       -1.25133277       7.85400695       3.81019154      -0.00923395      -0.00324914       0.00863078
C       -2.46622957       9.98711342       3.89070581      -0.00483598       0.00158075      -0.00070125
C        4.94604131       1.43767213       3.87375426       0.00519588      -0.00678512       0.00160960
C        3.71752802       3.59216312       3.76554954      -0.00318782      -0.00805089       0.00525030
C        1.23589511       7.78099916       3.81801942      -0.00552091      -0.00529136      -0.00405858
C        0.00439596       9.96200483       3.87367694       0.00481010       0.00319616       0.00557830
C        7.41780147       1.40406573       3.81188388      -0.00036081       0.01060778      -0.00093925
C        6.17825515       3.55558251       3.80408673       0.00483164       0.00759721      -0.00973295
C        4.96358987       5.73447263       3.83352232      -0.00862477      -0.00536104      -0.00231195
C        3.73288073       7.78331188       3.88591474       0.00039225      -0.00477670       0.00932831
C        2.48007572       9.92565975       3.82643675       0.00145585       0.00057236      -0.01135145
C        9.87649846       1.41008504       3.65909585      -0.00442145       0.00148904      -0.00002690
C        8.63441315       3.55417615       3.70232627       0.00800975      -0.01366841       0.01040855
C        7.40668271       5.69752755       3.79111202      -0.00526970      -0.00080358      -0.00706601
C        6.18021644       7.84543495       3.83998194       0.00127769      -0.00095035      -0.00714443
C        4.94033587       9.96337260       3.76653530      -0.00112790       0.00327853       0.00346226
Cu       2.44141756       5.10973630       4.31941627       0.00350675       0.01636728       0.01035826
O        2.21265401       4.64746114       5.95465923       0.00229234       0.01109492      -0.00364517
