50
Lattice="12.336457 0.0 0.0 -6.168228499999997 10.683685154694365 0.0 0.0 0.0 15.0" Properties=species:S:1:pos:R:3:forces:R:3 energy=-435.75903894102845 free_energy=-435.75903894102845 stress="-0.0013393082224027904 0.00289620762776892 -5.7497270191619094e-05 0.00289620762776892 0.0022282556087049404 -0.00013158222227839175 -5.7497270191619094e-05 -0.00013158222227839175 4.043247889165097e-05" pbc="T T T"
C        0.01919838       0.03999085       3.77403153      -0.01031959      -0.04237281       0.02067301
C       -1.19379450       2.18798070       3.87181494       0.00458337      -0.00730650      -0.01199297
C       -2.44659423       4.31882903       3.63406975       0.00583673       0.00126116      -0.01937168
C       -3.70166241       6.45194539       3.48990756       0.00284654       0.02194007       0.00637604
C       -4.92410854       8.59295206       3.59840848       0.00818157       0.03971826      -0.01630674
C        2.49680275       0.06585199       3.71477479       0.00995714      -0.03181946      -0.02401309
C        1.27349443       2.06250088       4.43074511      -0.01457212      -0.06910379      -0.07606859
C       -0.04998212       4.44615201       4.05166462      -0.00484732       0.03343230      -0.01671963
C       -1.25600936       6.48435529       3.50250265      -0.02041204      -0.00252079      -0.01669438
C       -2.46685937       8.60348230       3.47306823       0.02886559      -0.01917746       0.00055671
C        4.95453726       0.04010864       3.54667940      -0.00478228       0.01180526       0.01053965
C        3.76985873       2.15958836       3.79177417      -0.00979589       0.00068856       0.00132103
O        1.13412994       6.51260541       3.65971728      -0.02491272      -0.03206537      -0.02064611
C        0.00060144       8.59005937       3.49813702       0.00718607      -0.00459704       0.01048204
C        7.43383870       0.01480184       3.57009432       0.00852481      -0.00237628       0.01195257
C        6.21086436       2.15771303       3.56488282      -0.02960855       0.01561194       0.00752305
C        4.99294264       4.27175302       3.73383907      -0.00909055      -0.01198753       0.00824240
C        3.82328859       6.45333736       4.19760288       0.00803014       0.01342712      -0.03753949
C        2.45717855       8.52996540       3.74223667      -0.00501883      -0.03698126      -0.04164630
C        9.88957963       0.01934558       3.71526016      -0.01977653       0.00816807      -0.03954943
C        8.67714738       2.16414436       3.61430737      -0.03688888       0.02719610       0.00846329
C        7.42707412       4.30631230       3.55002664       0.00167626      -0.02005354       0.00792167
C        6.17882032       6.43249090       3.63084589       0.00946480       0.00010122      -0.03401969
C        4.94333807       8.56374415       3.73045582       0.00062423       0.01683833      -0.01052825
C        0.02138143       1.45259702       3.95230781      -0.00058201      -0.03229627      -0.03857891
C       -1.21458649       3.63358757       3.85652104       0.01888012       0.00350496       0.00217584
C       -2.47408009       5.74092563       3.52332490       0.01147504      -0.00021080       0.00242058
C       -3.70118323       7.88035306       3.50161085       0.00569402       0.03141311       0.00417708
C       -4.91175117      10.01756107       3.70102420      -0.00178150       0.02401446      -0.01341299
C        2.53739312       1.47715764       3.94776103      -0.00156414      -0.01180047      -0.02540050
P        1.34140016       3.89765228       4.97487474      -0.01655394       0.00333448       0.18688637
C       -0.05846662       5.82154016       3.71940015       0.02224574      -0.00065750      -0.00050156
C       -1.24549701       7.90035863       3.44902186       0.02737669      -0.01403067      -0.00335000
C       -2.45439059      10.03247208       3.55357599       0.01775649      -0.03436811       0.00727865
C        4.96894192       1.46255693       3.61758440      -0.03331298       0.01861426       0.01161081
O        3.81859052       3.54339224       3.76207114       0.03878004      -0.03601737      -0.03070845
C        1.20280312       7.88235042       3.62522705       0.01103771      -0.03722408       0.01668757
C        0.02495757      10.00871667       3.51544269       0.00546553       0.00286210       0.02686384
C        7.43839662       1.45010329       3.55800498      -0.02508664       0.01432722       0.04787348
C        6.19686941       3.58149136       3.58785347       0.00762217      -0.00389545       0.03200261
C        4.94041019       5.70134516       3.82699013      -0.02512803      -0.00439408       0.02222521
C        3.71128263       7.80125251       3.87050503      -0.00055031       0.02002969       0.02568506
C        2.48351386       9.96628263       3.66206598       0.00712103      -0.03727206       0.02197003
C        9.91009217       1.45575041       3.72119269      -0.03554230       0.02255153      -0.00945973
C        8.66261963       3.59400107       3.58030822       0.00059705       0.00400248       0.01919797
C        7.40629423       5.72898231       3.53565497       0.00799819      -0.01542924       0.02159020
C        6.17797561       7.86098010       3.64698245       0.00814981       0.02894149      -0.00007334
C        4.94984028       9.99315750       3.72208151      -0.02852434      -0.00012433       0.02742370
Cu       2.75954267       5.41961843       5.36691842       0.00113054       0.00494362       0.04605750
O        1.20636749       2.48933132       5.82715010       0.07154409       0.13935447      -0.12959614
