49
Lattice="12.336457 0.0 0.0 -6.168228499999997 10.683685154694365 0.0 0.0 0.0 15.0" Properties=species:S:1:pos:R:3:forces:R:3 energy=-426.05181684088126 free_energy=-426.05181684088126 stress="-0.0044394331408808 0.0007648708309808818 -9.827958473489623e-06 0.0007648708309808818 -0.0074313321748252495 3.297484468722809e-06 -9.827958473489623e-06 3.297484468722809e-06 -9.453255573564298e-07" pbc="T T T"
C       -0.00385887      -0.03140678       3.70116429      -0.00309601       0.00557190      -0.00121919
C       -1.22733761       2.12438347       3.63480980      -0.00461893       0.00149907       0.00484857
C       -2.45919381       4.26176612       3.72459208       0.00978368       0.00067982      -0.00899074
C       -3.69582410       6.39213548       3.71111935      -0.00442764       0.00725413      -0.00138273
C       -4.95007323       8.51104781       3.67164313      -0.00001538      -0.00322213      -0.00548472
C        2.45559317      -0.06834399       3.90404425       0.00704678      -0.00586420       0.01082700
C        1.25737346       2.04243112       3.58028615      -0.00466571      -0.00714874      -0.00199330
C       -0.02051290       4.31172933       3.55767027      -0.00407959       0.00777281       0.00971052
C       -1.25001502       6.40948055       3.85702759      -0.00390535       0.00127934       0.00438150
C       -2.47940418       8.52154749       3.90620891       0.01176173      -0.00808375       0.00509026
C        4.93215222      -0.02715579       4.03730993      -0.00014810       0.00254581      -0.00432691
C        3.67537304       2.04918455       4.09106530       0.00511267      -0.00010363       0.00863989
C        1.19804467       6.42550186       4.06029472       0.00405909      -0.00866490       0.00929771
C       -0.00586049       8.53396190       3.97470550      -0.00155331       0.00876018      -0.00290739
C        7.40193279      -0.00588428       3.96321538      -0.00181545      -0.00674790      -0.00586289
C        6.16917125       2.12721161       3.95588611      -0.00146765      -0.00616301      -0.01143888
C        4.99520464       4.29145715       3.52928693       0.00583208       0.01321423      -0.00091320
S        3.58737370       6.39813668       2.54352845      -0.00732523      -0.00299156      -0.01064677
C        2.46554329       8.54875321       3.75317891      -0.00635735       0.00482976      -0.00168879
C        9.87016779      -0.00729594       3.76304374       0.00060516      -0.00244473       0.00181104
C        8.64182470       2.12524965       3.81977871      -0.00402534      -0.00762610      -0.00523829
C        7.41991012       4.25568877       3.68869468      -0.00506841       0.00396614       0.00187675
C        6.20342003       6.40169128       3.35999017      -0.00096590      -0.00281003      -0.00134222
C        4.93031105       8.53649456       3.50330350       0.00515519       0.00221104       0.00013053
C        0.00110721       1.39607978       3.63122421      -0.00819048       0.00402152       0.00027155
C       -1.21880473       3.55600451       3.63021725       0.01240520       0.00046452       0.00545676
C       -2.46596955       5.68387722       3.77269989      -0.00434478       0.00468873      -0.00554452
C       -3.70722231       7.80999738       3.76229199       0.00444701       0.00268681       0.00059935
C       -4.94810548       9.92739332       3.76236297      -0.00179819      -0.00145600       0.00574960
C        2.45600445       1.34028566       3.89257812       0.00172422       0.00108555       0.01090619
P        1.47514316       3.63506223       2.86855864      -0.00272495       0.00413325       0.00841515
C       -0.00176791       5.71613009       3.82514321      -0.01060731      -0.00006680       0.00823745
C       -1.24421214       7.82319628       3.93826458       0.00819513      -0.00007336       0.00920747
C       -2.47095300       9.93421321       3.97426785       0.00990692      -0.01009205       0.00573193
C        4.93572324       1.40123149       4.05956122       0.00033860       0.00222652      -0.00459029
P        3.48256110       3.76763617       4.25448472       0.00787447       0.00148177       0.00308182
C        1.23523272       7.80961880       3.91603136      -0.00572409      -0.00203308      -0.00357486
C       -0.00052229       9.95659943       4.00689087      -0.00389288       0.00722495      -0.01469059
C        7.40248088       1.41825218       3.93266447      -0.00411765      -0.01259908      -0.00498537
C        6.18728923       3.54126858       3.74358505      -0.00628074      -0.00045779      -0.00824340
C        5.03857072       5.65126449       3.14608271       0.00486684      -0.01256414       0.00033537
C        3.66989522       7.90532821       3.36953726       0.00177376       0.01161447       0.01413709
C        2.46849032       9.96943310       3.85171781      -0.00154069       0.00098227      -0.00710695
C        9.87772450       1.41942599       3.75071289      -0.00179099      -0.00496253       0.00116955
C        8.64966757       3.54722549       3.75533474       0.00203980      -0.00004533      -0.00135042
C        7.42296031       5.67757199       3.58106512      -0.00440225       0.00742907      -0.00492184
C        6.16369729       7.81710441       3.46808713       0.00202094      -0.00474634      -0.00955489
C        4.92974098       9.95646703       3.67300224       0.00147970       0.00264177      -0.00018211
Cu       2.42734610       5.39011627       5.09650541       0.00252137       0.00070176      -0.00173174
