49
Lattice="12.336457 0.0 0.0 -6.168228499999997 10.683685154694365 0.0 0.0 0.0 15.0" Properties=species:S:1:pos:R:3:forces:R:3 energy=-426.2481160935655 free_energy=-426.2481160935655 stress="-0.0032122056486737177 -0.0023985732343543465 -1.4883880866276996e-05 -0.0023985732343543465 -0.006904964007580219 3.9440471000125065e-06 -1.4883880866276996e-05 3.9440471000125065e-06 1.3951724672473448e-06" pbc="T T T"
C       -0.00541570      -0.01100626       3.96122236       0.00130587       0.00399694       0.00035093
C       -1.26178247       2.12872612       4.11963424      -0.00427841       0.00129866       0.00624523
C       -2.50248771       4.26826924       3.87522881      -0.00280231       0.00139631       0.00748126
C       -3.70552074       6.40408456       3.66853580      -0.00622452      -0.00558687       0.00654244
C       -4.92850747       8.54037355       3.75454071       0.00172706       0.00100767       0.00319191
C        2.46968431      -0.03733406       3.85247900      -0.00004648       0.00942978       0.00423143
C        1.24523683       2.05856833       4.27507018       0.00462666       0.00909606      -0.00288927
C       -0.10614161       4.30647754       4.29716493       0.00244777      -0.01095838      -0.00535205
C       -1.24058233       6.39303076       3.69973698      -0.00846735       0.00406440      -0.00928918
C       -2.45795352       8.52495574       3.66712346      -0.00534312       0.00457208       0.01136670
C        4.93180443      -0.01789279       3.65651419      -0.00364072      -0.00317942       0.00008192
C        3.66058027       2.05141846       3.53299802      -0.00676933       0.00482484      -0.00431478
P        1.50212738       6.19445005       3.11396482      -0.01454921       0.00907459      -0.00796089
C        0.00720142       8.53530838       3.57855294       0.00876176      -0.00013421       0.00387575
C        7.38706164       0.01421533       3.68225020       0.00456087      -0.00090642       0.00964634
C        6.14144792       2.14382519       3.50794241      -0.00105783      -0.00332938      -0.00029422
C        4.97590744       4.31885244       3.21392549      -0.00809423      -0.00343910       0.00544183
C        3.69705093       6.44334311       3.62045213       0.01538813      -0.00881668      -0.00133063
C        2.47583925       8.59052613       3.66654564       0.00773033      -0.00484925      -0.00063462
C        9.86225562       0.01584306       3.85891213      -0.00009359      -0.00684132       0.00002193
C        8.61249610       2.14283198       3.78187972       0.00684474       0.00085107       0.00114720
C        7.38764493       4.27894084       3.57969190       0.00362945       0.00147938      -0.00207136
C        6.17114120       6.42923764       3.55705471       0.00268740       0.01006158       0.00143051
C        4.94616814       8.56112873       3.75530293      -0.01054256      -0.00486180       0.00510147
C       -0.01214028       1.40710891       4.14528604       0.00072384       0.00766046       0.00416426
C       -1.29382170       3.55144702       4.13323930      -0.00588703       0.00097799       0.00469816
C       -2.48294607       5.68799722       3.74809174      -0.00682976      -0.00277867      -0.00763342
C       -3.69777670       7.82540301       3.68934179      -0.00189444      -0.00493911       0.00588340
C       -4.93849508       9.95286228       3.87422970       0.00417923       0.00386112       0.00362196
C        2.46198285       1.38237769       3.93096670       0.00150390       0.00662034       0.00506399
P        1.27247956       3.59537399       5.14352644       0.00675226      -0.00826164      -0.00780204
C       -0.04162543       5.63888189       3.82615475      -0.00639322       0.00911168      -0.00166548
C       -1.22626920       7.81457472       3.60858210      -0.00118885       0.00713057      -0.00684326
C       -2.46521281       9.94717751       3.71590822      -0.00743437       0.00492719       0.00216363
C        4.91925236       1.41434405       3.56268809      -0.00695569      -0.00305447       0.00436598
S        3.52621886       3.54449405       2.68518018      -0.00206132      -0.00563775      -0.01196327
C        1.26635609       7.88251452       3.51102783       0.00947179      -0.00356702       0.00148835
C       -0.00124059       9.96540011       3.63598248       0.00368247      -0.00115294      -0.01111376
C        7.37380618       1.44059557       3.65677954       0.00554144       0.00119242       0.00666800
C        6.15058581       3.56803168       3.41976668       0.00319728      -0.00135441      -0.00631203
C        4.92188031       5.73530714       3.42292810       0.00929667       0.00125020      -0.00304401
C        3.70972812       7.85304361       3.68411161      -0.00303655      -0.01204860      -0.00067589
C        2.46166251      10.00440865       3.74686110       0.00379364      -0.00593473      -0.00682421
C        9.85085889       1.43275655       3.92822341      -0.00043116      -0.00587496       0.00755096
C        8.60897976       3.56262650       3.74876823       0.00402544       0.00158191      -0.00132483
C        7.39336985       5.70157868       3.59380961      -0.00415340       0.00169352       0.00380277
C        6.17437032       7.84355790       3.70090894      -0.00422695       0.00783196       0.00476789
C        4.93158528       9.97906597       3.86786036      -0.00033551      -0.00405096      -0.00776859
Cu       2.74854816       5.16944580       4.69777290       0.01085990      -0.00343463      -0.01328839
