49
Lattice="12.336457 0.0 0.0 -6.168228499999997 10.683685154694365 0.0 0.0 0.0 15.0" Properties=species:S:1:pos:R:3:forces:R:3 energy=-429.42577973874074 free_energy=-429.42577973874074 stress="-0.005284252358990359 -5.610172373551344e-05 5.7557270684866265e-06 -5.610172373551344e-05 -0.0017592312955327853 -3.915394834072935e-06 5.7557270684866265e-06 -3.915394834072935e-06 5.870975695709573e-06" pbc="T T T"
C       -0.00005602      -0.00344970       3.77713502       0.00127460       0.00621544      -0.00875309
C       -1.23875870       2.13178098       3.69094326       0.00523855       0.00099103       0.00008783
C       -2.47837009       4.27375609       3.89651858      -0.00671844       0.00092968       0.00180978
C       -3.70683102       6.41426503       3.96239647      -0.00942271       0.00171842      -0.00158665
C       -4.94366247       8.54507461       3.84832761       0.00207468       0.00219810      -0.00555233
C        2.46279523       0.01212097       3.85532666       0.00210088       0.00081192       0.01075441
C        1.23089461       2.06279677       3.40353146       0.00556440       0.00452603      -0.01269726
C       -0.10455776       4.31532091       3.41952818       0.00895966      -0.00197425       0.00553394
C       -1.26582830       6.42546174       3.90735311      -0.00580215       0.01342141      -0.00762212
C       -2.47995350       8.56077038       3.98293135      -0.00037597      -0.00458692      -0.01020482
C        4.93370036       0.00667616       3.95975571      -0.00096065      -0.00830270       0.00250689
C        3.69790119       2.18864235       3.79430564       0.00014564      -0.00314208      -0.00684688
C        1.18538738       6.39290438       3.75881698       0.00625160      -0.00524312       0.00074676
C       -0.00473482       8.53528363       3.92629015       0.00353108       0.00697895      -0.00638003
C        7.40628483      -0.01504729       3.95034551       0.00097760      -0.00368883      -0.00123514
C        6.17959865       2.12265116       3.97097773       0.00518730      -0.00524112      -0.01031327
C        4.96181791       4.25051536       3.70096182       0.00121581       0.00340559       0.00091262
S        3.75523915       6.40759965       2.52612384       0.01392766      -0.01059827       0.00055617
C        2.47347770       8.53065611       3.69778413      -0.00874135      -0.00061116       0.00121724
C        9.86969514      -0.01043822       3.83246018      -0.00320371       0.00715987      -0.00092139
C        8.64192101       2.12668328       3.94610687      -0.00168634      -0.00551791      -0.00420220
C        7.41427085       4.26687706       3.94677225       0.00400976      -0.00304115      -0.00354657
C        6.18981074       6.40792616       3.68557646       0.00139585      -0.00936063      -0.00581440
C        4.94298134       8.54744718       3.63213910      -0.00032634      -0.00227246       0.00730947
C       -0.00976981       1.41817935       3.63437054       0.00798617       0.00610047       0.00647307
C       -1.25605441       3.55836410       3.68450436       0.00144558       0.00203387       0.00941826
C       -2.47965865       5.69969128       3.94698910      -0.00832188       0.00659361       0.00020820
C       -3.70769772       7.84016109       3.94585071      -0.00331644      -0.00069463      -0.00087332
C       -4.93602989       9.97598957       3.83253577       0.00232036       0.00540863       0.00203103
C        2.46023776       1.43587601       3.69890269      -0.00218736       0.00235045       0.00845913
S        1.17785440       3.55820616       2.52657255      -0.00568003      -0.00147090       0.00381537
C       -0.02775111       5.71551592       3.70164419      -0.00087148       0.00580294      -0.00012820
C       -1.24601700       7.84404680       3.97072359       0.00415401       0.01218267      -0.00421554
C       -2.47251043       9.98241360       3.94990692      -0.00134620      -0.00864076       0.01022612
C        4.93804072       1.43200425       3.92782660       0.00148617      -0.00732366      -0.00573912
C        3.74796574       3.57427843       3.76025431       0.00468547      -0.00140909      -0.00152001
C        1.23549010       7.77855625       3.79209294      -0.00510038      -0.00289748      -0.00046110
C       -0.00013257       9.96091872       3.95867786       0.00212267       0.00032914       0.01152636
C        7.41381024       1.40659091       3.98169659       0.00253269      -0.00875275       0.00302071
C        6.20018851       3.54077038       3.90578401       0.00530911       0.00066174       0.00127627
C        5.03887227       5.65058928       3.41876259      -0.01514176       0.00746716       0.00650461
C        3.70227405       7.90346776       3.40064422      -0.00606927       0.00024518      -0.00231544
C        2.47075972       9.95428178       3.85509349      -0.00312810       0.00130648       0.01159467
C        9.87726270       1.42068972       3.84877782       0.00046259       0.00568265      -0.00378284
C        8.64162665       3.55258223       3.96304454      -0.00188735      -0.00675639      -0.00391758
C        7.41308837       5.69296711       3.89610781      -0.00285756      -0.00623154       0.00513060
C        6.17209525       7.83431993       3.68985493       0.00460206      -0.00889756       0.00563777
C        4.93351881       9.96864129       3.77561554      -0.00161356       0.00705878       0.00137886
Cu       2.46690621       4.98317244       3.81607778      -0.00420291       0.00507516      -0.00950686
