49
Lattice="12.336457 0.0 0.0 -6.168228499999997 10.683685154694365 0.0 0.0 0.0 15.0" Properties=species:S:1:pos:R:3:forces:R:3 energy=-429.64483761349425 free_energy=-429.64483761349425 stress="-0.004077343598847377 0.003074031450832079 6.69937748913638e-07 0.003074031450832079 0.0018160663276533121 8.109438769530845e-07 6.69937748913638e-07 8.109438769530845e-07 -3.1064394123280424e-07" pbc="T T T"
C        0.00254643      -0.00144119       3.73210505       0.00089649      -0.00407825       0.00257172
C       -1.22646958       2.14032154       3.54897276       0.00656653      -0.00851539      -0.00263142
C       -2.47122949       4.27724443       3.71959089       0.00674081      -0.00439866      -0.00196702
C       -3.71212901       6.41182612       3.91466718      -0.00917183      -0.00232113      -0.00683712
C       -4.93730381       8.55588657       3.91563020      -0.00721012       0.00528811      -0.00294757
C        2.47369844       0.02853766       3.84808093       0.00427479       0.00403586       0.00225759
C        1.26494016       2.10298603       3.37600657       0.00013923       0.00461411       0.00219657
C       -0.08117181       4.36639574       3.22733890      -0.00553507      -0.00160584      -0.00005222
C       -1.28578648       6.44370872       3.69099104      -0.00072474      -0.00837225      -0.00096176
C       -2.48085942       8.56008830       3.89898157       0.00343934      -0.00444569      -0.00014185
C        4.93575428      -0.00301987       3.89089806       0.00169781       0.01170057      -0.00910802
C        3.75327956       2.12009120       3.84453587      -0.00065259       0.00031657       0.00103210
O        1.07676584       6.48998710       3.32826428      -0.00624586       0.00442497       0.00124671
C       -0.02298879       8.54532147       3.78127853       0.00397407       0.00186647      -0.00052997
C        7.41365367      -0.03243746       3.81737211      -0.00257405      -0.00076773       0.00286382
C        6.19891545       2.10989358       3.93479885       0.00187602       0.00036932      -0.00236491
C        4.99870259       4.23046245       4.03374290      -0.00336854       0.00429627      -0.00008001
C        3.76078351       6.37580034       3.87400013       0.00661970      -0.00082427      -0.00153303
C        2.43526278       8.48017798       3.73315788      -0.00084871       0.00044205      -0.00353028
C        9.86969231      -0.02727569       3.73605459       0.00091103       0.00044485       0.00132788
C        8.65381085       2.12002789       3.79653469      -0.00285866       0.00596176      -0.00354535
C        7.42063823       4.26222909       3.94247064      -0.00566446      -0.00222615       0.00378670
C        6.17932620       6.39850502       3.98737871       0.00526574       0.00197841       0.00067928
C        4.93294133       8.52376830       3.84466972       0.00013512      -0.00798226       0.00235911
C        0.01577146       1.42517451       3.54187412       0.00607971      -0.00650398      -0.00049300
C       -1.24863923       3.57813115       3.49723064       0.00476762      -0.00980484      -0.00483665
C       -2.49559107       5.69895477       3.79018159      -0.00501260      -0.00338422      -0.00462236
C       -3.71385626       7.84135056       3.92678030      -0.00823423       0.00067460      -0.00403828
C       -4.93214688       9.98390352       3.83876073       0.00121731       0.00429191       0.00621616
C        2.49911883       1.45780788       3.70820392      -0.00034973       0.00319491      -0.00372310
P        1.29888613       3.59875367       2.42416160       0.00238536       0.00852515       0.00409225
C       -0.11835659       5.76455473       3.39638480      -0.00533978      -0.00168796      -0.00893515
C       -1.26630501       7.85640164       3.80622883       0.00634059      -0.00660260      -0.00232432
C       -2.47400226       9.99129818       3.90321225       0.00604189       0.00318314      -0.00392881
C        4.95375597       1.42134453       3.90538211       0.00110918       0.00899404       0.00147091
O        3.81262828       3.49881251       4.03758340       0.00339320      -0.00233630       0.00921717
C        1.17759730       7.84506469       3.65644300       0.00058157      -0.00399710      -0.00074426
C        0.00312015       9.96375211       3.84698109      -0.00293667       0.00607023       0.00383788
C        7.41945220       1.40311009       3.86088173      -0.00065780      -0.00194910      -0.00369648
C        6.19624749       3.53054054       3.99194011      -0.00526561      -0.00092969       0.00119884
C        4.93766411       5.65513835       3.99520005       0.00615846       0.00885020      -0.00150389
C        3.69426212       7.75738502       3.81223379      -0.00091138      -0.00106265       0.00775777
C        2.46457134       9.91874764       3.76217429      -0.00133158       0.00124865       0.00612819
C        9.88405324       1.40890888       3.69491525      -0.00022238       0.00399275       0.00070459
C        8.64655887       3.55033524       3.83081939       0.00120837       0.00596704       0.00590959
C        7.40131500       5.68703538       3.96450900      -0.00510478      -0.00454491       0.00195329
C        6.16665701       7.82534377       3.92360046       0.00009911      -0.00154434       0.00794543
C        4.93684899       9.95263589       3.76827603      -0.00007031      -0.00711295      -0.00439254
Cu       2.46500889       5.08497857       3.65323904      -0.00162758      -0.00373370       0.00271582
