52
Lattice="12.336457 0.0 0.0 -6.168228499999997 10.683685154694365 0.0 0.0 0.0 15.0" Properties=species:S:1:pos:R:3:forces:R:3 energy=-444.1930370105255 free_energy=-444.1930370105255 stress="-0.0028203745125691417 0.004641619793334981 -8.853651731600977e-06 0.004641619793334981 0.0036455353866993675 -2.676797966777391e-05 -8.853651731600977e-06 -2.676797966777391e-05 -8.48485909642938e-06" pbc="T T T"
C        0.11087601      -0.04306234       3.77402306       0.01353805      -0.00276010      -0.00321827
C       -1.10777564       2.09874388       3.55244410      -0.00047847      -0.00136012       0.00211132
C       -2.36574359       4.23258413       3.61858821      -0.00416133      -0.00620780       0.00438508
C       -3.61441120       6.36534297       3.82108811      -0.00414046       0.00189285      -0.00579375
C       -4.83691393       8.50743464       3.91078578      -0.00317332      -0.00658770      -0.00155144
C        2.58181373      -0.01881613       3.92999045      -0.00100941      -0.00547373       0.00110051
C        1.39149110       2.08497456       3.54933234      -0.01350984       0.00151572       0.00982840
C        0.04298381       4.32743135       3.22534343      -0.00298670       0.00027308       0.00281438
C       -1.19877207       6.41056290       3.51417187      -0.00028527       0.00376881       0.00776882
C       -2.38065126       8.51419100       3.84088409       0.00474833       0.00266441       0.00148621
C        5.04729183      -0.05527329       3.92877764       0.00086135      -0.00837654      -0.01375350
C        3.87635724       2.06988553       4.02547984       0.00573736      -0.00689355      -0.00395527
O        1.18113602       6.43842695       3.35579391      -0.00160411       0.00231937      -0.00076226
C        0.07900250       8.49934521       3.72709917       0.00027348       0.00345717      -0.00423772
C        7.52601337      -0.08467136       3.82746295      -0.00048985      -0.00185801      -0.00379431
C        6.31789891       2.05835328       3.97535084       0.00665455       0.00516264       0.00379900
C        5.11563129       4.17283463       4.16111406      -0.00476779       0.00386413      -0.00491458
C        3.84691483       6.31660460       4.11431769       0.00078641       0.00128717       0.00168659
C        2.54245694       8.42240822       3.77887895      -0.00352634      -0.00581169      -0.00587414
C        9.98097494      -0.07651606       3.74910305       0.00621977       0.00528800       0.00134615
C        8.76901695       2.07202976       3.77021310      -0.00114445      -0.00150450      -0.00704076
C        7.53060647       4.21340217       3.90751669       0.00070021      -0.00084352       0.00144179
C        6.27807062       6.34272670       3.99779325      -0.00752773      -0.00104875      -0.00427668
C        5.03053035       8.46833878       3.88563365      -0.00039856       0.00947935       0.00301282
C        0.13548097       1.39179326       3.60895846      -0.00412797      -0.00270358       0.00926328
C       -1.13103252       3.53432189       3.44514210      -0.00505151      -0.00347028      -0.00578760
C       -2.40000030       5.65807739       3.65155328      -0.00266393      -0.00170135      -0.00072320
C       -3.61443728       7.79420201       3.86667029       0.00185199       0.00416647       0.00269814
C       -4.82753819       9.93853127       3.88170027       0.00484660      -0.00931580      -0.00454786
C        2.61246534       1.41341934       3.87707814      -0.00298598      -0.00288923       0.00018566
P        1.59164565       3.65953787       2.77882723       0.00397869      -0.00181360       0.00039713
C       -0.01558318       5.73550995       3.27578333      -0.00131407       0.00275874       0.00947176
C       -1.17053783       7.81604100       3.69399586       0.00504335       0.00439024      -0.00498265
C       -2.36606274       9.94148229       3.92747784      -0.00079944      -0.00319105      -0.00065536
C        5.07423038       1.36635917       3.99602358       0.01156146      -0.00764005       0.00625546
O        3.95686097       3.42587250       4.31199322      -0.00507835       0.00347527      -0.00046569
C        1.28023209       7.78976121       3.63579758      -0.00507874      -0.00071916       0.00508956
C        0.11186206       9.91213409       3.84598610       0.00037113      -0.00057141      -0.00932469
C        7.53570833       1.35186797       3.86487017       0.00168872       0.00103896      -0.00149842
C        6.31398226       3.48001134       4.02343235       0.00105761       0.00547181       0.01202630
C        5.04021694       5.60044866       4.11136059      -0.00137147      -0.00199558      -0.00569853
C        3.79285168       7.69627788       3.91386714       0.00047249       0.00012459      -0.00060102
C        2.57646323       9.86289396       3.77997523       0.00141177      -0.00366031      -0.00724793
C        9.99952359       1.36243769       3.68431464       0.00173132       0.00236022      -0.00315416
C        8.75830081       3.50421531       3.76974257      -0.00298667      -0.00655769      -0.00095000
C        7.50369290       5.63712205       3.91775263      -0.00392292      -0.00057770      -0.00063469
C        6.26724464       7.77244700       3.93634340      -0.00822114      -0.00053424      -0.00354436
C        5.04417222       9.90321568       3.79172819       0.01249732       0.01045035       0.01136243
Cu       2.45101886       5.14016396       4.50155241       0.00596682      -0.00032653      -0.00111325
O        1.24877592       4.87963349       5.94263181      -0.00413650       0.00165414       0.00479246
O        0.74428726       6.21567677       6.19773271      -0.00216150       0.01611648       0.00422213
H        0.77700584       6.21434412       7.17676414       0.00710502       0.00341363       0.00355674
