50
Lattice="12.336457 0.0 0.0 -6.168228499999997 10.683685154694365 0.0 0.0 0.0 15.0" Properties=species:S:1:pos:R:3:forces:R:3 energy=-438.63500696116756 free_energy=-438.63500696116756 stress="-0.0005092865939960808 9.355475493032502e-06 2.8238391201415528e-06 9.355475493032502e-06 0.004440293933902805 -5.19191925910336e-06 2.8238391201415528e-06 -5.19191925910336e-06 4.828633664614653e-06" pbc="T T T"
C       -0.00520906      -0.00246586       3.69954368       0.00614096      -0.00341811       0.00236390
C       -1.24279598       2.12638650       3.68030697      -0.00266907      -0.00555470       0.00548479
C       -2.46667347       4.26137906       3.64016514       0.00022167      -0.00180960       0.00165510
C       -3.70078781       6.40011735       3.64816575      -0.00001723       0.00546460      -0.00671790
C       -4.93803816       8.54618036       3.67741706      -0.00303719       0.00060915      -0.00172110
C        2.46751341       0.01983500       3.75077665      -0.00062740      -0.00879294       0.00525181
C        1.22400264       2.16988974       3.86542939       0.00046284      -0.00282014       0.00106134
C        0.01554064       4.28476376       3.80236487       0.00006953       0.00313509      -0.00351018
C       -1.23313159       6.40724571       3.67933765      -0.00250815       0.00286848       0.00419277
C       -2.46357788       8.54616941       3.67636806       0.00334532       0.00137241      -0.00154136
C        4.94018064      -0.00250026       3.69949817      -0.00597794      -0.00313212       0.00129632
C        3.71119264       2.16948415       3.86638238      -0.00015713      -0.00269210       0.00110038
O        1.15350357       6.42482258       3.74371524       0.00304765       0.00299229      -0.01106020
C        0.00700626       8.52053204       3.67123997       0.00358388       0.00099629       0.00195405
C        7.41319520      -0.03845839       3.64969184      -0.00343496      -0.00018836       0.00537861
C        6.17793870       2.12623319       3.68170941       0.00241380      -0.00538995       0.00353246
C        4.92027991       4.28452004       3.80676599       0.00047920       0.00330538      -0.00318750
O        3.78166569       6.42471062       3.75246135      -0.00308959       0.00292691      -0.01060410
C        2.46760984       8.44827543       3.68250904      -0.00007560       0.00047189      -0.01585652
C        9.85828148      -0.03841773       3.64982669       0.00407389      -0.00049549       0.00523186
C        8.63577118       2.11453634       3.62989289      -0.00001418       0.00551733      -0.00940381
C        7.40183513       4.26139910       3.64157122      -0.00053015      -0.00220352       0.00215617
C        6.16799453       6.40714312       3.68347973       0.00248232       0.00295057       0.00372620
C        4.92782517       8.52035641       3.67339581      -0.00353740       0.00124356       0.00287561
C       -0.01338874       1.42204019       3.73518694       0.00028151      -0.00503238       0.00435624
C       -1.23425053       3.55611759       3.68544389       0.00081074      -0.00268021      -0.00067935
C       -2.46882299       5.68468820       3.65094111      -0.00336863       0.00041877       0.00342801
C       -3.70081734       7.83122462       3.66686641       0.00039402       0.00742973      -0.00077631
C       -4.93355176       9.97829827       3.71027105       0.00254729      -0.00577082      -0.00112319
C        2.46762140       1.44726515       3.85310518      -0.00006291      -0.00123809      -0.00161560
C        1.17033042       3.55278509       4.03327056      -0.00445079      -0.00238580       0.00315554
C       -0.02379763       5.72068579       3.74715127       0.00163911       0.00506561       0.00106408
C       -1.23761440       7.82924977       3.67111027       0.00385623       0.00195240       0.00011791
C       -2.46793763       9.97825215       3.70986202      -0.00313934      -0.00473664      -0.00050249
C        4.94845243       1.42195413       3.73591537      -0.00008260      -0.00492129       0.00484832
C        3.76495621       3.55223172       4.03644467       0.00526531      -0.00255554       0.00197102
C        1.20015064       7.80127646       3.68892785       0.00297312       0.00183655       0.00003451
C        0.00751719       9.95304986       3.66596508      -0.00585728       0.00021134       0.00701148
C        7.41051400       1.39838794       3.64324662       0.00264156       0.00096507      -0.00162679
C        6.16947749       3.55604407       3.68782115      -0.00088438      -0.00295647      -0.00115163
C        4.95910972       5.72033310       3.75402589      -0.00146193       0.00515715       0.00113163
C        3.73481906       7.80128871       3.69253157      -0.00316955       0.00198717      -0.00061442
C        2.46753916       9.89837340       3.65339101       0.00031941       0.00040253       0.00486200
C        9.86100390       1.39847614       3.64278971      -0.00276056       0.00054590      -0.00207966
C        8.63578859       3.54379884       3.62688796      -0.00006731       0.00240188      -0.00846915
C        7.40378234       5.68462996       3.65280145       0.00310799       0.00014626       0.00326895
C        6.17246948       7.82914767       3.67370052      -0.00384556       0.00196003       0.00027510
C        4.92740490       9.95301160       3.66652987       0.00644128       0.00027025       0.00692095
Cu       2.47153019       4.51978331       4.99183115       0.00092224      -0.00194428      -0.00695504
O        2.42988241       5.63970108       6.31952015      -0.00269406       0.00611398      -0.00051080
