49
Lattice="12.336457 0.0 0.0 -6.168228499999997 10.683685154694365 0.0 0.0 0.0 15.0" Properties=species:S:1:pos:R:3:forces:R:3 energy=-429.4972047814896 free_energy=-429.4972047814896 stress="-0.002248979480737873 -0.0008678113288140676 4.510778629604392e-06 -0.0008678113288140676 0.004772512613535153 5.005634454721506e-06 4.510778629604392e-06 5.005634454721506e-06 -1.3020847135140727e-06" pbc="T T T"
C       -0.00382192       0.01004518       3.86017675      -0.00846284       0.00116067       0.00601109
C       -1.25274465       2.13101326       3.89616237       0.00772255      -0.00280475      -0.00456733
C       -2.47788041       4.27145161       3.91273360       0.01155667      -0.00177384       0.00292026
C       -3.69371839       6.41513425       3.89466749       0.00010518       0.00631199      -0.00703816
C       -4.92801304       8.56522555       3.88186250      -0.00398048       0.00795779       0.00010594
C        2.45489505       0.03668946       3.80248084       0.00257328      -0.00085715       0.00903449
C        1.19518115       2.15363031       3.78331852      -0.00290223       0.00120676       0.00606969
C       -0.05894085       4.28328340       3.97089897       0.00834292      -0.00152086      -0.00671138
C       -1.24312811       6.40366205       3.96962064       0.00022755      -0.00191208      -0.00037859
C       -2.46353666       8.55569819       3.89919825       0.01046059      -0.01247916      -0.00268617
C        4.93119913      -0.00020203       3.72429610      -0.00823146      -0.00436773      -0.00652550
C        3.68227427       2.09203244       3.32473182      -0.00537316      -0.00222855      -0.00157472
O        1.13860541       6.41984679       3.95328121      -0.00443135      -0.00506294       0.00942120
C       -0.00325421       8.52682324       3.87088471      -0.00161733      -0.00161886       0.00436062
C        7.40045513      -0.03018137       3.76145552      -0.00357334      -0.00981875       0.00753363
C        6.17069621       2.12943104       3.53947793      -0.00332971      -0.00128048       0.00113807
C        5.01304553       4.33323049       3.25165193       0.00029944       0.00928173      -0.00448418
N        3.81181943       6.41674992       3.59427129       0.00942397       0.00553444       0.00311016
C        2.44642353       8.46600987       3.81776264      -0.00314316       0.00384859      -0.00242234
C        9.85260319      -0.03234954       3.83762766       0.00417297       0.01336063      -0.00315260
C        8.62391087       2.12230165       3.79010526       0.00046905       0.00068047      -0.00036110
C        7.40998158       4.27427438       3.71283552      -0.00881431      -0.00031895       0.00018314
C        6.21164182       6.43925336       3.72083005       0.00154488      -0.00655100      -0.01049457
C        4.93525705       8.53271413       3.81761858      -0.00230033      -0.00141990      -0.00464254
C       -0.00585862       1.44622337       3.85947186      -0.00015011      -0.00418214       0.00273921
C       -1.24858642       3.55809441       3.94052397       0.01373302      -0.00620923      -0.00649089
C       -2.47131481       5.68850006       3.93754481       0.00191891       0.00201794       0.00235351
C       -3.69884347       7.84479102       3.90654717       0.00151651       0.00575199      -0.00736882
C       -4.93578332       9.99740845       3.86781869      -0.00288339       0.01032616       0.00354255
C        2.43555642       1.46850393       3.64958401      -0.00548540       0.00197881       0.00222844
O        1.15279162       3.55334348       3.92999226       0.00461036       0.00618023      -0.00107968
C       -0.05643017       5.68165906       3.98321659      -0.00327726      -0.00233578      -0.00027742
C       -1.24267474       7.83268883       3.92419850       0.00781540      -0.00852358      -0.00163928
C       -2.47639630       9.99087592       3.81456150       0.00109960      -0.01305909       0.00788783
C        4.92556158       1.42022176       3.52032684      -0.00495484      -0.00105822      -0.00659966
P        3.69977955       3.56704454       2.33253316       0.01650562       0.00233730      -0.00058183
C        1.19805340       7.81365375       3.87206423      -0.00310296      -0.00161717       0.00830092
C       -0.00131762       9.95942634       3.78510911      -0.01046414      -0.00375317       0.00437978
C        7.39333579       1.40999606       3.69840453      -0.00105235      -0.00917629       0.00844129
C        6.18744099       3.56664508       3.49751767      -0.01204990       0.00262098       0.00573204
C        5.00003046       5.75564222       3.50466216       0.00368466       0.00359332      -0.00302246
C        3.72266519       7.77286890       3.75702437      -0.00253119       0.00048150      -0.00533882
C        2.45466963       9.91239340       3.81152098       0.00666924       0.00590314      -0.00605136
C        9.86020163       1.40763210       3.85239305       0.00552317       0.00974328      -0.00204318
C        8.62700549       3.55267397       3.81444856       0.00029161       0.00324919      -0.00102295
C        7.42183491       5.70143560       3.78359494      -0.00055010      -0.00146954      -0.00495022
C        6.18356143       7.85045797       3.82336875      -0.00188127      -0.00527125       0.00008727
C        4.92784067       9.96003802       3.85251491      -0.00606153       0.00210022       0.00276482
Cu       2.67131890       4.95056326       3.64782681      -0.00966302       0.00504334       0.00315978
