51
Lattice="12.336457 0.0 0.0 -6.168228499999997 10.683685154694365 0.0 0.0 0.0 15.0" Properties=species:S:1:pos:R:3:forces:R:3 energy=-445.9641889259152 free_energy=-445.9641889259152 stress="0.0007737122333379574 0.0026366317054493417 -2.335786764562592e-05 0.0026366317054493417 -0.0007483366685484584 -1.2755020948641135e-06 -2.335786764562592e-05 -1.2755020948641135e-06 2.0058271494955156e-05" pbc="T T T"
C       -0.01782821      -0.01404568       3.73118169      -0.00342856      -0.00428003      -0.00113372
C       -1.22973943       2.13732641       3.84980174      -0.00597858       0.00071932      -0.00046427
C       -2.45739901       4.25983094       3.86009964      -0.00215588      -0.00796717      -0.00670444
C       -3.72063008       6.38496335       3.75790706       0.00705350       0.00549768      -0.00247861
C       -4.97346440       8.51455093       3.66037585      -0.00696684       0.00278268       0.00044864
C        2.44287388      -0.02773531       3.75746988      -0.00150127      -0.00754891      -0.00279645
C        1.23293142       2.12901591       3.86799005      -0.00191800       0.00064944       0.00078379
C        0.03961623       4.30497401       3.94372514      -0.00276772       0.00225051      -0.00095341
C       -1.24702172       6.39670983       3.80174004       0.00704915      -0.00088359       0.00356215
C       -2.48930934       8.51950761       3.72352214      -0.00110951       0.00226326       0.00999606
C        4.91701935      -0.02567173       3.74911387      -0.00750198      -0.00377477      -0.00467616
C        3.68358671       2.09683711       3.81760709       0.00174552      -0.00392021      -0.00407181
N        2.50210698       4.16210845       4.15495827       0.00241592      -0.00094544       0.00720449
O        1.12807222       6.46587538       3.79662106       0.00479668      -0.00308675       0.00699767
C       -0.02536838       8.52539319       3.66570371       0.00326923       0.00341758       0.00371941
C        7.38641748      -0.02044198       3.73158823       0.00097947       0.00202696       0.01056724
C        6.16052255       2.10475104       3.81454892       0.00525815       0.00211337       0.00999233
C        4.92013639       4.22610282       3.72265892      -0.00056129       0.00697207      -0.01091207
S        3.65808943       6.31776509       2.52139358      -0.00836122       0.00525551       0.00788554
C        2.41749910       8.51872146       3.51485606       0.00111546      -0.00899727       0.00719113
C        9.85337595      -0.01174339       3.70912390      -0.00128765       0.00277375      -0.00968917
C        8.63290552       2.11867306       3.82789084      -0.00281846       0.01216879      -0.00207554
C        7.39820729       4.24609082       3.79656587       0.00123722       0.00783660       0.00716685
C        6.14850420       6.37821242       3.57268355      -0.00076278      -0.00748266       0.00139206
C        4.90346264       8.52936266       3.48682170       0.00084695      -0.01332463       0.00330577
C       -0.00511529       1.41807872       3.81950826      -0.00414286      -0.00039973      -0.00632113
C       -1.20427075       3.57175401       3.89374187      -0.00053484      -0.00189569      -0.00486331
C       -2.48031619       5.67547133       3.81933836       0.00633664      -0.00678889      -0.00672480
C       -3.73148404       7.80685524       3.71352349      -0.00335383       0.00878906       0.00455750
C       -4.96269400       9.94554034       3.71236092      -0.00298654       0.00011696       0.00123977
C        2.44878452       1.39534839       3.81766251      -0.00159163      -0.00688362      -0.01100605
C        1.28180219       3.55537866       3.99692362       0.00559350       0.01166408       0.00343451
C       -0.03622446       5.70912870       3.86653095       0.00816259       0.00129832      -0.00547542
C       -1.26226646       7.81577128       3.72614414       0.00301076       0.00224198       0.00409023
C       -2.48974028       9.94716087       3.73710840      -0.00460121      -0.00447057      -0.00534875
C        4.92396370       1.39567080       3.79114675       0.00257663      -0.00399593      -0.01372457
C        3.67033766       3.50970404       3.87157597      -0.00276111       0.00217979      -0.00101879
C        1.17490235       7.84505454       3.61022770       0.00058133      -0.00277980       0.00790461
C       -0.01585426       9.95698455       3.70627072      -0.00365368       0.00487946       0.01048964
C        7.39546821       1.40398862       3.80054373       0.00540634       0.00554267      -0.00214738
C        6.15890240       3.52832882       3.79928676       0.00096710       0.00670451      -0.01037765
C        4.95653745       5.61636062       3.42821885      -0.00477299       0.00479422      -0.00362451
C        3.66773152       7.86807174       3.28410300      -0.00078196      -0.00088657      -0.00010605
C        2.44421987       9.95012455       3.65776355      -0.00021984      -0.00767927       0.00937479
C        9.86807596       1.41501036       3.80731244      -0.00736746       0.00926748      -0.01411422
C        8.63726702       3.54147712       3.84203450      -0.00461197       0.00607650      -0.00349991
C        7.38487410       5.66890213       3.72939118       0.00457473       0.00551838       0.00530531
C        6.13089386       7.80198295       3.54709093       0.00020321      -0.01038219       0.00715054
C        4.91508506       9.95988824       3.64991580      -0.00165922      -0.01216820       0.01025317
Cu       2.81246865       5.81057355       5.00322490       0.00842694      -0.00767409      -0.00200725
O        3.48934276       6.79477555       6.21608031       0.00855183       0.00241504      -0.00769776
