50
Lattice="12.336457 0.0 0.0 -6.168228499999997 10.683685154694365 0.0 0.0 0.0 15.0" Properties=species:S:1:pos:R:3:forces:R:3 energy=-441.9295670673537 free_energy=-441.9295670673537 stress="-0.0013575883724499453 0.003130430127678038 -1.2831832927474604e-06 0.003130430127678038 -0.003003682724918667 -2.9859829575193856e-06 -1.2831832927474604e-06 -2.9859829575193856e-06 8.150053717925475e-07" pbc="T T T"
C       -0.01985507      -0.00710566       3.81583228      -0.00005016       0.00172842       0.00241045
C       -1.23157041       2.14650577       3.86565835       0.00270681       0.00349121       0.00379935
C       -2.45838452       4.26850277       3.85871782       0.00146301       0.00212979       0.00499968
C       -3.72096996       6.39549615       3.80132584       0.00089108      -0.00255772       0.00121453
C       -4.96375241       8.53130476       3.76677710       0.00413184      -0.00452554      -0.00192595
C        2.44186136      -0.01834054       3.83818882      -0.00172510       0.00456006      -0.00054865
C        1.23084874       2.13627474       3.88224088       0.00242468       0.00204486       0.00075343
C        0.03823150       4.31747168       3.95156749      -0.00349471      -0.00525140       0.00233810
C       -1.25383794       6.40779168       3.90339444      -0.00070063       0.00361658       0.00511224
C       -2.49359467       8.53101062       3.84574298       0.00253014       0.00459394      -0.00376096
C        4.91330956      -0.01545060       3.80870512      -0.00188579      -0.00519021       0.00490180
C        3.68567383       2.09111540       3.76995161       0.00125612       0.00171683      -0.00548713
N        2.50812043       4.16477302       3.89852491       0.00029236      -0.00184188      -0.00301496
O        1.09818963       6.50867158       4.09993828      -0.01117331       0.00386666       0.00432886
C       -0.04488952       8.54773989       3.81235838       0.00200187      -0.00101591      -0.00086672
C        7.38224428      -0.01054815       3.78238022      -0.00555801       0.00130073       0.00051614
C        6.15974697       2.11375687       3.75419172      -0.00497656       0.00153329      -0.00460114
C        4.92588760       4.21210248       3.53646972       0.00166059      -0.00274036      -0.00357652
P        3.88685140       6.54509016       2.17654338      -0.00081520       0.00128567       0.00164172
C        2.39767341       8.53472697       3.62805317       0.00408067      -0.00005430       0.00017350
C        9.84998132      -0.00361702       3.76650641      -0.00305815       0.00477306       0.00457970
C        8.63075245       2.12844109       3.80882022       0.00365599      -0.00294935      -0.00266670
C        7.40071526       4.25320266       3.72689079       0.00717085      -0.00390588      -0.00119034
C        6.16728222       6.39569343       3.55966793      -0.00616151      -0.00336508       0.00311909
C        4.91375422       8.54168848       3.60005699      -0.00178600       0.00016039       0.00703753
C       -0.00821567       1.42449753       3.86497838       0.00239272       0.00338399       0.00253490
C       -1.20567502       3.58135889       3.89819845      -0.00256838       0.00088028       0.00181200
C       -2.48384831       5.68488383       3.86040512       0.00182403       0.00175732       0.00202322
C       -3.73127748       7.81932137       3.81335337       0.00621844      -0.00224528      -0.00351634
C       -4.96196537       9.95624668       3.81645529       0.00088790      -0.00243087      -0.00103476
C        2.44929044       1.40367393       3.83915991       0.00201084       0.00413629      -0.00226124
C        1.27971896       3.56377886       3.92549505      -0.00121690      -0.00126588      -0.00126855
C       -0.04865796       5.72213481       3.97446555      -0.00396374      -0.00272125      -0.00895357
C       -1.26964535       7.82991938       3.86528665       0.00130833       0.00413860      -0.00705698
C       -2.49208135       9.95756709       3.83197482      -0.00294890       0.00353346       0.00531300
C        4.92437696       1.40157379       3.77340352      -0.00334388      -0.00428473      -0.00522778
C        3.68203981       3.50129472       3.70732366       0.00107245       0.00140116      -0.00583834
C        1.15749614       7.87029604       3.79081543       0.00364723       0.00254654       0.00917219
C       -0.02250007       9.97196582       3.79563990      -0.00220856      -0.00497091      -0.00286578
C        7.39325830       1.41353652       3.78910999      -0.00360520       0.00242134      -0.00418604
C        6.15958415       3.53301931       3.67568768       0.00379338       0.00052545      -0.00775136
C        4.94027198       5.64795706       3.33583372      -0.00539767      -0.00660081       0.00707100
C        3.65772511       7.83680005       3.40449978       0.00058806      -0.00478007      -0.00459682
C        2.43789876       9.95822610       3.73243371      -0.00306673       0.00293492      -0.00070736
C        9.86534554       1.42217361       3.82184836       0.00470693       0.00254888       0.00341231
C        8.63459396       3.55136399       3.80493129       0.00724657      -0.00379772       0.00122891
C        7.38702898       5.68074579       3.70854946      -0.00196087      -0.00291476       0.00460073
C        6.14326974       7.81845088       3.63195958      -0.00237251      -0.00081248      -0.00196930
C        4.91415184       9.96162808       3.74619787      -0.00367417       0.00395195      -0.00304389
Cu       3.07182537       5.94599362       4.04414788       0.00774976      -0.00073926       0.00382281
