50
Lattice="12.336457 0.0 0.0 -6.168228499999997 10.683685154694365 0.0 0.0 0.0 15.0" Properties=species:S:1:pos:R:3:forces:R:3 energy=-434.3422699821422 free_energy=-434.3422699821422 stress="0.0007432366595423872 0.0023532570432391823 -1.1489003313446461e-05 0.0023532570432391823 0.00288301083589277 -1.431507559941175e-05 -1.1489003313446461e-05 -1.431507559941175e-05 1.051960130470253e-05" pbc="T T T"
C        0.00235647       0.00861172       3.72909594      -0.00351139       0.00663886      -0.00127395
C       -1.22571053       2.14481148       3.83501862       0.00007276       0.00092241      -0.00228752
C       -2.45799051       4.27853180       3.86633401       0.00066353      -0.00203266       0.00173358
C       -3.71402998       6.40796026       3.79505650      -0.00127902      -0.00500598      -0.00820968
C       -4.95340081       8.54373495       3.69708507       0.00727129       0.00409600       0.00180719
C        2.45611649       0.04861363       3.75943815      -0.00924486      -0.00064364       0.00436931
C        1.20638391       2.16432675       3.80003578       0.00772944      -0.00138866      -0.00852880
C       -0.00525854       4.26418162       3.87991625      -0.00510314       0.00348154      -0.00155277
C       -1.23487098       6.40167980       3.84493644       0.00520905       0.00155094       0.00538418
C       -2.48874036       8.54886346       3.79360963      -0.00082091       0.00429031       0.00300153
C        4.91873122      -0.00604191       3.81022721      -0.00239463       0.00627022      -0.00786208
C        3.73682922       2.12981208       3.72540560       0.00123369       0.00292607      -0.00213096
N        1.17981327       6.43103139       3.85804875       0.01272566      -0.00955981       0.00434684
C       -0.02439400       8.53312253       3.79201291       0.00124905      -0.00574565       0.00220291
C        7.39511071      -0.01522512       3.80939045       0.00307910      -0.00124737       0.00067140
C        6.17721408       2.11270636       3.82460676       0.00327773      -0.00288546      -0.00300307
C        4.98355564       4.18855639       3.60109767       0.00346054      -0.00793705      -0.01024193
P        3.58541436       6.29164357       2.58323771      -0.01632305      -0.00577735       0.00032403
C        2.44080957       8.54174345       3.61602750      -0.00620926       0.00481393       0.01217089
C        9.86720867      -0.00367002       3.74015100       0.00723949       0.00040364       0.00280700
C        8.64195827       2.13040530       3.84656440      -0.00405091      -0.00230944       0.00433491
C        7.41259916       4.26425493       3.81122585       0.00181106      -0.00157668      -0.00196520
C        6.15059040       6.38172935       3.62110289      -0.00308583       0.00236253       0.00260612
C        4.92407839       8.54700167       3.53322406       0.00187196       0.00020101      -0.00046148
C        0.01389862       1.44789298       3.79576644       0.00399975       0.00540932      -0.01692857
C       -1.21469229       3.56968256       3.87514528      -0.00210315       0.00005803      -0.00137486
C       -2.46796880       5.69673782       3.84502048       0.00302845      -0.00160079      -0.00503026
C       -3.72069368       7.83378316       3.76380322       0.00461354      -0.00244151       0.00193546
C       -4.93742044       9.98702617       3.72306855      -0.00899261       0.00362447       0.00025241
C        2.46273687       1.49875997       3.76433976       0.00736508      -0.00507144      -0.00649758
O        1.16993979       3.54808686       3.84550188      -0.01048364      -0.00367228       0.00014624
C        0.01819420       5.69603413       3.87440079       0.00849530       0.00417446       0.00919361
C       -1.25426673       7.82868039       3.81738040      -0.00137577       0.00176472      -0.00020734
C       -2.48976058       9.98725145       3.78443447      -0.00641852       0.00551437       0.00226018
C        4.92840441       1.41997278       3.80181723       0.00142228       0.00674484       0.00066890
O        3.79768346       3.49008459       3.53501877      -0.00752877       0.00030139      -0.00222855
C        1.19631403       7.79437587       3.74559283      -0.00035512      -0.01056664       0.00840961
C       -0.01214561       9.95861061       3.80636052       0.00046783      -0.00158639       0.00036790
C        7.40179865       1.41058111       3.84096988      -0.00076916      -0.00421424      -0.00018510
C        6.18555598       3.52495551       3.78037776       0.00528185      -0.00632800      -0.01273152
C        4.93787801       5.60250363       3.49975610      -0.00147067      -0.00593376      -0.00201251
C        3.66949169       7.87822367       3.36773503      -0.01038940       0.00248312       0.01201802
C        2.45645496       9.95901606       3.73675239       0.00545727       0.00533708       0.00622838
C        9.88138082       1.42574070       3.81578140      -0.00169047      -0.00081533       0.00844726
C        8.64585363       3.55790913       3.85469976       0.00038883      -0.00157424       0.00103388
C        7.39036001       5.68728338       3.75692977      -0.00562214      -0.00051146       0.00313027
C        6.15130630       7.81828139       3.59905752       0.00861559       0.00568357       0.00187941
C        4.93234675       9.97312326       3.67233723       0.00469803      -0.00159794       0.00098683
Cu       2.77343714       5.61147370       4.46584951      -0.00066590       0.00426700      -0.00174737
O        2.75244108       5.06165568       6.09083994      -0.00083983       0.00870394      -0.00625718
