51
Lattice="12.336457 0.0 0.0 -6.168228499999997 10.683685154694365 0.0 0.0 0.0 15.0" Properties=species:S:1:pos:R:3:initial_magmoms:R:1:forces:R:3 energy=-439.9615528963766 free_energy=-439.9615528963766 stress="-0.0044308988540735245 -0.002039780069159798 2.4881476440715116e-06 -0.002039780069159798 0.004243109577128907 1.4317839336440698e-05 2.4881476440715116e-06 1.4317839336440698e-05 -3.551437175309366e-06" pbc="T T T"
C        0.02963834       0.00798789       3.84107382       0.00000000       0.00358219       0.00311521       0.00235504
C       -1.22246499       2.12671212       3.80362937       0.00000000      -0.00273120       0.00331837      -0.00285718
C       -2.43893610       4.26889806       3.77658656       0.00000000      -0.00240711      -0.00578361       0.00111093
C       -3.64436094       6.41693801       3.80474920       0.00000000      -0.00382034       0.00119095       0.00167230
C       -4.88300921       8.56991071       3.84553965       0.00000000       0.00807394      -0.00002256      -0.00096289
C        2.49359474       0.03464981       3.80009018       0.00000000      -0.00536830       0.00051657       0.00034357
C        1.21840313       2.15063670       3.73810464       0.00000000       0.00870023      -0.00012654      -0.00378436
C       -0.02208093       4.27545822       3.71579606       0.00000000       0.00168019       0.00402280       0.00679858
C       -1.19422225       6.39664327       3.77666707       0.00000000      -0.00325910      -0.00165477       0.00264677
C       -2.42016752       8.55192003       3.83259088       0.00000000       0.00365090       0.00297231      -0.00450853
C        4.96816394      -0.00201668       3.71684335       0.00000000      -0.00942907      -0.00363763      -0.00706387
C        3.71187050       2.10476483       3.40445239       0.00000000       0.00328259       0.00281231      -0.00328919
O        1.18171871       6.40389990       3.78694099       0.00000000       0.00508588      -0.00716436      -0.00054129
C        0.03822389       8.51680054       3.79925057       0.00000000       0.00490428      -0.00064113      -0.00019460
C        7.43604065      -0.03706961       3.74435621       0.00000000       0.00604603       0.00788957       0.00258171
C        6.20384672       2.12834404       3.56428536       0.00000000      -0.00039408       0.00193529      -0.00028429
C        5.04863925       4.34115163       3.34993308       0.00000000      -0.00073639      -0.00304947      -0.00556589
N        3.86203045       6.41457260       3.68923816       0.00000000       0.00239346       0.00424746       0.00654934
C        2.48651827       8.45813221       3.79847240       0.00000000      -0.00965888      -0.00012693       0.01302415
C        9.88603109      -0.03679199       3.81273987       0.00000000       0.00598941       0.00156009      -0.00597762
C        8.65805166       2.11845759       3.74524111       0.00000000      -0.00181990      -0.00082414      -0.00283832
C        7.45273594       4.27565226       3.68180567       0.00000000       0.00812156       0.00028331       0.00190185
C        6.26841225       6.45043688       3.69417146       0.00000000      -0.00762539       0.00045562       0.00729862
C        4.97709521       8.53529284       3.80800951       0.00000000      -0.00627431      -0.00434280      -0.00327324
C        0.01976776       1.44009474       3.81399639       0.00000000       0.00491120       0.00577745      -0.00815449
C       -1.21419280       3.55465845       3.76362088       0.00000000      -0.00038258       0.00245845      -0.01029549
C       -2.42480876       5.68763210       3.79286929       0.00000000      -0.00768977      -0.00532720       0.00283936
C       -3.65335259       7.84562651       3.83901354       0.00000000       0.00821971       0.00172034      -0.00458759
C       -4.89783320       9.99865233       3.85063955       0.00000000      -0.00046890      -0.00058493       0.00465774
C        2.46820285       1.46418134       3.67004132       0.00000000       0.00970962      -0.00224160       0.00057692
O        1.16474663       3.54536988       3.79137972       0.00000000      -0.00463254      -0.00238227       0.01303869
C       -0.00577979       5.67845343       3.72105875       0.00000000       0.00325344       0.00420868      -0.00090127
C       -1.19780485       7.82512776       3.81251033       0.00000000       0.00264894       0.00150222      -0.00798904
C       -2.43573589       9.98767993       3.79468467       0.00000000      -0.01201644      -0.00003908      -0.00087321
C        4.95822446       1.42442178       3.55533328       0.00000000      -0.00204921      -0.00240543      -0.00827098
P        3.64346856       3.65229437       2.54728613       0.00000000      -0.00178838       0.00069012       0.00067578
C        1.23838921       7.79214687       3.79487983       0.00000000      -0.00012063      -0.00902137      -0.00259477
C        0.03545845       9.95189425       3.75715106       0.00000000       0.00322688       0.00433721       0.00603490
C        7.42768503       1.40396109       3.68858246       0.00000000      -0.00078880       0.00647567       0.00483631
C        6.22602105       3.56524308       3.52881161       0.00000000       0.00415841       0.00236078       0.00828215
C        5.05095034       5.77072226       3.54277972       0.00000000      -0.00583395      -0.00158675       0.00001521
C        3.76296134       7.77268973       3.77715957       0.00000000      -0.01363647      -0.00032148      -0.00621617
C        2.49073257       9.90208765       3.79079288       0.00000000       0.00474793       0.00373852       0.00111090
C        9.89176157       1.40297686       3.79737432       0.00000000      -0.00299164       0.00236076       0.00552884
C        8.66566856       3.54968784       3.74531741       0.00000000       0.00332358      -0.00671814      -0.00101309
C        7.47219249       5.70369815       3.73279770       0.00000000      -0.00368879       0.00194265      -0.00626999
C        6.23030713       7.85905472       3.79611447       0.00000000       0.00083956       0.00118640       0.00710141
C        4.96265497       9.95891275       3.83516777       0.00000000       0.00440852      -0.00293604      -0.00863450
Cu       2.84092268       4.91695637       4.14488729       0.00000000       0.00144385      -0.00029350       0.00432598
O        1.05639288       5.01252727       6.14169250       1.00000000      -0.00896775      -0.00055839       0.01034930
O        2.30582167       4.83727722       6.01574553       1.00000000       0.00617765      -0.01128903      -0.00871449
