49
Lattice="12.336457 0.0 0.0 -6.168228499999997 10.683685154694365 0.0 0.0 0.0 15.0" Properties=species:S:1:pos:R:3:forces:R:3 energy=-439.05272716580237 free_energy=-439.05272716580237 stress="-0.003721934145753999 -7.514732636700555e-07 -4.239984555278748e-08 -7.514732636700555e-07 0.008657288153182558 1.2602663935201825e-07 -4.239984555278748e-08 1.2602663935201825e-07 1.229618557392959e-06" pbc="T T T"
C        0.00082615       0.01496912       3.75239260      -0.00123420       0.00674511       0.00412390
C       -1.24495972       2.12155732       3.74272711      -0.01337789      -0.00597782      -0.00578843
C       -2.48268692       4.26898958       3.73019135      -0.00123806      -0.00510067      -0.00028014
C       -3.70127623       6.42183218       3.73621913       0.00199146       0.00502375       0.00036245
C       -4.93022572       8.57355870       3.74968829       0.00047613       0.00567254      -0.00101844
C        2.46668142       0.07063401       3.75661238       0.00292650      -0.00282460      -0.00958418
C        1.21694040       2.21337666       3.76279191       0.00356548      -0.00084916      -0.00497924
C       -0.04966607       4.26355381       3.74711052       0.00142354       0.00397338      -0.00523155
C       -1.25786115       6.41947637       3.73392037      -0.00109164       0.00150032       0.00406450
C       -2.47209498       8.57376979       3.73805729      -0.00598248       0.00126231       0.01731961
C        4.93269609       0.01532900       3.74991296       0.00082061       0.00402098       0.01564334
C        3.71650348       2.21360709       3.77281772      -0.00051385      -0.00196235      -0.01332457
N        1.15099072       6.36872116       3.76609022       0.00101181       0.00044480      -0.00242008
C        0.00133453       8.51788117       3.74980369      -0.00028564      -0.01161212       0.00819790
C        7.40777323      -0.04352634       3.75141232      -0.00043640       0.01077914       0.00735244
C        6.17856319       2.12148746       3.75464126       0.01133670      -0.00334482       0.00872787
C        4.98373913       4.26393668       3.77621982      -0.00356739      -0.00313711      -0.01284394
N        3.78264718       6.36846648       3.78254956       0.00454680       0.00314992      -0.00463648
C        2.46696677       8.45417071       3.76812203      -0.00265013      -0.00365183      -0.00332343
C        9.86253430      -0.04332096       3.75176609      -0.00062635       0.00212762       0.00406071
C        8.63489077       2.11071320       3.74122847       0.00388692       0.00128546      -0.00376835
C        7.41632631       4.26881049       3.74460931       0.00394870      -0.00005195       0.00718364
C        6.19210535       6.41958102       3.76104887      -0.00320208      -0.00137360      -0.00092043
C        4.93238675       8.51740771       3.76407494       0.00394146      -0.00475177       0.00155170
C        0.00150676       1.44879260       3.75171114      -0.00421485       0.00443616       0.00725081
C       -1.25814311       3.54701780       3.73590897       0.00148547      -0.00244759       0.00745718
C       -2.48250171       5.69760538       3.72912738      -0.00034322      -0.00399156       0.00667027
C       -3.70114374       7.85528847       3.74064157      -0.00130035       0.00253719      -0.00503140
C       -4.92861217      10.00954110       3.75162885       0.00381057       0.00099657       0.01187107
C        2.46670337       1.51272983       3.76722471       0.00209479      -0.00399531      -0.00976521
N        1.15078913       3.59797231       3.76403088       0.00508723      -0.00076417       0.00325960
C       -0.04943702       5.70274259       3.74633745       0.00009619       0.00600022       0.00079160
C       -1.24509868       7.84498703       3.73877850      -0.00571890       0.00288826      -0.00124352
C       -2.47432233      10.00977509       3.74818877       0.00141892      -0.00176918      -0.00118764
C        4.93196379       1.44896741       3.76019397       0.00354874       0.00546960       0.00032509
N        3.78322713       3.59820020       3.78131649      -0.01128488      -0.00091088      -0.00040960
C        1.21704182       7.75348461       3.76444973       0.00158510      -0.00532375      -0.01492552
C        0.00054425       9.95142657       3.74973226       0.00013991      -0.00654696       0.00128977
C        7.40551006       1.39241468       3.74828440       0.01290735       0.00404248      -0.00220424
C        6.19187016       3.54696376       3.75942937       0.00025668      -0.00059334      -0.00390645
C        4.98355557       5.70310115       3.77562181      -0.00111156      -0.00208195      -0.00081430
C        3.71661470       7.75312150       3.77433621       0.00011312      -0.00060526      -0.00869828
C        2.46701760       9.89600980       3.75805575      -0.00243950       0.00197481      -0.00852009
C        9.86444849       1.39253681       3.74240509      -0.01007581       0.00305021       0.00843900
C        8.63499436       3.54432103       3.73527177       0.00218320      -0.00430063       0.00583430
C        7.41653996       5.69742811       3.74638247      -0.00284230       0.00105166      -0.00226810
C        6.17921489       7.84499318       3.75868386       0.00319646      -0.00133180      -0.00054031
C        4.93313892       9.95097944       3.75524599      -0.00270505       0.00014917       0.00408074
Cu       2.46683613       4.98316627       3.78772395      -0.00155730       0.00071852      -0.00822357
