51
Lattice="12.336457 0.0 0.0 -6.168228499999997 10.683685154694365 0.0 0.0 0.0 15.0" Properties=species:S:1:pos:R:3:forces:R:3 energy=-446.55211605408005 free_energy=-446.55211605408005 stress="-0.001562645923548519 0.0035602741880868803 6.833629652649356e-06 0.0035602741880868803 -0.002216124183557296 -2.5867465626839804e-05 6.833629652649356e-06 -2.5867465626839804e-05 2.9085917926380067e-06" pbc="T T T"
C       -0.01314139      -0.00135826       3.80609068       0.00270070       0.00714571      -0.00855393
C       -1.22257387       2.15130781       3.83648612      -0.00346660       0.00266749       0.01467448
C       -2.45066494       4.27130346       3.83693564       0.00338105      -0.00091197      -0.00017186
C       -3.71697802       6.40028642       3.79854044       0.00111056      -0.00676609       0.00852287
C       -4.95973554       8.53531670       3.76613873       0.00457430      -0.00175514       0.00101992
C        2.44636653      -0.01255497       3.82007154      -0.00279364      -0.00173682      -0.00379300
C        1.24101195       2.15346139       3.83944316       0.00052409      -0.00052259      -0.00578931
C        0.04587697       4.32491404       3.83998185       0.00441458       0.00730933      -0.00394696
C       -1.25362170       6.41205255       3.81554890      -0.00064097       0.00318902      -0.00322678
C       -2.48957369       8.53590262       3.80418192       0.00410448       0.00431517       0.00886612
C        4.91903662      -0.01471148       3.79988361      -0.00156676       0.00340440       0.00881136
C        3.69266796       2.09601038       3.78178432      -0.00392797      -0.00101806      -0.00024880
N        2.52529236       4.19609894       3.84810569       0.00422070      -0.01297547       0.00921989
O        1.09679364       6.47726389       3.58534062       0.00751775      -0.00433713       0.01069214
C       -0.03681615       8.54519299       3.72858656       0.00539805      -0.00832671       0.00329174
C        7.38891949      -0.01172749       3.77819050      -0.00138829       0.00314188       0.00233884
C        6.16944954       2.11016537       3.79272979      -0.00244657      -0.00030607      -0.00170583
C        4.93771333       4.20584505       3.63240910       0.00046871       0.00233682       0.00153105
P        3.71558098       6.39629212       2.44543289      -0.00019484      -0.01201852      -0.00417490
C        2.40141763       8.53281564       3.60266775      -0.00387861      -0.00054295       0.00545977
C        9.85551484      -0.00394176       3.77554133       0.00386713      -0.00385175      -0.00502100
C        8.63970177       2.12831362       3.82295116       0.00313279       0.00380244      -0.00144610
C        7.40902226       4.25410087       3.77932546      -0.00323448      -0.00442072      -0.00259599
C        6.16908519       6.39608497       3.63406328      -0.00400297      -0.00128277      -0.00451442
C        4.91266762       8.53826595       3.64632889      -0.00670887      -0.00116186      -0.00004364
C        0.00348097       1.43480316       3.83338346      -0.00054270       0.00767224       0.00006815
C       -1.19324603       3.58830867       3.84461859       0.00617375       0.00460047       0.00743163
C       -2.48029206       5.68829509       3.82935267       0.00319194      -0.00244031       0.00181409
C       -3.72699014       7.82387367       3.79383743       0.00718842      -0.00327005       0.00909466
C       -4.95680914       9.96127773       3.80354458      -0.00104362       0.00046448      -0.00326958
C        2.45491642       1.41075059       3.82058210      -0.00280801      -0.00344660       0.00085305
C        1.30050358       3.59190040       3.85443111       0.00688562       0.00235232       0.00010963
C       -0.04484949       5.72809208       3.77907012       0.00165148       0.00688761      -0.01284365
C       -1.26589661       7.83320991       3.78620193       0.00250715       0.00052432      -0.00049359
C       -2.48865054       9.96174835       3.80936245      -0.00082393       0.00373124      -0.00514954
C        4.93055773       1.40246642       3.79228333      -0.00557230       0.00348815       0.01025474
C        3.68600035       3.51061091       3.73430948       0.00121393      -0.00188343      -0.00658574
C        1.15729842       7.86037795       3.61083376       0.00097991      -0.00800843      -0.00517347
C       -0.01685302       9.97044048       3.77254179      -0.00149066      -0.00404878      -0.00157657
C        7.40230615       1.41189754       3.80804469       0.00125874       0.00509803       0.00328910
C        6.16919726       3.53099372       3.74606282      -0.00400099      -0.00201301      -0.00148665
C        4.93347095       5.64044819       3.49734373      -0.00485167      -0.00109927      -0.00330360
C        3.65761787       7.83059399       3.49920416      -0.01280677       0.00103888      -0.00629145
C        2.44278523       9.95326432       3.72980535      -0.00088589       0.00012897       0.00188121
C        9.87376882       1.42374526       3.82038688      -0.00010255      -0.00345659      -0.00138656
C        8.64366119       3.55195826       3.82359895       0.00110917       0.00279271      -0.00571364
C        7.38994367       5.68396736       3.75268373      -0.00365472      -0.00393061      -0.00879729
C        6.14490238       7.81782697       3.67334898      -0.00020551       0.00079281       0.00148007
C        4.91985186       9.96246811       3.75721966       0.00598388      -0.00080943      -0.00675587
Cu       3.22331798       5.92527212       4.43390159      -0.00217547       0.00829534       0.01308789
O        2.80709734       6.00540751       6.08788427      -0.00834353       0.01116130      -0.00973267
