53
Lattice="12.336457 0.0 0.0 -6.168228499999997 10.683685154694365 0.0 0.0 0.0 15.0" Properties=species:S:1:pos:R:3:forces:R:3 energy=-455.7844723945682 free_energy=-455.7844723945682 stress="-0.00012022947807386717 0.0028946738335781513 2.490930214020241e-05 0.0028946738335781513 -0.0020213053508168766 8.876918917098418e-07 2.490930214020241e-05 8.876918917098418e-07 -3.571191983688778e-05" pbc="T T T"
C       -0.00793103      -0.04011723       3.76691165       0.00577125       0.00434377      -0.01552039
C       -1.21810115       2.11308533       3.87231255      -0.00129988       0.00442938      -0.00357965
C       -2.44439569       4.23538872       3.86419046      -0.00188472      -0.00282663       0.00160665
C       -3.70912543       6.36032224       3.76595433      -0.00283924       0.00357366      -0.00067788
C       -4.96294879       8.48954681       3.68477027       0.00334042       0.00135206      -0.00619837
C        2.45215190      -0.05502648       3.77447771       0.00141117      -0.00297608       0.01153324
C        1.24343664       2.10038298       3.87674180      -0.00055625       0.00289828       0.00241214
C        0.05211426       4.28081108       3.94987477       0.00026926      -0.00316254       0.00882872
C       -1.23989302       6.37451768       3.82554341       0.00230039      -0.00916291      -0.00379526
C       -2.48070796       8.49499215       3.75784112      -0.00509508       0.00482151      -0.00281978
C        4.92640597      -0.05177341       3.77541242       0.00513072       0.01195562      -0.00649329
C        3.69602772       2.06454769       3.80524862      -0.00386056      -0.00510987      -0.00468040
N        2.52001126       4.12729659       4.13203435       0.00520539       0.00741981       0.00879385
O        1.12756127       6.45558999       3.87242278       0.00420314       0.00538404      -0.00783799
C       -0.01976310       8.50626169       3.71464036       0.00017617      -0.00214980       0.00005880
C        7.39707915      -0.04418810       3.77772714      -0.00542958       0.00290453       0.00466735
C        6.17293996       2.07867328       3.81419384       0.00285152      -0.00319764      -0.00141656
C        4.93454611       4.19532271       3.68605717       0.00058919       0.00438497       0.00908175
S        3.65915647       6.31420899       2.52585517       0.00222005      -0.00299546       0.00066231
C        2.42651023       8.49767836       3.56451919       0.00672266      -0.00259166       0.00156038
C        9.86416922      -0.03587723       3.75444264      -0.00611453      -0.00118717      -0.00176631
C        8.64477675       2.09557258       3.84709100      -0.00129245      -0.00412559      -0.00642083
C        7.41168113       4.22123379       3.78233918       0.00291700      -0.00619313       0.01082178
C        6.16253044       6.35397459       3.56396955       0.00052624       0.00455427      -0.00144326
C        4.91513052       8.50674829       3.52112757       0.00134772      -0.00853808      -0.00051499
C        0.00482364       1.39181648       3.84466493      -0.00021368       0.00592148      -0.00656214
C       -1.19125566       3.54775926       3.90354848      -0.00234944       0.00084659      -0.00244971
C       -2.46908000       5.65086942       3.82820893      -0.00468844      -0.00136421      -0.00053148
C       -3.72180366       7.78180637       3.73781813      -0.00534234       0.00433092      -0.00823418
C       -4.95371242       9.91918163       3.74054698       0.00333956      -0.00110411      -0.00107372
C        2.45934840       1.36696632       3.82130893      -0.00529713      -0.00396076      -0.00393539
C        1.29440618       3.52771171       3.99282711       0.00301597       0.00086516       0.00419965
C       -0.02797720       5.68823532       3.88775717       0.00679131      -0.00222772       0.01121857
C       -1.25410463       7.79361151       3.76609360      -0.00575640      -0.00488963      -0.00435582
C       -2.48052877       9.92122694       3.76221404       0.00598648       0.00724370       0.00844237
C        4.93666240       1.36813330       3.79248052       0.00165471       0.00506574       0.00311095
C        3.68536655       3.47805123       3.84306916       0.00090544      -0.00331519       0.00360521
C        1.18110135       7.82685156       3.65139301       0.00449864       0.00469258       0.00418956
C       -0.00613078       9.93391651       3.75293733      -0.00121440       0.00413630      -0.00485473
C        7.40760987       1.38001156       3.82440177      -0.00057710      -0.00192621      -0.00516439
C        6.17409566       3.50104705       3.77581462      -0.00001742      -0.00315614       0.00189485
C        4.96916811       5.59228798       3.41017038      -0.00988248       0.01172291       0.00478690
C        3.67596690       7.85125687       3.31769057       0.00027296      -0.00919769      -0.01740308
C        2.45503281       9.92708732       3.71244806      -0.00742085      -0.00284822      -0.00063690
C        9.87939723       1.39182796       3.83767646      -0.00143230       0.00032015      -0.00764993
C        8.65002994       3.51793785       3.84292274       0.00524729      -0.00641910       0.00090055
C        7.39804865       5.64359070       3.72084190       0.00010401      -0.00060164       0.00225555
C        6.14220124       7.77782459       3.56198403       0.00622365       0.00099241       0.00410958
C        4.92492177       9.93495693       3.69475154       0.00129663      -0.00486985      -0.00493711
Cu       2.91540121       5.77266462       4.90851700       0.00152373      -0.00045745       0.01349731
O        3.14874163       7.05981615       6.22550512      -0.00296966      -0.00624786      -0.00971092
O        2.96533559       6.28871688       7.43997929       0.00251260       0.00612266       0.01252831
H        3.78931236       6.52088440       7.91329159      -0.01282130      -0.00348019       0.00589812
