51
Lattice="12.336457 0.0 0.0 -6.168228499999997 10.683685154694365 0.0 0.0 0.0 15.0" Properties=species:S:1:pos:R:3:initial_magmoms:R:1:forces:R:3 energy=-439.9093861080868 free_energy=-439.9093861080868 stress="-0.0027833040753361743 7.269873012739652e-05 1.0234014913913656e-05 7.269873012739652e-05 0.0019196569107420706 1.5950790138158676e-05 1.0234014913913656e-05 1.5950790138158676e-05 1.3446878203624657e-05" pbc="T T T"
C        0.00055617       0.02144991       3.88727416       0.00000000       0.00322670      -0.00259840      -0.00024629
C       -1.23746789       2.14030896       3.95444338       0.00000000       0.00445570      -0.00194773      -0.00227516
C       -2.46076418       4.27930705       3.93114061       0.00000000      -0.00697972       0.00702382       0.00930988
C       -3.69108015       6.42174761       3.85675394       0.00000000      -0.00316272      -0.00662668       0.00681140
C       -4.93614052       8.56417386       3.81437935       0.00000000       0.00498559      -0.00724513       0.00230041
C        2.46207992       0.03442004       3.89086658       0.00000000      -0.01145204      -0.00373826      -0.00538410
C        1.21819338       2.21132969       3.82770736       0.00000000       0.00763577       0.00262074      -0.00054420
C        0.00435198       4.26001966       3.90497450       0.00000000       0.00296520       0.00582984       0.00352947
C       -1.23582866       6.41984540       3.97969917       0.00000000       0.00932414       0.00976060       0.00151805
C       -2.47281230       8.56162527       3.97070459       0.00000000      -0.00584905       0.00308847      -0.00354777
C        4.93381590       0.00416154       3.86317193       0.00000000       0.01385131       0.00535698      -0.00142140
C        3.69396085       2.06500209       3.39394687       0.00000000       0.00335367       0.00260914       0.00220667
N        1.17225966       6.41248886       3.86580468       0.00000000      -0.00098985      -0.00912872      -0.00264149
C       -0.00500805       8.53380877       3.96369062       0.00000000       0.00590354      -0.00798775      -0.00788640
C        7.39905158      -0.00844380       3.90200545       0.00000000      -0.00143618       0.00914044      -0.00475793
C        6.18098465       2.12667835       3.59615038       0.00000000      -0.00404142       0.00807000       0.00809264
C        5.12038611       4.28117113       2.97131470       0.00000000       0.00267357      -0.00648492       0.01386932
P        3.57367721       6.41642329       2.46896772       0.00000000      -0.00003288       0.00111905      -0.00593041
C        2.45922534       8.53067515       3.75932848       0.00000000      -0.01076330       0.00054477      -0.00724632
C        9.86544616      -0.00621728       3.90196163       0.00000000       0.00078512      -0.00924472      -0.00558419
C        8.63577351       2.13599324       3.87341729       0.00000000      -0.01259883      -0.00622655       0.00797305
C        7.43870908       4.27691927       3.65645419       0.00000000      -0.00692041      -0.00022545      -0.00593009
C        6.23099315       6.43451794       3.43075373       0.00000000       0.00069957       0.00529698       0.00124681
C        4.93808640       8.56261518       3.61858788       0.00000000       0.01089790       0.00567492       0.00373723
C       -0.00043347       1.45310493       3.91676331       0.00000000       0.00996537      -0.00068010      -0.00387904
C       -1.23443784       3.56161743       3.95286040       0.00000000      -0.00205943       0.00531840      -0.00447071
C       -2.46298599       5.70372897       3.94232375       0.00000000       0.00603489       0.00950267       0.00348197
C       -3.70181612       7.84935186       3.89249759       0.00000000      -0.00115635      -0.00947015       0.00218171
C       -4.93606942       9.99350228       3.88909100       0.00000000      -0.00724681      -0.01106483      -0.00330184
C        2.46324349       1.46085315       3.73625668       0.00000000       0.00078954      -0.00224112      -0.00678017
N        1.17667828       3.57246776       3.85474780       0.00000000      -0.00693550      -0.00009469      -0.00490582
C       -0.00009551       5.71809660       3.91955350       0.00000000       0.00478274       0.00243394      -0.00131850
C       -1.23885455       7.84369252       3.99470172       0.00000000      -0.00007265       0.00713353      -0.00141510
C       -2.47250417       9.99206937       3.92531578       0.00000000       0.00042165       0.00826782      -0.00044255
C        4.93982641       1.41963248       3.62630856       0.00000000       0.00607871       0.00776690      -0.00646251
S        3.67889693       3.48844476       2.39144267       0.00000000      -0.00157356       0.00322386       0.00873922
C        1.21399371       7.78078612       3.86512244       0.00000000      -0.00270503      -0.01600396      -0.00344012
C       -0.00039217       9.96293372       3.92524749       0.00000000       0.01296317      -0.00398234       0.00089421
C        7.39693716       1.42186278       3.81118124       0.00000000      -0.01329833       0.00521674       0.00194091
C        6.23064963       3.54257352       3.41268106       0.00000000       0.00100874      -0.00257318       0.00836624
C        5.09930080       5.69135001       2.99811824       0.00000000       0.00212733      -0.00606555       0.00079701
C        3.68508279       7.89634845       3.43611820       0.00000000      -0.00112174       0.00912716       0.00309374
C        2.46054946       9.95390817       3.89486367       0.00000000      -0.00723120       0.00470412      -0.00658611
C        9.86511850       1.42162082       3.94012894       0.00000000      -0.00299709      -0.00917768      -0.00502379
C        8.64812755       3.56165719       3.84306330       0.00000000      -0.01241034      -0.00125426       0.01100435
C        7.43574220       5.70681098       3.66246579       0.00000000      -0.00669291      -0.00025864      -0.00456949
C        6.18365529       7.85483015       3.60708250       0.00000000       0.00932018       0.00344960       0.00875589
C        4.93497937       9.97923786       3.83041626       0.00000000       0.00826584      -0.00164712      -0.00094319
Cu       2.60829945       4.99677317       3.93980296       0.00000000       0.00666299       0.00352743      -0.00534086
O        1.63965873       4.85458358       6.41885609       1.00000000       0.00244399      -0.01280101      -0.00760920
O        2.76693241       4.71910224       5.86642760       1.00000000      -0.01189558       0.00296106       0.01003458
