50
Lattice="12.336457 0.0 0.0 -6.168228499999997 10.683685154694365 0.0 0.0 0.0 15.0" Properties=species:S:1:pos:R:3:forces:R:3 energy=-433.13346564949944 free_energy=-433.13346564949944 stress="-0.0046363966058490785 -0.0038524592755702003 -9.894458440549737e-06 -0.0038524592755702003 0.0036066390650157554 2.123101635157139e-06 -9.894458440549737e-06 2.123101635157139e-06 6.461055989976495e-06" pbc="T T T"
C        0.00445889      -0.01283841       3.75319852      -0.00106931       0.00638915       0.00667409
C       -1.25101801       2.11786374       3.72866702       0.00327475      -0.00006695      -0.00866052
C       -2.45208011       4.26475415       3.70431669       0.00713306      -0.00187116       0.00666864
C       -3.65054157       6.41301137       3.72864580      -0.00199977      -0.00534135       0.00377351
C       -4.89584268       8.56118231       3.76691598      -0.00253750       0.00025123       0.00564863
C        2.47146672       0.02129109       3.72053704      -0.00726905       0.00343401       0.00600836
C        1.17917050       2.12631221       3.69489499      -0.00452665       0.00204959      -0.01459606
C       -0.03870882       4.25763253       3.69844509      -0.00198797      -0.00590456      -0.00988482
C       -1.19531561       6.38233056       3.70671940       0.00428844       0.00209313      -0.01102247
C       -2.42961133       8.54137980       3.72535841       0.00022622      -0.00227034       0.00135283
C        4.94333982      -0.00176664       3.66980984      -0.00249438      -0.00126542       0.00757536
C        3.67853726       2.12015341       3.51747550      -0.00465085       0.00269975       0.00548641
O        1.18857660       6.38654190       3.72606073      -0.00348479       0.00065173       0.00443901
C        0.02798101       8.50827356       3.73086891       0.00219456       0.00336096      -0.00393910
C        7.41008472      -0.03753951       3.70578420       0.00131718      -0.01021495       0.01118762
C        6.16900701       2.13777753       3.60637295       0.00129997       0.00065777       0.00496472
C        5.05431665       4.36402252       3.60640705      -0.00009586       0.00212136       0.01384661
N        3.83532530       6.39976624       4.01423490       0.00239369      -0.00086865      -0.00794649
C        2.46567377       8.45132533       3.82219398      -0.00713866       0.00400565       0.00262710
C        9.85945701      -0.04460443       3.75900663       0.01286550       0.00146409       0.00108764
C        8.63284952       2.11540688       3.69500934      -0.00267942      -0.00134618       0.00664279
C        7.44521155       4.27735447       3.68928664       0.00180272       0.00802359       0.01029222
C        6.25506746       6.44949931       3.77314931      -0.00039782      -0.00041613      -0.00313600
C        4.95399838       8.52333153       3.80902486      -0.00198695      -0.00955802       0.00786369
C       -0.01165807       1.41850886       3.73100371      -0.00062881       0.00276185       0.00221932
C       -1.23520610       3.54586856       3.70789918       0.00171462      -0.00486487      -0.00570684
C       -2.43074326       5.68067895       3.70967526       0.00500392      -0.00107662      -0.00127614
C       -3.66299231       7.83998970       3.74338447      -0.00215751      -0.00498209      -0.00384499
C       -4.91952486       9.98478166       3.75657178      -0.00552642       0.00441777      -0.00539594
C        2.43671591       1.45295376       3.66242610      -0.00723921       0.00634667       0.00628874
O        1.12094508       3.50750568       3.74878213      -0.00714256      -0.00595371      -0.00825915
C       -0.00507494       5.66267978       3.70322408       0.00058117      -0.00397993      -0.00700947
C       -1.20596242       7.81341810       3.71833191       0.00443304       0.00384853      -0.00136032
C       -2.45354644       9.98044787       3.70841482      -0.00594483       0.00071783      -0.00022170
C        4.92249421       1.44376786       3.59524578      -0.00084437       0.00065723      -0.00746962
S        3.53703948       3.80008348       3.14335333       0.00588718       0.00185439       0.00031157
C        1.22842491       7.78164864       3.76963439      -0.00181585       0.00127463      -0.00012348
C        0.01459637       9.94938273       3.70243541      -0.00166647      -0.00324729       0.00382334
C        7.39528140       1.40762129       3.66720804      -0.00217632      -0.01065315       0.00285797
C        6.20429537       3.56928402       3.62746540       0.00451080       0.00547528       0.00666498
C        5.03406661       5.76738984       3.79177661       0.00246968      -0.00030828      -0.00219411
C        3.74253122       7.76097028       3.89013118      -0.00908591       0.00274298       0.00254503
C        2.46474017       9.89854717       3.76381853       0.00764140       0.00452340      -0.00943987
C        9.86451123       1.39545359       3.73055400       0.00490125       0.00301526      -0.01289116
C        8.65308123       3.54538757       3.69415909       0.00158454       0.00341339       0.00782337
C        7.46131713       5.70246893       3.72873246      -0.00475209       0.00309650      -0.00310765
C        6.21572367       7.85828802       3.79326837      -0.00049099      -0.00542493      -0.00674297
C        4.93559464       9.94577130       3.77414217       0.00811820      -0.00675124       0.00393217
Cu       2.71843033       5.30423602       5.02437911      -0.00080880       0.01088380      -0.01158019
O        1.84529282       4.78510507       6.39413586       0.00895722      -0.00586573       0.00320335
