52
Lattice="12.336457 0.0 0.0 -6.168228499999997 10.683685154694365 0.0 0.0 0.0 15.0" Properties=species:S:1:pos:R:3:forces:R:3 energy=-453.1854831132259 free_energy=-453.1854831132259 stress="-0.0037296339284581125 4.8125574265497284e-06 -1.4378459201695645e-05 4.8125574265497284e-06 0.009340864321698311 1.8170413235319065e-05 -1.4378459201695645e-05 1.8170413235319065e-05 1.7422359313258583e-05" pbc="T T T"
C        0.02533056       0.06866153       3.77165146       0.00360207       0.00000997       0.00076974
C       -1.22423339       2.17193470       3.72819284       0.01096926       0.00010918       0.00700134
C       -2.45755108       4.31884483       3.68292063      -0.00068819       0.00436271       0.00029187
C       -3.67629710       6.47313957       3.69629571      -0.01016110       0.00555856       0.00489892
C       -4.90357029       8.62764223       3.75025988      -0.00347755       0.00419065      -0.00307238
C        2.49115598       0.12931741       3.77835850       0.00140993       0.00985184       0.00346551
C        1.23888084       2.27249942       3.78159831       0.00001627      -0.00436127      -0.00568713
C       -0.01641629       4.30988430       3.69946248       0.00463236       0.00363797       0.00385604
C       -1.23432956       6.47108307       3.69337808      -0.00820125       0.00092895      -0.00593293
C       -2.44934242       8.62815469       3.73948466      -0.00538591      -0.00609641      -0.00966876
C        4.95710991       0.06824342       3.77885721      -0.00206725       0.00453264       0.00263968
C        3.74183333       2.27190856       3.80728567       0.00247196      -0.00305165      -0.00101691
N        1.16888074       6.42060719       3.81560205       0.00727533       0.00301405       0.00023297
C        0.02212481       8.56968195       3.76944183       0.00703649       0.00456173       0.00289563
C        7.43295386       0.00576082       3.77930962      -0.00535129      -0.00910965       0.01099729
C        6.20441050       2.17257484       3.76855567       0.01255541      -0.00043294      -0.01378484
C        4.99868127       4.31093542       3.75976931      -0.00159290      -0.00746094       0.00992898
N        3.81329490       6.42187083       3.85423135      -0.00540483      -0.00959969      -0.01100876
C        2.49134809       8.50049428       3.81943127      -0.00137214       0.00815853      -0.01033502
C        9.88645342       0.00554997       3.77604945      -0.01083935      -0.00562912      -0.00322936
C        8.65865206       2.16138548       3.73595399       0.00034630      -0.00706919      -0.00313550
C        7.43931465       4.31923241       3.71063287       0.00124781       0.00644887      -0.00386257
C        6.21753630       6.47111407       3.73123208       0.00900305       0.00042061       0.00599457
C        4.96096254       8.57006644       3.79134587      -0.00581925       0.00127074      -0.00907763
C        0.02205453       1.50019948       3.75914421       0.00812354      -0.00287379       0.00723461
C       -1.23578118       3.59678460       3.68885293       0.00508136       0.00250817       0.00853462
C       -2.45668404       5.74850482       3.68101039      -0.01443764       0.00737394       0.00266488
C       -3.67617470       7.90783744       3.72376612      -0.01107087      -0.00064671       0.00680049
C       -4.90306592      10.06418564       3.76998081       0.00174905       0.00664967      -0.00048553
C        2.49063503       1.56948800       3.79655304       0.00099904       0.00714471       0.00752888
N        1.16950137       3.64790144       3.79915809      -0.00342107      -0.00925120      -0.00618865
C       -0.01740342       5.75734916       3.70655155      -0.00257082       0.00601878       0.00564289
C       -1.22285119       7.89729624       3.73181309       0.00255065      -0.00091271      -0.00085286
C       -2.45065385      10.06446649       3.76737966      -0.00319137      -0.00014323       0.01022720
C        4.95843452       1.50005557       3.78954517       0.00812379       0.00670681      -0.00963049
N        3.81112593       3.64849108       3.84359655      -0.00190890      -0.00840568      -0.00869999
C        1.23896541       7.79646926       3.80321877       0.00789446       0.00356389       0.00213224
C        0.02516514      10.00137822       3.77666613      -0.00331274       0.00399390       0.01183887
C        7.43114063       1.44203989       3.76241134       0.00231892      -0.01344501      -0.00404749
C        6.21694939       3.59773137       3.74059178       0.00657449      -0.00167823      -0.00278833
C        5.00085779       5.75816546       3.76216916       0.00418574      -0.00350131       0.00401211
C        3.74372453       7.79829911       3.82537916      -0.00717183      -0.00017503      -0.00034295
C        2.49163026       9.94074171       3.79243134      -0.01049566       0.00152962       0.00500257
C        9.88606089       1.44144316       3.74432295       0.00405610      -0.00789402       0.00317487
C        8.65900550       3.59485311       3.70615172      -0.00196686       0.00164051      -0.00410042
C        7.43994108       5.74869578       3.70306481       0.00521127       0.00510572       0.01204564
C        6.20600282       7.89715038       3.75851775       0.00056336       0.00297977      -0.01211842
C        4.95794406      10.00167592       3.77940052      -0.00344842       0.00152814       0.01323478
Cu       2.48815874       5.03450103       4.14360067      -0.00787372      -0.00557550      -0.01258643
O        2.35756366       4.99494499       6.08950484       0.01037246       0.00544575      -0.00669914
O        2.43617490       3.63009779       6.49682704       0.00382468      -0.00048030      -0.00769618
H        2.18550528       3.70830972       7.43975274      -0.00096424      -0.01145280       0.00300151
