49
Lattice="12.336457 0.0 0.0 -6.168228499999997 10.683685154694365 0.0 0.0 0.0 15.0" Properties=species:S:1:pos:R:3:forces:R:3 energy=-428.3456289012023 free_energy=-428.3456289012023 stress="-0.0024325460237354284 0.0032218516342708598 -8.889975099632153e-06 0.0032218516342708598 0.0035712998964969973 -1.3127844903073578e-06 -8.889975099632153e-06 -1.3127844903073578e-06 3.04420111663452e-06" pbc="T T T"
C        0.00221987      -0.00253436       3.73907737       0.00316537       0.00349759       0.00233444
C       -1.22015339       2.14107816       3.51830410       0.00122187      -0.00423480       0.00165120
C       -2.47570346       4.27889341       3.64653530      -0.01290846      -0.00647058      -0.00306670
C       -3.71866776       6.41230483       3.84125858      -0.00148405      -0.00207016       0.00701344
C       -4.94525524       8.55055093       3.89507220       0.01009576      -0.00122301      -0.00457635
C        2.47219339       0.02662383       3.87566286      -0.00247896      -0.00528317      -0.00476666
C        1.27145245       2.09543074       3.40955989       0.00057607       0.01278890      -0.00568929
C       -0.09836455       4.37162268       3.18994041       0.01264140      -0.00971010       0.00733573
C       -1.28924481       6.44396662       3.63066083      -0.00374379       0.01104077       0.00524545
C       -2.47985990       8.55665962       3.87181976      -0.00536038       0.00511963       0.00223636
C        4.93708112      -0.00255138       3.90022684      -0.00209199      -0.00322493      -0.00113902
C        3.75368151       2.12380738       3.90462741      -0.00416848       0.00042882      -0.00115380
O        1.09505363       6.47448716       3.37255257       0.00466530       0.00949322       0.00754730
C       -0.01456732       8.54027809       3.78283162      -0.00377194       0.00131350      -0.00507586
C        7.41716145      -0.03459334       3.81978544      -0.00094646       0.00439894      -0.00340823
C        6.19699765       2.11641116       3.91476380       0.00947967       0.00134051      -0.00137770
C        4.99572859       4.24801537       4.02131865       0.00308457       0.00721316       0.00324114
N        3.75975607       6.38254381       3.96493365       0.00177612      -0.00627215       0.00241225
C        2.44612537       8.46536830       3.76924921      -0.00369127       0.00345988      -0.00320369
C        9.87133034      -0.03087922       3.73151724      -0.00048241       0.00760368      -0.00091162
C        8.65352250       2.12236103       3.75059206       0.00672448      -0.00343898       0.00274510
C        7.41208197       4.26540890       3.87205855       0.00330481      -0.00320543       0.00451212
C        6.16999910       6.39712575       3.93993767       0.00078783      -0.00227822       0.00339879
C        4.92457809       8.51473767       3.84919273       0.00180318      -0.00615672       0.00296916
C        0.02188228       1.42958410       3.54715512       0.00297949       0.00401057       0.00242841
C       -1.24517557       3.57780970       3.44638948      -0.00709769      -0.00742134       0.00165890
C       -2.50001300       5.69985892       3.71107501      -0.00398794      -0.00173941       0.00459824
C       -3.71638933       7.83934068       3.88158690       0.00416192      -0.00184921       0.00027433
C       -4.93483334       9.98449657       3.84768543       0.00404579      -0.00302284      -0.00233781
C        2.50026903       1.46279973       3.77017146      -0.00627104      -0.00795295      -0.00679468
S        1.35338230       3.61863501       2.56270753      -0.01506461      -0.00495159      -0.00346852
C       -0.12077892       5.76127752       3.36349011       0.00061574       0.00513854       0.00497023
C       -1.26397668       7.85487323       3.77642260      -0.00520948       0.01248855      -0.00649825
C       -2.47174400       9.98875737       3.90995769      -0.00401084      -0.00129240       0.00001348
C        4.95060301       1.42720074       3.92473983       0.00050520      -0.00004363      -0.00151799
O        3.81730931       3.50059502       4.14393806       0.00238566       0.00953271      -0.00408837
C        1.18522850       7.84120247       3.68619125      -0.00207356       0.00095071       0.00206600
C        0.00601082       9.96355235       3.85339379      -0.00092098      -0.00295364      -0.00507603
C        7.41817884       1.40524610       3.83686497       0.01055838       0.00196135      -0.00226329
C        6.18692072       3.54119807       3.94172976       0.00714579       0.00263274       0.00557525
C        4.94646609       5.67253093       3.98724540      -0.00183609       0.00367683       0.00310841
C        3.70856386       7.74999515       3.85348090      -0.00574132      -0.00969530      -0.00345768
C        2.47046758       9.91103224       3.77494222      -0.00242966       0.00562223      -0.00649211
C        9.89021801       1.41215395       3.66470881       0.00324432       0.00319689       0.00495510
C        8.64111126       3.55112743       3.76293620      -0.00584450      -0.00856167      -0.00010243
C        7.39359834       5.68548530       3.89336917      -0.00135114      -0.00467594      -0.00046952
C        6.16135055       7.82336524       3.90126623       0.00832804      -0.00215611       0.00441903
C        4.93205586       9.94790936       3.76956314      -0.00104892       0.00169406      -0.00447585
Cu       2.40954111       5.07140479       3.93222976       0.00071922      -0.00871951      -0.00529840
