51
Lattice="12.336457 0.0 0.0 -6.168228499999997 10.683685154694365 0.0 0.0 0.0 15.0" Properties=species:S:1:pos:R:3:initial_magmoms:R:1:forces:R:3 energy=-438.8423725736851 free_energy=-438.8423725736851 stress="-0.002929457445217928 0.00438876039736643 -1.6102682862418747e-05 0.00438876039736643 0.0035258767363231945 -6.39114399835732e-06 -1.6102682862418747e-05 -6.39114399835732e-06 -6.652103823103858e-06" pbc="T T T"
C       -0.03316283       0.02209668       3.68143309       0.00000000      -0.00830597      -0.00020974      -0.00067397
C       -1.25223944       2.17008411       3.51748074       0.00000000       0.00254580       0.00032276      -0.00189952
C       -2.51885974       4.30642428       3.61399912       0.00000000       0.00338425      -0.00040271      -0.00157972
C       -3.76691426       6.43723132       3.75481268       0.00000000      -0.00009859      -0.00249374      -0.00558733
C       -4.98709000       8.57069263       3.79579596       0.00000000      -0.00434764       0.01160605       0.00095968
C        2.43588052       0.04823372       3.78163817       0.00000000      -0.00171154      -0.00669471      -0.00449871
C        1.23557156       2.13711168       3.43123435       0.00000000       0.00019577      -0.00053148       0.00840816
C       -0.13363262       4.40726215       3.28022769       0.00000000      -0.00428910       0.00349173       0.00287947
C       -1.33029009       6.47293278       3.61385237       0.00000000       0.00270697       0.00415385       0.00113703
C       -2.52182719       8.58307555       3.78920687       0.00000000      -0.00218853      -0.00307080       0.00058096
C        4.90638923       0.01619857       3.79866386       0.00000000       0.00307364       0.00551272      -0.00016267
C        3.72935855       2.14484467       3.74816812       0.00000000       0.00443308      -0.00093541       0.00079591
O        1.08342764       6.46895187       3.51877553       0.00000000      -0.00730014      -0.00770509       0.00272405
C       -0.04836952       8.56196949       3.73274403       0.00000000      -0.00569549      -0.00289846       0.00110737
C        7.38495181      -0.01118921       3.75544949       0.00000000      -0.00279630      -0.00468140      -0.00443100
C        6.16538457       2.14066960       3.78683089       0.00000000       0.00213555       0.00243518       0.00159659
C        4.94209807       4.26182379       3.81795234       0.00000000       0.00523520      -0.00015653      -0.00555663
N        3.70901132       6.39951211       4.02001209       0.00000000       0.00024399      -0.00066871       0.00362676
C        2.41089270       8.48657388       3.76669109       0.00000000      -0.00536135       0.00033434       0.00014403
C        9.83712127      -0.00648486       3.69452768       0.00000000       0.00813574       0.00047763       0.00234470
C        8.62040231       2.14671289       3.69323583       0.00000000      -0.00658056      -0.00196356      -0.00193242
C        7.37040897       4.28900709       3.76291789       0.00000000      -0.00266187      -0.00379513      -0.00611117
C        6.11248304       6.41452590       3.80103511       0.00000000       0.00337921       0.00333934       0.00720837
C        4.88280878       8.53396785       3.78792914       0.00000000       0.00524066      -0.00385020      -0.00082379
C       -0.01078978       1.46336951       3.53417592       0.00000000      -0.00208257      -0.00267974      -0.00023314
C       -1.28253940       3.60527010       3.46173134       0.00000000       0.00186448      -0.00019465      -0.00508775
C       -2.54385771       5.72614470       3.66461624       0.00000000       0.00753157       0.00196698      -0.00358182
C       -3.75957736       7.86327769       3.78871237       0.00000000      -0.00704440       0.00210589       0.00240270
C       -4.97313318      10.00542481       3.76379662       0.00000000      -0.00970705       0.00723705      -0.00262944
C        2.46720619       1.47882074       3.68488543       0.00000000       0.00206635      -0.00604748       0.00194881
S        1.38360437       3.75713611       2.84433586       0.00000000      -0.00071595       0.00956045      -0.00228365
C       -0.14955570       5.79323436       3.42726863       0.00000000      -0.00501835       0.00197210       0.00020472
C       -1.30417728       7.88388642       3.72559882       0.00000000      -0.00176217      -0.00116617      -0.00357185
C       -2.50739725      10.01177793       3.81199495       0.00000000       0.00328072      -0.00209873       0.00588947
C        4.92562940       1.44370414       3.79054413       0.00000000       0.00598695       0.00599121      -0.00307646
O        3.79323085       3.51259755       3.91783897       0.00000000       0.00433565       0.00025190      -0.00131951
C        1.15419896       7.86025783       3.68821125       0.00000000      -0.00867230      -0.00273195       0.00152037
C       -0.02497414       9.98480998       3.77559880       0.00000000      -0.00274133      -0.00323446       0.00556359
C        7.38730179       1.42851051       3.75312624       0.00000000      -0.00635616      -0.00442482       0.00077189
C        6.14828727       3.56553020       3.79026873       0.00000000       0.00126678      -0.00177583      -0.00034359
C        4.87994203       5.69253824       3.85998005       0.00000000       0.00586727       0.00067448       0.00649721
C        3.66767586       7.76152684       3.85333100       0.00000000      -0.00003043       0.00039617      -0.00621918
C        2.43717186       9.93314811       3.73968965       0.00000000       0.00367107       0.00140535      -0.00520859
C        9.85730724       1.43696566       3.63414899       0.00000000       0.00139669       0.00258102       0.00122838
C        8.60103575       3.57525956       3.69679520       0.00000000      -0.00106356      -0.00066799       0.00003828
C        7.34281278       5.70991578       3.77559098       0.00000000      -0.00240107      -0.00370114      -0.00463494
C        6.11720739       7.84150204       3.79987800       0.00000000       0.00500186       0.00432685      -0.00239269
C        4.89547862       9.97006618       3.71616504       0.00000000       0.00322618      -0.00622179       0.01049083
Cu       2.31153441       5.31202816       4.75518522       0.00000000       0.00500116      -0.00629105      -0.00250321
O        3.93396827       4.34856757       6.45695778       1.00000000       0.00434834      -0.00492818       0.00063351
O        2.67364366       4.24959440       6.23865815       1.00000000       0.00337752       0.01607861       0.00563994
