50
Lattice="12.336457 0.0 0.0 -6.168228499999997 10.683685154694365 0.0 0.0 0.0 15.0" Properties=species:S:1:pos:R:3:forces:R:3 energy=-433.86653982638967 free_energy=-433.86653982638967 stress="0.0008348880478646385 0.0025939967635824376 -1.4232075865419121e-05 0.0025939967635824376 0.005714316862771815 9.884001383927843e-06 -1.4232075865419121e-05 9.884001383927843e-06 9.577974127068714e-06" pbc="T T T"
C        0.01853535      -0.00339054       3.67810373       0.00011091       0.00235383       0.00262107
C       -1.20520076       2.14305401       3.52641019      -0.01094175       0.00854247      -0.00088649
C       -2.44916218       4.27638229       3.63657731       0.00877879      -0.00065598       0.00055464
C       -3.69307228       6.41150846       3.76275422      -0.00126644       0.00184609       0.00538900
C       -4.92407264       8.54987773       3.79408594      -0.00116472      -0.00481188      -0.00169058
C        2.49567619       0.03181028       3.76420540      -0.00726039       0.00633018       0.00553585
C        1.27882240       2.11965391       3.37444195      -0.01125985      -0.00156071       0.00221801
C       -0.01268533       4.35416869       3.30264978       0.00118391       0.00883539       0.00530419
C       -1.23977312       6.43599800       3.61265327       0.00245644      -0.00647662      -0.00824930
C       -2.45391062       8.55460251       3.78129498       0.00194341       0.00678748      -0.00204489
C        4.95481890       0.00276668       3.81712518       0.00455115      -0.00398878      -0.00332486
C        3.76860610       2.14619579       3.78562795       0.01040568       0.00244349      -0.00153945
O        1.16473350       6.44688051       3.51568393       0.00178364      -0.00331096       0.01578383
C        0.01640071       8.53684579       3.76844057      -0.00274629      -0.00647280       0.00492308
C        7.43312771      -0.02729217       3.79961499       0.00167115       0.00453677       0.00443513
C        6.20619715       2.12903779       3.85234351      -0.01075544      -0.00730469       0.00587227
C        4.98824745       4.25187487       3.96753805       0.00467713       0.00387339      -0.00309869
N        3.77380706       6.39998476       4.17123760       0.00994471       0.00088947      -0.01684029
C        2.46788960       8.46784048       3.83807403      -0.00084616      -0.00687875      -0.00280957
C        9.88661030      -0.02586611       3.73204594       0.01233596      -0.00933403      -0.00141365
C        8.66875828       2.12652489       3.73538901      -0.00289761      -0.00704183      -0.00009354
C        7.42614002       4.27134540       3.82460639      -0.00363673      -0.00286478      -0.00281812
C        6.17511900       6.39216908       3.87343870      -0.00851677       0.01197358      -0.00013303
C        4.94097324       8.51468351       3.82881458       0.00421617       0.00162109       0.00314020
C        0.03299847       1.42657312       3.51705598      -0.01388706       0.00513285       0.00591100
C       -1.21289937       3.57862916       3.47846458       0.00910054       0.01096231       0.00078217
C       -2.46838813       5.70038955       3.67342731       0.00060231      -0.00301629       0.00143641
C       -3.69241612       7.83869911       3.78260750       0.00378502       0.00246590       0.00210456
C       -4.91308251       9.98304773       3.74693357      -0.00586379      -0.00421444       0.01308393
C        2.51917390       1.46499654       3.66906055      -0.00293762       0.00738242       0.00191816
P        1.35982422       3.63999804       2.51731239      -0.00507969       0.00885954      -0.00280766
C       -0.04598925       5.75672390       3.42907644       0.00046160       0.00150323       0.00522444
C       -1.23248576       7.84902616       3.73045879      -0.00236300      -0.00559928       0.00129745
C       -2.45110751       9.98893592       3.80532389      -0.00045807       0.00692616      -0.00015318
C        4.96353892       1.43720197       3.83410366      -0.00003726      -0.00858661       0.00939481
O        3.80966669       3.52829856       3.93298497       0.00878542      -0.00071247      -0.01184558
C        1.21857150       7.82864026       3.75061696      -0.00188820      -0.00771213      -0.01756235
C        0.02469539       9.96584508       3.80953208       0.00315239      -0.00211697       0.00195458
C        7.43115737       1.41397978       3.80297533      -0.00823733       0.00140890      -0.00180596
C        6.19171967       3.55598487       3.89299146      -0.00721402      -0.00706246      -0.00804946
C        4.94358585       5.68009107       4.00409325      -0.00017222       0.00936440      -0.00608716
C        3.72651797       7.75543588       3.93940351       0.00707295      -0.00764866      -0.00383111
C        2.48755576       9.91559892       3.79068907       0.00527545      -0.00546855      -0.00163806
C        9.90139988       1.41379704       3.66399604      -0.00020225      -0.00664149       0.00325177
C        8.66069047       3.55670192       3.73526687       0.00469923      -0.00481086       0.00247325
C        7.40883001       5.68949891       3.81872540      -0.00985464       0.00722455      -0.00070438
C        6.17884560       7.82033508       3.83213862      -0.00257592       0.00664797      -0.00175970
C        4.94964158       9.94953201       3.74101266       0.01196661      -0.00646360      -0.00449550
Cu       2.37878162       5.49089944       4.99478316      -0.00494919       0.00869922       0.00271901
O        1.44218081       4.51267094       6.03937335       0.00805183      -0.00585506      -0.00164624
