50
Lattice="12.336457 0.0 0.0 -6.168228499999997 10.683685154694365 0.0 0.0 0.0 15.0" Properties=species:S:1:pos:R:3:forces:R:3 energy=-433.1393843558085 free_energy=-433.1393843558085 stress="0.0004996098864202695 0.0032228198242806225 8.833451871273104e-06 0.0032228198242806225 0.005527596585535893 -1.5509053694756242e-05 8.833451871273104e-06 -1.5509053694756242e-05 -3.93017629152257e-06" pbc="T T T"
C        0.02413576      -0.00514468       3.66294134       0.00271442       0.00100808       0.00428174
C       -1.19665596       2.14439700       3.50499883      -0.00210212       0.00290728       0.00718049
C       -2.45663150       4.27686183       3.64591338       0.00026331       0.00039359      -0.00369137
C       -3.70081741       6.40826962       3.79355484       0.00020914       0.00186569      -0.00662325
C       -4.92648031       8.54397108       3.80556919       0.00183602      -0.00226322      -0.00138997
C        2.49478707       0.02427341       3.78207843       0.00001588       0.00357254      -0.00498844
C        1.29076416       2.10497796       3.37703704      -0.00348440      -0.00555006      -0.00413281
C       -0.06051874       4.37343502       3.27438562       0.00111905       0.00282286      -0.00817767
C       -1.25123501       6.43500567       3.64712823      -0.00786655       0.00270769       0.00138934
C       -2.45665527       8.55099786       3.81571682       0.00218074      -0.00488733      -0.00253503
C        4.95947475      -0.00650284       3.82832182      -0.01257209      -0.00440156       0.00122318
C        3.77748866       2.13271206       3.80292873       0.00349450      -0.00166513       0.00037275
O        1.16018263       6.43926304       3.48256109       0.00165606      -0.00744404      -0.00111214
C        0.01682109       8.52921262       3.76956075       0.00534975       0.00562723      -0.00141706
C        7.43805980      -0.03331126       3.77733232      -0.00310356      -0.00001025      -0.00175742
C        6.21128928       2.12263969       3.84616122       0.00185037       0.00177553      -0.00188275
C        4.98611045       4.24253924       3.96161459      -0.00384875       0.00352226      -0.00421058
N        3.76552275       6.39202483       4.12842205      -0.00562469      -0.00781759       0.01045826
C        2.47003281       8.46247113       3.79090121       0.00308225      -0.00268139       0.00751613
C        9.89293874      -0.03033777       3.69100065      -0.00081314       0.00009511       0.01008516
C        8.67271882       2.12323410       3.71855975       0.00424810      -0.00343009      -0.01004737
C        7.42221145       4.26564850       3.82772862       0.00509102       0.00135180      -0.01006792
C        6.16965926       6.38727388       3.86657997       0.00287490       0.00050555       0.00042011
C        4.94126735       8.50922820       3.79682530      -0.00404166       0.00144215       0.00036061
C        0.04399475       1.43228590       3.50516553      -0.00487675       0.00052113       0.00545658
C       -1.21949045       3.57928151       3.46920337       0.00010754       0.00316151      -0.00069281
C       -2.47504305       5.69706066       3.70340892      -0.00609585       0.00040007      -0.00581448
C       -3.69610701       7.83497892       3.81434415       0.00293920      -0.00159341      -0.00755423
C       -4.91360815       9.97925043       3.75377587       0.00374675       0.00012688       0.00467706
C        2.52393604       1.45796844       3.68708851       0.00145212       0.00507041       0.01095399
S        1.41033206       3.69906053       2.70757075       0.01065518      -0.00985708       0.00683656
C       -0.06385884       5.75932351       3.44383784      -0.00603652       0.00022430       0.00073221
C       -1.23603319       7.84807937       3.76232765       0.00507536       0.00260678      -0.00454811
C       -2.44875159       9.98371397       3.83137612      -0.00879915      -0.00628973      -0.00493646
C        4.96865035       1.42844307       3.83970790       0.00186449      -0.00482061       0.00273451
O        3.82092736       3.50695195       3.98670034      -0.00084579      -0.00239907       0.00235608
C        1.21943422       7.82154726       3.71652823       0.00450071      -0.00096954       0.00559945
C        0.03017196       9.95787964       3.80772261      -0.00812505       0.00601083      -0.00855207
C        7.43591199       1.40786908       3.78536647       0.00326939      -0.00042057       0.00779789
C        6.19147433       3.54736493       3.88456153      -0.00136007       0.00627383      -0.00058606
C        4.93626524       5.67438023       3.98298124       0.00168684       0.00030993       0.00485066
C        3.72593713       7.74748386       3.89477315       0.00014698      -0.00468527       0.00364107
C        2.49220711       9.91035625       3.75011743      -0.00149779      -0.00030139       0.00017436
C        9.91146869       1.41360917       3.63446454       0.00258415      -0.00146364       0.00986780
C        8.65627525       3.55143787       3.73785509       0.00448986      -0.00357338      -0.01045052
C        7.40242191       5.68432356       3.83115773       0.00490518       0.00152301      -0.00841672
C        6.17696462       7.81493417       3.82256052      -0.00276130       0.00066900      -0.00124788
C        4.95258316       9.94485349       3.70757093       0.00051338       0.00465853       0.00329974
Cu       2.37815184       5.49920390       4.99623831       0.00622144       0.01167982      -0.00524971
O        1.41824802       4.67517204       6.14443111      -0.00628885       0.00369094       0.00781708
