52
Lattice="12.336457 0.0 0.0 -6.168228499999997 10.683685154694365 0.0 0.0 0.0 15.0" Properties=species:S:1:pos:R:3:initial_magmoms:R:1:forces:R:3 energy=-451.5016839608498 free_energy=-451.5016839608498 stress="0.0005086729648355614 0.0029069666433686296 -7.414770077945219e-06 0.0029069666433686296 -0.0014822677669607055 -5.50187446643159e-07 -7.414770077945219e-06 -5.50187446643159e-07 -1.8686178865669966e-05" pbc="T T T"
C       -0.03422902      -0.03362501       3.72739076       0.00000000      -0.00000073       0.00003892       0.00063453
C       -1.24451326       2.11934334       3.83421069       0.00000000      -0.00062194       0.00489977      -0.00160523
C       -2.47083688       4.24208051       3.83232561       0.00000000      -0.00312656       0.00087555      -0.00101141
C       -3.73594798       6.36717241       3.73241442       0.00000000       0.00033364      -0.00136659       0.00059440
C       -4.99057443       8.49524547       3.64991103       0.00000000       0.00130287      -0.00122012      -0.00093730
C        2.42602970      -0.04814995       3.74581014       0.00000000       0.00238498      -0.00069679       0.00557972
C        1.21768408       2.10830247       3.86043476       0.00000000       0.00121793      -0.00028895      -0.00020896
C        0.02713966       4.28796285       3.94720038       0.00000000       0.00182821      -0.00233100       0.00030501
C       -1.26348446       6.38006545       3.80618077       0.00000000      -0.00075551       0.00098476      -0.00215242
C       -2.50660426       8.50179547       3.72378298       0.00000000       0.00032952      -0.00076036       0.00128189
C        4.90048285      -0.04362951       3.73152695       0.00000000      -0.00273275      -0.00174334       0.00022284
C        3.66936236       2.07386566       3.77887003       0.00000000      -0.00066795      -0.00178386      -0.00561928
N        2.49707108       4.12913170       4.14415245       0.00000000       0.00496900       0.00168967      -0.00285040
O        1.10254887       6.47326845       3.92752434       0.00000000       0.00175819      -0.00053023       0.00200692
C       -0.04459653       8.51154081       3.67538635       0.00000000       0.00123734       0.00280102      -0.00485478
C        7.37081328      -0.03772799       3.72208869       0.00000000       0.00262448       0.00046609      -0.00055652
C        6.14631826       2.08735632       3.76580543       0.00000000       0.00126846      -0.00000790      -0.00124279
C        4.90609862       4.20724727       3.64317093       0.00000000      -0.00446467       0.00134249       0.00019900
S        3.65813591       6.33226022       2.44134677       0.00000000      -0.00329081       0.00222635       0.00194427
C        2.40327043       8.50248696       3.51943544       0.00000000      -0.00197456       0.00020654      -0.00313260
C        9.83836362      -0.02941962       3.69896484       0.00000000       0.00103217       0.00208471       0.00052151
C        8.61800727       2.10224989       3.79299870       0.00000000       0.00576833      -0.00244192       0.00466131
C        7.38475435       4.22833840       3.73897168       0.00000000       0.00086855      -0.00242655      -0.00026391
C        6.13428809       6.36006297       3.52068882       0.00000000      -0.00266747      -0.00034245       0.00270373
C        4.88908854       8.51086946       3.47947955       0.00000000      -0.00640356      -0.00051410       0.00163041
C       -0.02152123       1.39849839       3.81240686       0.00000000      -0.00175696       0.00208997      -0.00096001
C       -1.21688071       3.55452169       3.87835209       0.00000000      -0.00272027       0.00368794       0.00131350
C       -2.49543920       5.65748747       3.80003835       0.00000000      -0.00125398       0.00012175      -0.00201901
C       -3.74841125       7.78882078       3.70514287       0.00000000       0.00198132      -0.00195659      -0.00536194
C       -4.97996323       9.92548782       3.70772204       0.00000000       0.00268700      -0.00036680       0.00031638
C        2.43325082       1.37432471       3.79933988       0.00000000       0.00046218      -0.00140963      -0.00081761
C        1.26931650       3.53254773       3.99205492       0.00000000       0.00563624      -0.00106790       0.00458963
C       -0.05454262       5.69604994       3.89478659       0.00000000      -0.00004653      -0.00186028       0.00129691
C       -1.27966907       7.79938824       3.73539984       0.00000000       0.00090220       0.00222776      -0.00186587
C       -2.50624427       9.92867721       3.72769820       0.00000000      -0.00085193      -0.00222073      -0.00000634
C        4.91006953       1.37674559       3.75140226       0.00000000      -0.00089888      -0.00189863       0.00249960
C        3.66034631       3.48615509       3.82328744       0.00000000      -0.00005481      -0.00177221      -0.00132807
C        1.15582302       7.83621266       3.62784955       0.00000000       0.00096980       0.00025850       0.00317933
C       -0.03244635       9.94098207       3.70219362       0.00000000      -0.00036558       0.00272568      -0.00271562
C        7.38091866       1.38716229       3.76856136       0.00000000       0.00490809      -0.00016895       0.00124230
C        6.14543613       3.51007012       3.72832977       0.00000000      -0.00295286       0.00156792       0.00370572
C        4.94238342       5.60092581       3.35221301       0.00000000      -0.00211423      -0.00088075      -0.00833708
C        3.65288501       7.85632411       3.26168238       0.00000000      -0.00525086      -0.00026592      -0.00265900
C        2.42897937       9.93176878       3.65626175       0.00000000       0.00196098       0.00055947      -0.00270431
C        9.85288959       1.39787893       3.78492812       0.00000000       0.00450199       0.00099811       0.00440051
C        8.62298153       3.52476733       3.79957529       0.00000000       0.00122488      -0.00334805      -0.00044607
C        7.36940782       5.65176092       3.67963178       0.00000000      -0.00012888      -0.00133014       0.00285502
C        6.11507127       7.78214662       3.52449072       0.00000000      -0.00430631       0.00031436       0.00219610
C        4.89945403       9.93937872       3.64666696       0.00000000      -0.00223128       0.00037871      -0.00074586
Cu       2.88032006       5.79565160       4.85667663       0.00000000      -0.00037718       0.00135740      -0.01710397
O        4.13686421       6.35830412       6.17478764       1.00000000      -0.00183397       0.00846573       0.00373639
O        3.09949708       7.15579790       6.26056088       1.00000000       0.00169266      -0.00736845       0.01788941
