52
Lattice="12.336457 0.0 0.0 -6.168228499999997 10.683685154694365 0.0 0.0 0.0 15.0" Properties=species:S:1:pos:R:3:forces:R:3 energy=-444.4182679290815 free_energy=-444.4182679290815 stress="-0.0005330715839800944 0.00238682047982202 -1.5127922656395367e-05 0.00238682047982202 0.003571013959974255 2.3967995679575182e-05 -1.5127922656395367e-05 2.3967995679575182e-05 -1.002716654714314e-05" pbc="T T T"
C       -0.01094008       0.02102539       3.79332098       0.00909530       0.00963491      -0.01119043
C       -1.23943027       2.15428619       3.89331126      -0.00040628      -0.00711462       0.00185352
C       -2.47159309       4.29203573       3.88642449       0.00682016      -0.00529664      -0.00015903
C       -3.72468644       6.42362861       3.79355784      -0.00515210       0.00570042      -0.00039343
C       -4.96249236       8.56172099       3.71723592      -0.00538595       0.01299401       0.00776910
C        2.44347427       0.07141379       3.79218588       0.00508157      -0.00664476      -0.00093079
C        1.19383478       2.17821863       3.84016624       0.00375443       0.00213628       0.00830917
C       -0.03010677       4.27971758       3.92667615      -0.00287385       0.00473188       0.00754602
C       -1.25795272       6.42202441       3.89432126      -0.00113204       0.00172527      -0.00286511
C       -2.50317225       8.57185640       3.83916521       0.00855136      -0.00262810      -0.00206576
C        4.90733707       0.01805146       3.84329828      -0.00898933      -0.00744466      -0.00147347
C        3.72758913       2.15984124       3.69713093      -0.00251335      -0.00695512       0.00434446
N        1.14829028       6.44551871       3.93604010      -0.00062626       0.00902332       0.00865731
C       -0.04145970       8.55259352       3.87922830       0.00128625       0.00243939      -0.00450613
C        7.38420184      -0.00251530       3.88566512      -0.00095729      -0.00519614      -0.00635555
C        6.17196833       2.12782330       3.78689146      -0.00362547      -0.00032227       0.00081511
C        4.99172184       4.20462042       3.46068186      -0.00572178      -0.00003297       0.00341394
P        3.55250507       6.34835029       2.59305125       0.01419943      -0.00134746       0.01086187
C        2.43031533       8.54765449       3.74064784      -0.00358127      -0.00986728      -0.00528271
C        9.85623233       0.00265327       3.83936178       0.00211633       0.00973311      -0.00116465
C        8.63208977       2.14105542       3.87987104      -0.00928422       0.01372254       0.00138318
C        7.40813786       4.27630819       3.75451894      -0.00070456      -0.00504760      -0.00239878
C        6.15201045       6.39782534       3.55779445       0.00444890      -0.00559040       0.00056142
C        4.91265392       8.55556030       3.60148823      -0.00574936      -0.00272759      -0.00111962
C        0.00031124       1.46033616       3.85369280       0.00516144       0.00384164      -0.01792461
C       -1.23219250       3.57992331       3.91384435       0.00525524      -0.01008023       0.00409165
C       -2.48394050       5.71073924       3.86617173      -0.00272557      -0.00258567      -0.00624405
C       -3.73152050       7.85179863       3.78418214      -0.00173144       0.01327753      -0.00535133
C       -4.94869670      10.00533625       3.76604170       0.00454960       0.01005035      -0.00599115
C        2.45199881       1.52330454       3.77829508       0.00188804      -0.01041577       0.00977851
O        1.15194341       3.56175689       3.92763639      -0.00222612       0.00293683       0.01659479
C       -0.01442208       5.70953633       3.92853406       0.00026001       0.00885878       0.01159456
C       -1.27179356       7.85047421       3.88060917       0.00784811      -0.00100189      -0.00769784
C       -2.50248954      10.01164241       3.82418098      -0.00115617      -0.01022444      -0.00159004
C        4.91953379       1.44340231       3.78524825      -0.00220504      -0.00826013      -0.00862287
O        3.79396683       3.52034110       3.53431710      -0.00575076      -0.00318155      -0.00799691
C        1.18028432       7.80999278       3.84703811      -0.00381445       0.00492328       0.00450603
C       -0.02559072       9.97790232       3.87455565      -0.00672021      -0.00187002       0.00417937
C        7.39250828       1.42321947       3.86623832      -0.00227666       0.00189089       0.00279661
C        6.18828832       3.53561364       3.67390513      -0.00580216       0.00182309       0.00362025
C        4.95718656       5.61585730       3.37277168       0.00984695      -0.00053909      -0.00025536
C        3.65407553       7.87774838       3.47589425      -0.00575381      -0.00273070      -0.01802457
C        2.44574446       9.96824948       3.84906362       0.00305174      -0.00833298      -0.00550822
C        9.87039913       1.43394438       3.88722739      -0.01051492       0.01316399      -0.00804388
C        8.63668496       3.56919467       3.85406443       0.00148996       0.00591909      -0.00485009
C        7.38724998       5.70016837       3.71027673       0.00088183      -0.00858231       0.00332744
C        6.14511266       7.83496177       3.60187732      -0.00476374      -0.00176794       0.01076360
C        4.92032526       9.98044898       3.75823529       0.00642482       0.00761641      -0.00613225
Cu       2.68187925       5.47741879       4.39121150      -0.00313351       0.00891357       0.00636117
O        3.30774768       4.48686482       5.87619611       0.00339247      -0.00006645       0.01338499
O        2.82256143       5.36338125       6.91195755      -0.00412531      -0.01581011      -0.00539378
H        3.56944529       5.32800814       7.54278922       0.01399901      -0.00339170       0.00301834
