52
Lattice="12.336457 0.0 0.0 -6.168228499999997 10.683685154694365 0.0 0.0 0.0 15.0" Properties=species:S:1:pos:R:3:forces:R:3 energy=-443.77955743073227 free_energy=-443.77955743073227 stress="-0.003290810000957927 0.004004374054107002 3.427531957289116e-05 0.004004374054107002 0.0031905191712224613 3.3300872782844408e-06 3.427531957289116e-05 3.3300872782844408e-06 1.0665174814964696e-05" pbc="T T T"
C        0.00865703       0.00186602       3.72202519      -0.00642120       0.00461918       0.00166548
C       -1.21547963       2.14501389       3.57746652      -0.00215041       0.00440173       0.00086854
C       -2.46900875       4.28169566       3.67050899       0.01270331      -0.00460339      -0.00844742
C       -3.71726391       6.41640177       3.80080176       0.01211373       0.00380706      -0.00095227
C       -4.94120188       8.55377610       3.83719537       0.00116522      -0.00057260       0.00351690
C        2.48148198       0.03062842       3.83464446      -0.00412104       0.00223002       0.00768822
C        1.27656907       2.12991886       3.47935037       0.00276652       0.00432453       0.01166658
C       -0.05669915       4.37202206       3.34980503       0.00466379      -0.00163153       0.00095475
C       -1.28194254       6.45259928       3.65006252       0.00697144       0.00388702      -0.00023937
C       -2.47602526       8.56351540       3.84152937      -0.00473861       0.00139424      -0.00910948
C        4.94802709       0.00012116       3.86417274      -0.00113923      -0.01400126       0.00101803
C        3.77063833       2.13026390       3.82606927       0.00615750       0.00268637      -0.00190876
O        1.11934964       6.46224616       3.50621392      -0.00880343       0.00077283      -0.00566276
C       -0.00725217       8.54598419       3.78209857      -0.00542059       0.00436188       0.00170670
C        7.42691581      -0.03260786       3.81020974      -0.00371889       0.01166045       0.00032160
C        6.20990760       2.11879787       3.86065638      -0.01002513      -0.00484438       0.00862970
C        4.99492583       4.24517609       3.90443673      -0.00100466      -0.00696225       0.00746943
N        3.75388325       6.37986998       3.99190101       0.00249053       0.00205179       0.00561604
C        2.45277716       8.46844884       3.78654520      -0.00277142       0.00066208       0.01129304
C        9.87843560      -0.02792599       3.73846101       0.00208500      -0.00121414      -0.00474349
C        8.66299805       2.12413038       3.75577483      -0.00124562      -0.00954540      -0.00085093
C        7.41831005       4.26831884       3.81957808       0.01110915       0.00595396       0.00955085
C        6.16448238       6.39511496       3.84934365      -0.00720830       0.00219275       0.00400243
C        4.92704796       8.51332189       3.80853025       0.01182176       0.00345292       0.00947208
C        0.02777907       1.43700831       3.58303231      -0.00297689       0.00372017      -0.00240908
C       -1.23800692       3.58013206       3.52566444       0.00866955      -0.00029628      -0.00979821
C       -2.49665418       5.70546305       3.71145242       0.01416770      -0.00269325       0.00379024
C       -3.71314919       7.84390817       3.83719431       0.00284283      -0.00023932      -0.01400034
C       -4.92776311       9.98661193       3.80776641      -0.00496201      -0.00092912      -0.01199779
C        2.51006623       1.46248248       3.74312239       0.00898259       0.00334595      -0.00853008
P        1.44426986       3.72719512       2.75988400      -0.00729164      -0.00263267       0.00090686
C       -0.10200744       5.77037246       3.45460177       0.00303368      -0.00195218       0.00019169
C       -1.25953567       7.86196928       3.76878292      -0.00348059       0.00615348       0.00504219
C       -2.46484881       9.99348629       3.87017275      -0.00619052      -0.00324504      -0.00788907
C        4.96961607       1.42561614       3.86581080      -0.00281217      -0.01434369      -0.00275010
O        3.83918213       3.49967053       4.01473081      -0.01367458       0.00337340      -0.00174155
C        1.19402220       7.84878875       3.72007140      -0.00806259      -0.00155857       0.00651406
C        0.01529918       9.96713072       3.83601791       0.00218895       0.00114548      -0.01056184
C        7.42990905       1.40702090       3.81788910      -0.00948333       0.00298571      -0.00711899
C        6.19725915       3.54510736       3.86529371       0.00207929      -0.00029195       0.00285223
C        4.93233193       5.67348867       3.90581791      -0.00498926      -0.00808912       0.00412721
C        3.71068126       7.74161569       3.85431833       0.00962219       0.00163015       0.00024032
C        2.47928215       9.91246751       3.77695653      -0.00272554       0.00654326       0.01505744
C        9.89383068       1.41193259       3.69195469       0.00007701      -0.00050383      -0.01055363
C        8.64962946       3.55445446       3.75606704       0.01152531      -0.00778248      -0.00963503
C        7.39229320       5.68916640       3.82440207       0.00013788       0.01254575       0.00730532
C        6.16343906       7.82215217       3.83261661       0.00396354       0.00131509       0.00272116
C        4.93963116       9.94955908       3.75087725       0.00042488       0.00119381       0.00189253
Cu       2.29934301       5.21793291       4.52404533       0.00022092      -0.01521081       0.00193987
O        2.75386004       4.36916539       6.13191892       0.00347154       0.00302815      -0.00540883
O        2.13088032       5.20082931       7.14887914      -0.01101754      -0.01048771      -0.00336750
H        2.80702813       5.14563528       7.85330407      -0.00902061       0.00819176      -0.00034499
