52
Lattice="12.336457 0.0 0.0 -6.168228499999997 10.683685154694365 0.0 0.0 0.0 15.0" Properties=species:S:1:pos:R:3:forces:R:3 energy=-451.8990304898333 free_energy=-451.8990304898333 stress="-0.002512583233955614 -0.00028229613041299195 7.178227630243581e-06 -0.00028229613041299195 0.0010205880892613652 2.3013111055264558e-05 7.178227630243581e-06 2.3013111055264558e-05 1.485616870559037e-05" pbc="T T T"
C       -0.00098412       0.06646748       3.73951682      -0.00153635      -0.00658549      -0.00158419
C       -1.24971870       2.18370858       3.70778019      -0.00040476      -0.00394489      -0.00534330
C       -2.48502141       4.32851341       3.68165227      -0.00081901       0.00411803      -0.00153588
C       -3.70493823       6.47182608       3.68359314      -0.00965283      -0.00036110       0.00278323
C       -4.93049357       8.61878156       3.71916788      -0.00522820       0.00624438       0.00283610
C        2.46698421       0.10401042       3.77763124      -0.00283595      -0.00467053      -0.01140757
C        1.20959293       2.24954693       3.80348537       0.00016364       0.01219291       0.00380569
C       -0.03570288       4.27870967       3.80801790      -0.00022125      -0.00348720      -0.00809155
C       -1.23630937       6.45877337       3.78383702       0.00244585      -0.00554315       0.00981075
C       -2.47072164       8.61292473       3.76760863      -0.00841397       0.00542218       0.00049580
C        4.92602416       0.06394219       3.78311677       0.01321542       0.01157465       0.00084553
C        3.72124837       2.19027529       3.76347222      -0.00706866      -0.00189571       0.00506190
B        1.28559145       6.43386457       4.01288447      -0.01144361      -0.00011252      -0.00070050
C       -0.00863924       8.60739967       3.84448112      -0.00078540      -0.00473069       0.01336986
C        7.39730725       0.05495118       3.76847061      -0.00187555       0.00438521      -0.00221207
C        6.16532588       2.19105033       3.70265977       0.01206709      -0.00501080       0.00516288
C        4.97255014       4.31799156       3.67491914       0.01169883      -0.00026221      -0.00842145
C        3.68766137       6.43623804       3.86829918       0.00280358      -0.00214074      -0.00091605
C        2.46985303       8.60584588       3.85641223      -0.00143884       0.00559277      -0.00040524
C        9.86569587       0.05071802       3.74152752      -0.00117601      -0.00402907      -0.00120548
C        8.62631847       2.18985992       3.67992521      -0.00196306       0.00748357       0.00679453
C        7.39772271       4.33628737       3.64772129      -0.00145034      -0.00489346      -0.00478106
C        6.16301383       6.46854216       3.66659248       0.01033330       0.01027791       0.01427183
C        4.93452724       8.59374306       3.75718723       0.00104869      -0.01402589      -0.00070091
C       -0.00299778       1.49556318       3.73900520       0.00294768       0.00006227       0.01543417
C       -1.26629596       3.59471194       3.71206005      -0.00001091      -0.00154877      -0.01398164
C       -2.47982552       5.75441678       3.70611650      -0.00296697       0.00249335       0.00529169
C       -3.70302878       7.90081213       3.71912894      -0.01279316       0.00369185       0.00069139
C       -4.92941044      10.05040944       3.74946824      -0.00285626      -0.00180345      -0.00091071
C        2.47642894       1.54986237       3.79444193      -0.01028364      -0.00405544      -0.00283453
N        1.14426983       3.60545501       3.89420964       0.01078741       0.01613189       0.01058304
C       -0.02491783       5.70884688       3.85703087       0.00142085      -0.00970936      -0.00275778
C       -1.24036354       7.89368510       3.80409558      -0.00450129      -0.00290036      -0.00134542
C       -2.47682170      10.04984129       3.78321572       0.00813122       0.01043769      -0.01174504
C        4.92649874       1.49554824       3.75180905       0.00477068       0.01004230      -0.00542588
O        3.77833549       3.58828503       3.71171322      -0.00219757       0.00304990      -0.00437956
C        1.23839428       7.92186990       3.90865948       0.00116584      -0.00197571      -0.00129584
C       -0.00840624      10.03356031       3.80006157       0.00562657      -0.00149071      -0.00198878
C        7.38970327       1.48082047       3.70963359       0.00620179       0.00111410       0.01058781
C        6.16507424       3.61199118       3.65878365       0.00825083      -0.01141480      -0.01021844
C        4.92151428       5.73839774       3.70663721       0.01237803       0.00771468       0.00147539
C        3.69471352       7.85044290       3.83075123      -0.00471124      -0.00426889      -0.01270103
C        2.46682647      10.02887070       3.78685623      -0.00546233       0.00550329      -0.00365280
C        9.85757164       1.47213497       3.70012142      -0.00522386      -0.00031003       0.00321733
C        8.62202941       3.61684281       3.65727784      -0.00095927       0.00541236       0.00551196
C        7.39339777       5.75824460       3.65061246      -0.00357218      -0.00469936       0.00568520
C        6.17034854       7.89560454       3.70663664       0.00631322       0.00404708       0.01348247
C        4.93250229      10.02196692       3.74465571      -0.00047615      -0.01523084      -0.00014499
Fe       2.52569509       5.06908230       4.49038255      -0.00962636      -0.00249397      -0.00634865
O        2.86576472       4.90033115       6.32978832       0.00709558      -0.00276776      -0.00789022
O        2.92307358       3.43820035       6.46601430      -0.00298535      -0.00096925      -0.00663830
H        2.47667010       3.36912793       7.32722303      -0.00392575      -0.00966024       0.00436635
