51
Lattice="12.336457 0.0 0.0 -6.168228499999997 10.683685154694365 0.0 0.0 0.0 15.0" Properties=species:S:1:pos:R:3:initial_magmoms:R:1:forces:R:3 energy=-445.8114118976803 free_energy=-445.8114118976803 stress="-0.0038932557403916325 0.0006921844458407137 7.033251309866261e-06 0.0006921844458407137 0.0024125810994016002 2.039065734006956e-06 7.033251309866261e-06 2.039065734006956e-06 6.2780257800949446e-06" pbc="T T T"
C       -0.01234304      -0.03631528       3.61922833       0.00000000       0.00897493       0.00400736       0.00985178
C       -1.25361621       2.09504492       3.54838713       0.00000000       0.00037167      -0.00071341       0.00180538
C       -2.48134570       4.24142792       3.61638913       0.00000000      -0.00606749      -0.00288288      -0.01258993
C       -3.71446371       6.37522498       3.72060371       0.00000000       0.00897519      -0.00310874      -0.00111583
C       -4.95439438       8.51354961       3.74238671       0.00000000       0.00522381       0.00089701       0.00989224
C        2.44539188      -0.00582097       3.64804680       0.00000000       0.00087510       0.00451909       0.00568010
C        1.19544588       2.09091129       3.59962002       0.00000000      -0.00114591       0.00047843      -0.01136214
C       -0.07310191       4.25453992       3.57535209       0.00000000       0.00685339      -0.00042106      -0.00420225
C       -1.25295040       6.37709109       3.62015154       0.00000000       0.00078597       0.00751066      -0.00607227
C       -2.48259907       8.51736552       3.64961491       0.00000000      -0.00179897       0.00713517       0.00480917
C        4.92697228      -0.03696417       3.64357226       0.00000000      -0.00631367      -0.00193511      -0.00110481
C        3.70499418       2.13556780       3.76468196       0.00000000      -0.01080687      -0.00336243       0.00327730
O        1.16846270       6.38204856       3.63005724       0.00000000      -0.00659811       0.00732918       0.00556255
C       -0.00974772       8.48362756       3.63099765       0.00000000       0.00602880      -0.00092608       0.00140925
C        7.39594624      -0.06430595       3.60618081       0.00000000      -0.00713722      -0.00094646       0.00221704
C        6.17958361       2.08267587       3.71044240       0.00000000      -0.00059525      -0.00180651       0.00590714
C        4.98902531       4.21636018       4.02534801       0.00000000      -0.00158926       0.00450337      -0.01016529
B        3.79178105       6.48092790       4.67936311       0.00000000      -0.00532294      -0.00095867       0.00301989
C        2.44375297       8.45917665       3.74903494       0.00000000       0.00506848      -0.00963933       0.00273628
C        9.85260759      -0.05882776       3.59989038       0.00000000      -0.00918738      -0.00581863       0.00440951
C        8.62863292       2.08643255       3.60387518       0.00000000       0.00631009       0.00223231      -0.00082569
C        7.41720055       4.22924638       3.76813382       0.00000000      -0.00425415      -0.00083621       0.01753230
C        6.17265181       6.36382376       3.98761911       0.00000000      -0.00045326      -0.00194095      -0.00746918
C        4.90800310       8.50354494       3.83327682       0.00000000       0.00038586       0.00251369       0.00420364
C       -0.01501405       1.39639526       3.56447234       0.00000000       0.00020193       0.00208630       0.00083782
C       -1.25596116       3.52373012       3.56336851       0.00000000      -0.00005332       0.00155006      -0.01047032
C       -2.48120388       5.65933504       3.64609564       0.00000000       0.00625903      -0.00297010      -0.00635433
C       -3.71947146       7.80377767       3.70632094       0.00000000       0.00378320      -0.00084708      -0.00015639
C       -4.94835087       9.94867303       3.66366338       0.00000000       0.00978585       0.00179571       0.00074804
C        2.43551890       1.43478755       3.66461638       0.00000000      -0.00912537      -0.00219465      -0.00123937
O        1.13530701       3.50269872       3.51535085       0.00000000       0.01549477      -0.00686425      -0.00386743
C       -0.05512070       5.65459386       3.61084768       0.00000000      -0.00089231       0.00269696      -0.00350961
C       -1.25684520       7.79837165       3.62984477       0.00000000       0.00130844       0.00947710      -0.00620575
C       -2.48656932       9.95051112       3.64618599       0.00000000      -0.00464662       0.00429459       0.00482846
C        4.93470116       1.38913486       3.70036859       0.00000000      -0.00675435      -0.00213364      -0.00408462
C        3.78675976       3.50472441       3.96904927       0.00000000       0.00729427      -0.00473196      -0.00056972
C        1.19633646       7.78184644       3.68467799       0.00000000       0.00473067      -0.00177399       0.01521828
C       -0.00799275       9.91822927       3.62419205       0.00000000      -0.00526841      -0.00392475       0.00327315
C        7.40372454       1.36607591       3.62579314       0.00000000       0.00658858       0.00279253       0.00704138
C        6.20621582       3.49985096       3.83053318       0.00000000      -0.00426996       0.00065643      -0.00631955
C        4.99110203       5.63109637       4.20396247       0.00000000      -0.00346637       0.00359185       0.00475507
C        3.68206339       7.82717399       3.98138621       0.00000000       0.00436825      -0.00650682      -0.00219458
C        2.45150233       9.89868215       3.62417800       0.00000000      -0.01097045      -0.00975731       0.00569522
C        9.86192748       1.37708535       3.56432822       0.00000000       0.00183478      -0.00333657       0.00159993
C        8.63494470       3.51530074       3.65199171       0.00000000      -0.00789640       0.00094276      -0.01343169
C        7.40874036       5.65458798       3.82227281       0.00000000       0.00424884      -0.00105850      -0.00730198
C        6.15839414       7.79817199       3.88011123       0.00000000       0.00214219       0.00099055       0.00694081
C        4.92185167       9.93023463       3.65509001       0.00000000       0.00086663       0.00549609       0.00130351
Fe       2.44228681       4.75191263       4.28418980       0.00000000      -0.00134589       0.00682459      -0.01055061
O        2.25256037       5.24683795       6.10127306       1.00000000      -0.00409052       0.00422173      -0.01744036
O        3.11417652       6.43635573       5.97793016       1.00000000       0.00128970      -0.00714741       0.01404844
