50
Lattice="12.336457 0.0 0.0 -6.168228499999997 10.683685154694365 0.0 0.0 0.0 15.0" Properties=species:S:1:pos:R:3:forces:R:3 energy=-444.94639960426025 free_energy=-444.94639960426025 stress="-0.0030390144147000777 0.0004157871255919331 -1.9342043904842493e-06 0.0004157871255919331 0.0023066204294863103 -8.852025047746755e-06 -1.9342043904842493e-06 -8.852025047746755e-06 9.437004127958088e-06" pbc="T T T"
C        0.01693451      -0.01135757       3.66573517       0.00289956       0.00506346       0.00279461
C       -1.22832466       2.10689484       3.64687077      -0.00008969      -0.00102192       0.00946603
C       -2.46097784       4.25017128       3.60402040       0.00129145      -0.00433174       0.00312154
C       -3.67984427       6.39692382       3.58538934      -0.00333024      -0.00353580      -0.00051020
C       -4.90768995       8.54569397       3.61767737       0.00359058       0.00477089       0.00241982
C        2.48688777       0.02718275       3.70239027      -0.00760542      -0.00518206       0.00503446
C        1.22661418       2.17663306       3.81160240      -0.00172544       0.00402214      -0.00251936
C       -0.02359244       4.22365649       3.91085564       0.00829932       0.00750704      -0.00714858
C       -1.23109035       6.37927260       3.85927197       0.00232458      -0.00373739       0.00021749
C       -2.45018807       8.53810251       3.73136869      -0.00205104      -0.00356697       0.00612084
C        4.94604774      -0.01390695       3.71794432      -0.00134166       0.00168014       0.00458537
C        3.74481837       2.10278882       3.72302517      -0.00537564      -0.00235148      -0.00257360
B        1.10367532       6.44449569       4.73537480      -0.00826745      -0.00644191       0.00519151
C        0.01055828       8.53696090       3.94451581       0.00036773      -0.00710390      -0.00243486
C        7.41951975      -0.03243195       3.71639442      -0.00057272      -0.00039479      -0.00043575
C        6.19238081       2.10723434       3.58794104       0.00934105       0.00035562       0.00041011
C        5.00706128       4.24361439       3.60204909       0.00061831      -0.00142510      -0.01504942
C        3.76868574       6.35363691       3.81798558       0.00458381       0.00166737       0.00432713
C        2.46530285       8.49306274       3.92002401      -0.00694455       0.00238957       0.00432521
C        9.87915460      -0.04210964       3.67204100       0.00289001      -0.00006069       0.00416236
C        8.65037456       2.10552461       3.56894718      -0.00261271       0.00353158       0.00294687
C        7.42543957       4.25620213       3.51034551      -0.00181445      -0.00019328      -0.00161032
C        6.20379244       6.39700760       3.55006586       0.00317349       0.00299931       0.00679884
C        4.95219620       8.50898474       3.68874502       0.00384504      -0.00127418       0.00046443
C        0.01615989       1.41973941       3.69813838       0.00116584       0.00248187       0.00367635
C       -1.24153075       3.52330975       3.68699598       0.00499834       0.00030575       0.01373305
C       -2.46301352       5.67477396       3.65376655       0.00025204      -0.00344977      -0.00337500
C       -3.68188603       7.82626344       3.63541757      -0.00123674      -0.00122842      -0.00299576
C       -4.91047259       9.97559774       3.66213568      -0.00357783       0.00103955       0.01090966
C        2.49483442       1.47292176       3.75593723      -0.00640534      -0.00683518       0.00649261
N        1.16100615       3.52719572       3.99885768      -0.00416983      -0.00230022      -0.00099776
C       -0.05008204       5.64113369       4.06472617       0.00741756       0.00264359      -0.00417254
C       -1.23052023       7.82256779       3.87127055      -0.00132467      -0.00571353       0.00827229
C       -2.45726458       9.97667478       3.71973853      -0.00454478      -0.00193192       0.00163197
C        4.95068424       1.41493909       3.66254561       0.00259701       0.00473001      -0.00753554
O        3.80918517       3.51355276       3.70480039      -0.01054832       0.00632921      -0.00043325
C        1.23321137       7.86205707       4.13999486      -0.00142539      -0.00754714      -0.00339235
C        0.01197872       9.95863736       3.78116717      -0.00047174      -0.00596216      -0.00917908
C        7.41391076       1.39647623       3.60754720       0.00500089      -0.00152364      -0.00554387
C        6.19202513       3.53073598       3.53283106       0.00367225      -0.00209445      -0.00416263
C        4.95421446       5.66454201       3.62504328       0.00127706       0.00164547      -0.00985533
C        3.71673596       7.74061505       3.82050297      -0.00498835       0.00195747       0.00096930
C        2.47965599       9.92493857       3.75754877      -0.00146864       0.00197936      -0.00853073
C        9.87893354       1.38557157       3.61051609      -0.00362730       0.00113753       0.00820143
C        8.64671371       3.53463928       3.53482902      -0.00322214       0.00167708      -0.00018342
C        7.42327373       5.68092362       3.52113477      -0.00242298      -0.00174016       0.00140924
C        6.19349958       7.81959524       3.60362377       0.00849462       0.00325837      -0.00305836
C        4.94970501       9.93665845       3.67514718       0.00696619      -0.00001673      -0.00652220
Fe       2.54911376       4.80502269       4.52491254      -0.00100977       0.00676383      -0.00876601
O        1.77392830       5.96481212       5.81462926       0.00710810       0.01102834      -0.00669662
