50
Lattice="12.336457 0.0 0.0 -6.168228499999997 10.683685154694365 0.0 0.0 0.0 15.0" Properties=species:S:1:pos:R:3:forces:R:3 energy=-442.175040541929 free_energy=-442.175040541929 stress="-0.002389234224858589 0.0010544477755869747 -8.225667097564307e-06 0.0010544477755869747 0.0024872003577069168 1.1979296041276727e-05 -8.225667097564307e-06 1.1979296041276727e-05 -2.8202893983019564e-06" pbc="T T T"
C       -0.00893248      -0.01186745       3.67794896       0.00525216      -0.01055344      -0.00337076
C       -1.24347162       2.12351748       3.56752502       0.00076602      -0.00413397      -0.00068520
C       -2.47470341       4.26576109       3.55690290      -0.00148100      -0.00050086      -0.00793222
C       -3.71327636       6.39628786       3.66200907      -0.00028676       0.01294564      -0.00623680
C       -4.95276938       8.53426337       3.74644346       0.00314945       0.00513817       0.00425061
C        2.44916490       0.01352662       3.69859615       0.00587645       0.00629451       0.00763118
C        1.20303756       2.11100289       3.72497587       0.00297908       0.00812633       0.00162615
C       -0.05597176       4.28522022       3.62414427       0.00018788       0.00022204      -0.00337607
C       -1.24693271       6.39987808       3.56795612      -0.01069790      -0.00385382      -0.00773889
C       -2.48009280       8.53910555       3.61883901      -0.00177928      -0.00117392       0.00656433
C        4.92997406      -0.01215717       3.64572611       0.00000563       0.00066838       0.00778956
C        3.71154851       2.15890549       3.89064998       0.00454835       0.00131614       0.00695559
O        1.16001583       6.42310420       3.57784167      -0.00631887      -0.00984856       0.00482551
C       -0.00878444       8.51371826       3.60044158      -0.00217515       0.00684069       0.00920256
C        7.40119377      -0.04023173       3.60296739       0.00895106       0.00883715      -0.01355001
C        6.18247311       2.10768244       3.69685009       0.00061085      -0.00542045       0.01303267
C        4.97335527       4.23591346       4.07212141      -0.00114424      -0.00678021      -0.00634143
B        3.76055010       6.45902779       4.68283643      -0.00195741       0.00347453       0.00126740
C        2.45032093       8.47914719       3.77002267      -0.00048298      -0.00911078      -0.00794261
C        9.85717416      -0.03457632       3.62811339      -0.00572587       0.00748572       0.00453074
C        8.63542719       2.11069473       3.57247760      -0.00803855       0.00202474      -0.00328556
C        7.41288546       4.25079443       3.70808611       0.00840857      -0.00548740      -0.00351588
C        6.16995321       6.38209408       3.95180313       0.00859660      -0.00019945      -0.00736786
C        4.90861888       8.52673115       3.88084825      -0.00600725      -0.00401427      -0.00843483
C       -0.00845255       1.42189235       3.63304964       0.00484260      -0.00718117       0.00429511
C       -1.23908418       3.55666786       3.55062193      -0.00045411      -0.00209197       0.00375854
C       -2.47650191       5.68255549       3.58208431      -0.01157605       0.00076122      -0.01166266
C       -3.71780750       7.82463987       3.67279917      -0.00185347       0.00946801       0.01189584
C       -4.94641350       9.97035224       3.70447531       0.01055452      -0.00106034       0.00241381
C        2.43889743       1.44930612       3.78032978       0.00486463       0.00943363      -0.00069334
O        1.15473961       3.52808832       3.69621994      -0.00105200       0.00451762      -0.00174022
C       -0.03525566       5.69410056       3.60467317      -0.00891109      -0.00578940       0.00039700
C       -1.25278282       7.82147055       3.58021876      -0.00335329      -0.00201186       0.00476194
C       -2.48330449       9.97159031       3.65363245      -0.00067625      -0.00071771       0.00555584
C        4.94181443       1.40995833       3.73016271       0.00028936      -0.00224332       0.00246920
C        3.80084289       3.49220496       4.20053881      -0.01152990       0.00382035      -0.00065239
C        1.19350391       7.79906528       3.66684023      -0.00376734      -0.00584957       0.00015667
C       -0.00373471       9.94504320       3.60974512       0.00680856       0.01335011       0.00312397
C        7.41007249       1.39045215       3.60630020      -0.00160261       0.00376177      -0.00466033
C        6.19892893       3.52588165       3.80344456       0.00591027      -0.00726970      -0.00887608
C        4.98743635       5.65864544       4.18171904       0.00274519      -0.00233104      -0.00787437
C        3.68298488       7.84245851       4.02322312      -0.00297750      -0.00348188       0.00803661
C        2.45647536       9.91852704       3.64226890       0.00192990      -0.00098428       0.00080569
C        9.87124948       1.40271816       3.56638974      -0.00869209       0.00778378       0.00597732
C        8.63778662       3.53966346       3.59058505       0.00402237      -0.00503152       0.00353904
C        7.40720941       5.67563922       3.76402132       0.01121264       0.00043687      -0.01097797
C        6.15994020       7.82048362       3.88845043       0.00118422       0.00321194      -0.01028707
C        4.92390520       9.95375783       3.70538954      -0.00567943       0.00114705       0.00441465
Fe       2.27859175       4.48522661       4.97693510      -0.00700885      -0.00629402       0.00230425
O        2.94635202       6.08673858       5.69373764       0.01153287      -0.00765147       0.00562073
