50
Lattice="12.336457 0.0 0.0 -6.168228499999997 10.683685154694365 0.0 0.0 0.0 15.0" Properties=species:S:1:pos:R:3:forces:R:3 energy=-442.20999155648667 free_energy=-442.20999155648667 stress="-0.0022105706677099228 0.0018270528318577914 -1.0061806318367822e-05 0.0018270528318577914 0.0012829816382613586 -1.3571016714627242e-05 -1.0061806318367822e-05 -1.3571016714627242e-05 -2.066173884861306e-06" pbc="T T T"
C       -0.01762409      -0.00731207       3.66256610      -0.00231163       0.00395823       0.01044001
C       -1.24809221       2.12891913       3.53855771      -0.00170049      -0.00251999       0.00941675
C       -2.47503479       4.26588701       3.51497118       0.00155174       0.00326462      -0.00487682
C       -3.71609200       6.39982781       3.62415585       0.00099662       0.00334085      -0.00120486
C       -4.96166386       8.53822331       3.72880547       0.00166503      -0.00908348      -0.00243171
C        2.45512213       0.01845571       3.73034346       0.00550109      -0.00437384       0.00203383
C        1.21199969       2.17338559       3.77435681      -0.01054763       0.00756569       0.00198764
C       -0.00492740       4.29226825       3.63826666      -0.01028338       0.00216263       0.00572191
C       -1.24966275       6.41427926       3.56715286      -0.00052978       0.00315253       0.00348683
C       -2.49024827       8.54279226       3.63858347       0.00758784      -0.00561493      -0.01074538
C        4.91860641      -0.01197803       3.67657010       0.01354791      -0.01408856       0.00339385
C        3.73173489       2.09422633       3.90634892       0.00149568      -0.00849719       0.01434619
O        1.14442512       6.44845307       3.58883096      -0.00210832      -0.01171582       0.00423186
C       -0.02171538       8.52746056       3.63008276       0.00187609      -0.00376756       0.00148696
C        7.39229920      -0.03223565       3.61259606      -0.00305470       0.00431598      -0.00215458
C        6.17511899       2.11068888       3.69581329      -0.00103542       0.00602011      -0.00882482
C        5.01861109       4.23466909       4.02504210      -0.00854985       0.01039767      -0.00886890
B        3.76528867       6.45194959       4.59689499      -0.00373919       0.00231312      -0.01061484
C        2.43973922       8.49012886       3.75476261      -0.00501520       0.00284054      -0.00871854
C        9.84905440      -0.02632395       3.60686596      -0.00576303      -0.00760782      -0.00238722
C        8.62750325       2.11688105       3.54574077       0.01197846      -0.00729978      -0.00090994
C        7.40877702       4.25775076       3.64951045       0.00026549       0.00737317       0.00236146
C        6.15827626       6.37372467       3.87695152      -0.00858376       0.00090891      -0.00371414
C        4.89759724       8.52808629       3.83229870       0.00375741       0.00749338      -0.00286131
C       -0.01589543       1.42129761       3.62672746      -0.00735423       0.00308982       0.00621794
C       -1.24767879       3.55872184       3.51782350      -0.00324608      -0.00153876       0.00260378
C       -2.48383971       5.68863843       3.55440776       0.00265972       0.00435601       0.00762305
C       -3.72613723       7.82768169       3.66274863       0.00625647      -0.00228405       0.00517590
C       -4.95025697       9.97132187       3.71167044       0.00066402      -0.00578503      -0.01419833
C        2.47930913       1.45496896       3.82450011      -0.00590749       0.00346465       0.01101264
C        1.12409369       3.54625108       3.90928314      -0.00624468       0.00482884       0.01039982
C       -0.03320065       5.73134997       3.61304166      -0.00521946      -0.00237618       0.01237766
C       -1.26348547       7.83413627       3.60125625       0.00437760      -0.00134901       0.00515635
C       -2.48901246       9.97764589       3.68537119       0.01102183      -0.00896627       0.00402158
C        4.93356236       1.41457703       3.74502177       0.00523620      -0.01128035      -0.00887149
O        3.83637545       3.46833582       4.24899728       0.00010995       0.00136493       0.00248597
C        1.17899732       7.81782955       3.67429013      -0.00339740      -0.00618631       0.00463101
C       -0.01311966       9.95571331       3.63832171       0.00924496      -0.00765795      -0.00527105
C        7.39271782       1.40211783       3.60271983       0.00155520       0.00489060      -0.00867508
C        6.18527168       3.52988480       3.75832241      -0.00731638       0.01231499      -0.00901327
C        4.97367698       5.62577537       4.10370039      -0.00595322       0.00717467      -0.00191293
C        3.67136478       7.84234019       3.97297731       0.00238652       0.01378625       0.00130273
C        2.44727778       9.92775246       3.63544509      -0.01020543       0.00155828      -0.00939705
C        9.85313712       1.40352778       3.53922322       0.00853096      -0.01308752       0.00217810
C        8.63128025       3.54425840       3.54656671       0.00370112      -0.00212592      -0.00551452
C        7.39492459       5.67638003       3.69863358      -0.00404129       0.00808278      -0.00656416
C        6.14604139       7.81349924       3.83554834      -0.00179226      -0.00415488      -0.00455138
C        4.91517739       9.95736385       3.67495629      -0.00123713       0.00627587      -0.00073337
Fe       2.40823653       4.36196996       5.14718790       0.00559553       0.00205992       0.00444159
O        2.98535195       6.06003444       5.62883688       0.01357399       0.00300616       0.00448026
