52
Lattice="12.336457 0.0 0.0 -6.168228499999997 10.683685154694365 0.0 0.0 0.0 15.0" Properties=species:S:1:pos:R:3:forces:R:3 energy=-449.37822971886976 free_energy=-449.37822971886976 stress="-0.0013904066132542335 -0.0006610532223441322 -2.2150467160705424e-05 -0.0006610532223441322 0.0010380704388345291 -4.164426020007089e-06 -2.2150467160705424e-05 -4.164426020007089e-06 2.6136912831387147e-05" pbc="T T T"
C        0.04001991       0.02771000       3.78066391      -0.00121895       0.00195952      -0.00290161
C       -1.20309406       2.15386404       3.72794453       0.00051496      -0.00363936      -0.00682461
C       -2.43549665       4.30321556       3.69568897      -0.00437414      -0.00010205      -0.00107420
C       -3.65884372       6.44259580       3.71674864      -0.00037023       0.00266963      -0.00299683
C       -4.88748130       8.58540345       3.76307001       0.00199607      -0.00411582      -0.00083452
C        2.50819944       0.07274451       3.77284880      -0.00116820       0.00018219      -0.00097463
C        1.23969773       2.15876203       3.77265110       0.00359816       0.00564917       0.00446853
C       -0.01390390       4.26244202       3.73788211      -0.00018611       0.00300109      -0.00436362
C       -1.18327566       6.42595022       3.77263253      -0.00871654      -0.00196901      -0.00166229
C       -2.42573348       8.58248284       3.77183705      -0.00576418       0.00416740      -0.00716310
C        4.96841301       0.04201568       3.76868794       0.00332949       0.00095958       0.00470608
C        3.76381221       2.17612790       3.72656421      -0.00484523      -0.00030676       0.00879867
B        1.33018772       6.42137452       4.00186126       0.01851722       0.00590956      -0.00165736
C        0.03425546       8.58473001       3.84424909      -0.00391299      -0.00377188       0.01441901
C        7.44136047       0.03227988       3.79188227      -0.00301652       0.00479577      -0.00003712
C        6.20911064       2.16684660       3.70040845      -0.00129058      -0.00013603      -0.00649131
C        5.01674042       4.29235899       3.65819018       0.00157484      -0.00373208       0.01234356
C        3.72653451       6.40964242       3.91716038      -0.00892293      -0.00533497       0.00400388
C        2.51409021       8.58363286       3.89792269       0.00540492      -0.00074401      -0.00470062
C        9.91078518       0.02471227       3.79636600      -0.00934872      -0.00702763      -0.01022203
C        8.67334913       2.16555229       3.71686980       0.00663677      -0.00052474       0.00129060
C        7.44382759       4.30975898       3.67940093       0.00338436       0.00480371      -0.01069320
C        6.20517259       6.43700382       3.72496899      -0.00234231      -0.00244735       0.00535647
C        4.97611613       8.56090171       3.82376620       0.00422111      -0.00109763      -0.00373545
C        0.04047082       1.45984741       3.75989801       0.00491172       0.00344446       0.00068214
C       -1.21077533       3.56779924       3.69532070      -0.00340711      -0.00055539       0.00545632
C       -2.42681571       5.72463079       3.71739734      -0.00719570      -0.00168705       0.00584731
C       -3.65773969       7.87025701       3.74761528       0.00001748      -0.00081251      -0.00124259
C       -4.88635269      10.01988730       3.77591479      -0.00056609      -0.00359714       0.00822772
C        2.50551047       1.52834983       3.76825655      -0.00367823      -0.00121862      -0.00200043
O        1.18112854       3.54695004       3.76410855       0.00542230       0.00414378      -0.00655325
C        0.03401729       5.66391856       3.82023551       0.00200126       0.00500869      -0.00915287
C       -1.19223885       7.86061110       3.79861511      -0.01031320      -0.00023114       0.00718202
C       -2.43357000      10.02138360       3.77243830       0.00121708       0.00443360       0.01267303
C        4.96325750       1.47606840       3.72798370      -0.00372370       0.00008096       0.01536904
O        3.82634994       3.56561463       3.62433847       0.00210830      -0.00529289      -0.00075904
C        1.28042295       7.90126985       3.92040540       0.00412603       0.00462066      -0.01285892
C        0.03378125      10.01203863       3.80264838       0.00134874      -0.00281112      -0.00311191
C        7.43508954       1.45689163       3.73297328       0.00290224       0.00495325       0.00249928
C        6.21181862       3.58656665       3.66190612       0.00396549       0.00134100      -0.00286691
C        4.96695803       5.70836069       3.74581991      -0.00535335      -0.00255133      -0.00566337
C        3.73604643       7.82703471       3.88807126       0.00448337      -0.00520018       0.00237832
C        2.51119677      10.00759193       3.83107774      -0.00826015      -0.00275541      -0.00035307
C        9.90966873       1.44928609       3.74330358       0.00153403      -0.00684977       0.00478957
C        8.67135661       3.59232221       3.69073465       0.00060343       0.00041546      -0.00481861
C        7.44012283       5.72971302       3.69518340       0.00080596       0.00408088       0.00301133
C        6.21384694       7.86446827       3.77131285       0.00315426      -0.00239555      -0.00173470
C        4.97474699       9.98940834       3.80343178      -0.00481585       0.00095943       0.00296494
Fe       2.56332071       5.04664970       4.50706835       0.00172157      -0.00265495       0.00408611
O        3.03629575       4.27999065       6.20243086      -0.00758756       0.01281082       0.00731674
O        1.58076380       4.30837214       6.45173186       0.01887479      -0.00276042      -0.00210538
H        1.59068629       4.81309023       7.28338974       0.00200261      -0.00406779      -0.01831713
