51
Lattice="12.336457 0.0 0.0 -6.168228499999997 10.683685154694365 0.0 0.0 0.0 15.0" Properties=species:S:1:pos:R:3:initial_magmoms:R:1:forces:R:3 energy=-446.04359365273564 free_energy=-446.04359365273564 stress="-0.0020654841036167994 -0.00026002583251657065 2.1833585501988244e-06 -0.00026002583251657065 0.0014686460438300168 -7.483756945580662e-06 2.1833585501988244e-06 -7.483756945580662e-06 1.1392632830461177e-05" pbc="T T T"
C        0.03069718      -0.02634618       3.64308548       0.00000000       0.00654691      -0.00000273      -0.00286728
C       -1.21513688       2.09965223       3.61128518       0.00000000       0.00004283       0.00678294       0.01679064
C       -2.44810103       4.24566160       3.60919211       0.00000000      -0.00366946       0.00508098      -0.00013171
C       -3.66725325       6.38601854       3.61051456       0.00000000      -0.00094112      -0.00083577      -0.00482686
C       -4.89443737       8.53109893       3.62408322       0.00000000       0.00151632      -0.01354464       0.00894854
C        2.49917902       0.01199245       3.66188346       0.00000000       0.00144760       0.00307480       0.00954112
C        1.23052629       2.10318483       3.69090743       0.00000000       0.00393345       0.00499576       0.00319597
C       -0.03252363       4.22221227       3.81316236       0.00000000      -0.00738885       0.00011459       0.00523686
C       -1.20723569       6.36418427       3.85046464       0.00000000      -0.00929716      -0.00716990       0.00197885
C       -2.43251204       8.52242449       3.72475860       0.00000000       0.00209157       0.00556994       0.00938693
C        4.96045362      -0.02224121       3.69326454       0.00000000       0.00465259      -0.00286262       0.00001011
C        3.75883566       2.09986677       3.64880510       0.00000000      -0.00374332      -0.00196755       0.00439355
B        1.07944819       6.45463700       4.73007374       0.00000000       0.00629774       0.00869335      -0.00090170
C        0.03233320       8.52769878       3.92918401       0.00000000       0.00579548      -0.00077943       0.00203395
C        7.43215869      -0.03317487       3.70757397       0.00000000      -0.00029089      -0.00168818       0.00083767
C        6.20341364       2.10311282       3.57676074       0.00000000      -0.00122276       0.00064033      -0.00662049
C        5.01692298       4.23666850       3.56039534       0.00000000      -0.00151450       0.00432322      -0.01304575
C        3.76043407       6.36919129       3.75954753       0.00000000       0.00110665       0.00872213       0.00749670
C        2.48222447       8.50073285       3.91112572       0.00000000      -0.00105016      -0.00455489      -0.00455572
C        9.89420790      -0.04137491       3.66639969       0.00000000      -0.01058156      -0.01449543       0.00164396
C        8.66327749       2.10370221       3.57373695       0.00000000       0.00556779       0.00226702       0.00365899
C        7.43635319       4.25121522       3.53008131       0.00000000       0.01115442       0.00429258       0.00008169
C        6.20811182       6.38576202       3.56943591       0.00000000       0.00440004      -0.00325485      -0.00719782
C        4.96711334       8.50650112       3.69089427       0.00000000      -0.00093638      -0.00192729      -0.00859620
C        0.03157369       1.40692612       3.64314040       0.00000000       0.00674652       0.00688777      -0.00568101
C       -1.22310295       3.51619555       3.64538671       0.00000000      -0.00579990       0.00855718       0.01009900
C       -2.44204580       5.66529614       3.66601784       0.00000000      -0.00863955      -0.00114602      -0.01008567
C       -3.66610610       7.81379583       3.64658306       0.00000000       0.00496019      -0.00417956      -0.00219038
C       -4.89603244       9.96491277       3.64354039       0.00000000       0.00559331      -0.00845775       0.00896066
C        2.49524752       1.46938022       3.67200042       0.00000000       0.00006262       0.00279419       0.00433380
O        1.17098029       3.50057938       3.77607764       0.00000000      -0.00566420      -0.00187502       0.01090421
C       -0.01601487       5.60625442       4.03551974       0.00000000      -0.00662881      -0.00007786       0.00044819
C       -1.20758233       7.80319508       3.86139052       0.00000000       0.00127396      -0.00118434      -0.00146561
C       -2.44317217       9.96236397       3.69508511       0.00000000       0.00127844       0.00746592       0.00958388
C        4.95856767       1.40983304       3.62797843       0.00000000      -0.00466347      -0.00245245      -0.00846943
O        3.82367105       3.50159622       3.61501648       0.00000000      -0.01231730       0.00065538       0.00901700
C        1.25592792       7.86322878       4.13498667       0.00000000       0.00302278      -0.00026572      -0.01102387
C        0.02625155       9.95308451       3.76453649       0.00000000       0.00530769      -0.00182164      -0.00693157
C        7.42663175       1.39406489       3.60537608       0.00000000       0.00203898       0.00164486      -0.00348402
C        6.20605947       3.52440632       3.52722076       0.00000000       0.00294062       0.00666499      -0.00948880
C        4.96524741       5.65683176       3.60251484       0.00000000      -0.00072454       0.00758273      -0.00481359
C        3.73210872       7.76331352       3.80054945       0.00000000      -0.00125112       0.00556581      -0.01071806
C        2.49445512       9.93289612       3.75096670       0.00000000      -0.01006449      -0.01383704       0.00678575
C        9.89825143       1.38708940       3.60238410       0.00000000       0.00210342      -0.00652163       0.00730301
C        8.66042070       3.53183102       3.55152699       0.00000000       0.00799404       0.00373205      -0.00410481
C        7.43443008       5.67245736       3.54947937       0.00000000       0.00517680       0.00187893       0.00209339
C        6.20608544       7.81066429       3.61773133       0.00000000      -0.00149121      -0.00780275       0.00355209
C        4.96446076       9.93363666       3.66978434       0.00000000      -0.00105338      -0.00322153      -0.00900204
Fe       2.56841776       4.96977130       4.26170688       0.00000000      -0.00307268      -0.00830196      -0.00518773
O        2.21857080       4.97211997       6.13411476       1.00000000       0.00365780       0.00420296      -0.00016198
O        1.40256778       6.19973541       6.13618172       1.00000000      -0.00470378       0.00203816      -0.00676447
