51
Lattice="12.336457 0.0 0.0 -6.168228499999997 10.683685154694365 0.0 0.0 0.0 15.0" Properties=species:S:1:pos:R:3:initial_magmoms:R:1:forces:R:3 energy=-448.52786549733673 free_energy=-448.52786549733673 stress="-0.002410450512430951 -9.353794037234722e-05 1.012542583797346e-05 -9.353794037234722e-05 0.0020161015061044177 -2.4470396728946337e-05 1.012542583797346e-05 -2.4470396728946337e-05 1.5515809254474863e-05" pbc="T T T"
C        0.02556533      -0.03049320       3.64751695       0.00000000      -0.00335262      -0.00270843      -0.00783709
C       -1.22236871       2.08865671       3.65013977       0.00000000      -0.00387230      -0.00103386      -0.00217268
C       -2.45517534       4.23196892       3.63385588       0.00000000      -0.00002150       0.00230199      -0.00016878
C       -3.67011498       6.37711757       3.59755544       0.00000000      -0.00380854       0.00346824       0.00111834
C       -4.89803885       8.52610494       3.60963420       0.00000000       0.00051369      -0.00812602       0.00905426
C        2.49731428       0.00639785       3.66981924       0.00000000      -0.00587252      -0.00527719      -0.00231420
C        1.23392584       2.15326822       3.75212434       0.00000000      -0.00151378       0.00212877       0.00521825
C       -0.01732092       4.20000429       3.91876550       0.00000000       0.00221427       0.00012250      -0.00718855
C       -1.21532696       6.35637426       3.89103289       0.00000000       0.00027233      -0.00119023       0.00177803
C       -2.43774255       8.51602583       3.72580378       0.00000000       0.00399276      -0.00155653      -0.00445101
C        4.95597256      -0.03228153       3.66243425       0.00000000       0.00248202      -0.00540736      -0.00169261
C        3.75128394       2.08501312       3.62830155       0.00000000       0.00476035      -0.00072844       0.00051311
B        1.08367763       6.47423653       4.75402035       0.00000000      -0.00571327       0.00048069      -0.00404119
C        0.02646224       8.51972861       3.90665218       0.00000000      -0.00387913      -0.00195704       0.00083782
C        7.42764518      -0.04773975       3.65619194       0.00000000      -0.00237071       0.00378025      -0.00265965
C        6.19895039       2.09173897       3.51080635       0.00000000       0.00488219      -0.00118471       0.00553137
C        5.01197056       4.22930240       3.49714533       0.00000000       0.00397098       0.00067443       0.00732681
C        3.76183772       6.34316913       3.75951320       0.00000000       0.00373707       0.00153735       0.00168109
C        2.47712027       8.48333803       3.87189557       0.00000000      -0.00366794       0.00699267       0.00370415
C        9.88815888      -0.05615550       3.63813267       0.00000000       0.00365754       0.00018413       0.00603157
C        8.65731478       2.09080445       3.54392407       0.00000000       0.00095318      -0.00208045       0.00099732
C        7.43297363       4.24087144       3.48154884       0.00000000       0.00015504       0.00036720       0.00311054
C        6.20833714       6.37922293       3.52044803       0.00000000      -0.00093449      -0.00147387       0.01037338
C        4.96121302       8.49360742       3.66043634       0.00000000       0.00530514      -0.00173038      -0.00185191
C        0.02217800       1.39891278       3.67780594       0.00000000      -0.00372885       0.00025173      -0.00414653
C       -1.23824815       3.50293403       3.71584358       0.00000000      -0.00018410      -0.00072046      -0.00676129
C       -2.45217346       5.65593698       3.68570643       0.00000000      -0.00371109       0.00431061       0.00087436
C       -3.67113557       7.80627830       3.63896714       0.00000000       0.00416049       0.00014873      -0.00249319
C       -4.90073088       9.95609821       3.64614937       0.00000000      -0.00650411      -0.00888242      -0.00010272
C        2.50324663       1.45345034       3.69066981       0.00000000       0.00134265       0.00027527      -0.00547076
N        1.16819029       3.50498820       3.91582491       0.00000000       0.00342929       0.00424432      -0.00261108
C       -0.03267585       5.61430349       4.11380399       0.00000000       0.00318986      -0.00326896      -0.00773726
C       -1.21517740       7.79957518       3.86642993       0.00000000      -0.00109707      -0.00252253       0.01857980
C       -2.44611372       9.95519417       3.69004068       0.00000000      -0.00082554      -0.00310065      -0.00807591
C        4.95810670       1.39706418       3.58184039       0.00000000       0.00751749      -0.00423214      -0.00549445
O        3.81321950       3.49400880       3.56131280       0.00000000      -0.00512398       0.00828306      -0.00069850
C        1.25087800       7.85680787       4.10921321       0.00000000      -0.00394937      -0.00047052      -0.00445223
C        0.02202596       9.94151369       3.72365685       0.00000000       0.00018277      -0.00322368      -0.00659823
C        7.42108259       1.38116533       3.54993495       0.00000000       0.00185448       0.00066316       0.00419282
C        6.19960611       3.51570246       3.45788612       0.00000000       0.00208374      -0.00226433      -0.00320800
C        4.95809964       5.64966459       3.55728131       0.00000000       0.00521428      -0.00216986      -0.00103653
C        3.72650592       7.73454162       3.77514771       0.00000000       0.00134588       0.00296747       0.00550214
C        2.48887424       9.91372044       3.70469788       0.00000000      -0.00063594       0.00981784       0.00361256
C        9.88577562       1.37086130       3.59501631       0.00000000      -0.00100349      -0.00249866       0.00318788
C        8.65364065       3.51930087       3.53134694       0.00000000       0.00201823      -0.00076482      -0.00485208
C        7.43156535       5.66396402       3.50828244       0.00000000      -0.00427384       0.00102246       0.00749771
C        6.20251463       7.80197581       3.58586486       0.00000000       0.00176637      -0.00422021       0.00029276
C        4.95866023       9.92131273       3.65025981       0.00000000       0.00202678      -0.00333151      -0.00181619
Fe       2.55258578       4.84452450       4.32701522       0.00000000      -0.00336721       0.00513957       0.00872535
O        2.36060446       5.18671592       6.18844925       1.00000000       0.00764081       0.00876376       0.00156445
O        1.43990353       6.33265466       6.16891491       1.00000000      -0.01125830       0.00819902      -0.01137324
