51
Lattice="12.336457 0.0 0.0 -6.168228499999997 10.683685154694365 0.0 0.0 0.0 15.0" Properties=species:S:1:pos:R:3:initial_magmoms:R:1:forces:R:3 energy=-445.10310126812334 free_energy=-445.10310126812334 stress="-0.004572096545393463 0.001569250482976214 8.381604079601069e-06 0.001569250482976214 0.0002821504522265374 -1.4195243885843069e-05 8.381604079601069e-06 -1.4195243885843069e-05 2.1145005558035923e-06" pbc="T T T"
C       -0.00091391      -0.03764840       3.74468198       0.00000000      -0.00204490       0.00422490       0.00838682
C       -1.23349197       2.09299983       3.82925642       0.00000000       0.01228031       0.00651241      -0.00464870
C       -2.45612031       4.23421291       3.81057762       0.00000000       0.00956138       0.00855882       0.00815002
C       -3.69448105       6.37090934       3.72630427       0.00000000      -0.00984136       0.00167457      -0.00028055
C       -4.93641344       8.51328150       3.65533744       0.00000000      -0.01489435      -0.00809267       0.00050239
C        2.46590414      -0.02546876       3.81303414       0.00000000      -0.00712598       0.01115539      -0.00470744
C        1.23359440       2.13034029       3.86220741       0.00000000       0.00421616       0.00027777       0.00007736
C        0.00200591       4.25614022       3.87282517       0.00000000      -0.00113487      -0.00129842       0.00212777
C       -1.23987928       6.38544382       3.83604113       0.00000000       0.00456916      -0.00792766      -0.00294206
C       -2.47077302       8.51555406       3.80734348       0.00000000       0.00652858      -0.00259958       0.00718508
C        4.93586143      -0.03404877       3.85532113       0.00000000       0.00197115      -0.00172461       0.00301349
C        3.70893698       2.11842060       3.81461296       0.00000000       0.01167941       0.00264443      -0.00275105
O        1.14853933       6.41187742       3.81852521       0.00000000      -0.00502325      -0.00094464      -0.00524321
C       -0.00625799       8.49764578       3.82638466       0.00000000       0.00592947       0.01030241       0.00763168
C        7.40859699      -0.06109777       3.84666222       0.00000000       0.00403591       0.00106444       0.00313942
C        6.19060605       2.08035642       3.81352191       0.00000000      -0.00560442       0.00083814       0.00104350
C        4.99474224       4.19870400       3.54183587       0.00000000       0.00160491      -0.00172394      -0.00149740
P        3.63578155       6.29073574       2.45741527       0.00000000       0.00934367       0.01127990       0.00648263
C        2.44358936       8.46706251       3.62892345       0.00000000      -0.00810400      -0.00844574      -0.00617406
C        9.86702052      -0.05778588       3.76731539       0.00000000      -0.00101868      -0.00930583       0.00541612
C        8.64650560       2.08373965       3.82992423       0.00000000      -0.00174282       0.00046036      -0.00105027
C        7.43322874       4.22515711       3.71113003       0.00000000       0.00387304       0.00134687       0.00557459
C        6.20354919       6.36826921       3.44889672       0.00000000      -0.00132591      -0.00940078      -0.00307324
C        4.92779984       8.50174845       3.48730671       0.00000000      -0.00416196      -0.00506651       0.00366907
C       -0.00339697       1.39041884       3.81754915       0.00000000       0.00838473       0.00589366       0.01328973
C       -1.22815713       3.52225763       3.83971971       0.00000000       0.00614943       0.00564230       0.00344777
C       -2.46658637       5.65673011       3.80029482       0.00000000      -0.00517943       0.00448976       0.00552548
C       -3.70374889       7.80055669       3.72827992       0.00000000      -0.00587566       0.00235000       0.00465830
C       -4.93366220       9.93917948       3.73766534       0.00000000      -0.01080544       0.00116211      -0.00159164
C        2.47182536       1.40366119       3.84819336       0.00000000       0.01124358       0.01151011      -0.00613846
C        1.22337527       3.53308020       3.93236371       0.00000000      -0.01826575      -0.00809842       0.00054141
C       -0.04516638       5.68271425       3.85458341       0.00000000       0.00387194      -0.00485518       0.00171788
C       -1.24770786       7.80590648       3.83684057       0.00000000       0.01335152      -0.00481172      -0.00780391
C       -2.47050241       9.94371045       3.82992753       0.00000000      -0.00373717       0.00382704      -0.01049513
C        4.94434887       1.39079747       3.83487160       0.00000000       0.00318699      -0.00630756       0.00226594
C        3.74614380       3.53179302       3.73007078       0.00000000      -0.00421639       0.00231856      -0.00107180
C        1.19567116       7.80776270       3.73546691       0.00000000      -0.00523916      -0.00110552       0.00170491
C       -0.00050250       9.92857275       3.85195117       0.00000000       0.00599342       0.00922167      -0.00422878
C        7.41768118       1.36642163       3.84464825       0.00000000      -0.00821123       0.00236879       0.00064759
C        6.20980427       3.49643748       3.70019336       0.00000000       0.00076307       0.00137880      -0.01367644
C        5.02067157       5.61243782       3.28436232       0.00000000       0.00762118      -0.00777685      -0.00758452
C        3.68279190       7.82092480       3.33107129       0.00000000      -0.00442792       0.00240579       0.00558347
C        2.46277134       9.90040407       3.77475696       0.00000000      -0.00417229      -0.01123147      -0.00643618
C        9.87084704       1.36923045       3.82293121       0.00000000       0.00438374      -0.00260129      -0.00906967
C        8.65275417       3.51285094       3.79350492       0.00000000       0.00756223       0.00576822       0.00321777
C        7.42668651       5.65177578       3.63718887       0.00000000      -0.00263549      -0.00339806      -0.00512843
C        6.17637790       7.79837582       3.49549641       0.00000000      -0.01086810      -0.01507543       0.00200226
C        4.93552123       9.92598687       3.67928780       0.00000000       0.00199299      -0.00517376      -0.00624663
Fe       2.52347287       4.77432713       4.37556912       0.00000000       0.00425710      -0.00282609       0.00809347
O        2.21993507       5.35650730       6.33984854       1.00000000       0.00513973       0.01176107       0.00701795
O        3.20596054       6.11341991       5.87602779       1.00000000      -0.01383829      -0.00064659      -0.01027432
