50
Lattice="12.336457 0.0 0.0 -6.168228499999997 10.683685154694365 0.0 0.0 0.0 15.0" Properties=species:S:1:pos:R:3:forces:R:3 energy=-439.935363658259 free_energy=-439.935363658259 stress="-0.005010549184623327 0.0029437916288681176 2.632993384798314e-06 0.0029437916288681176 0.00029965542356712583 3.0464728360982246e-06 2.632993384798314e-06 3.0464728360982246e-06 1.1550117827889797e-05" pbc="T T T"
C       -0.02672727      -0.01073013       3.79394687      -0.00225051       0.00310157      -0.00749461
C       -1.25031367       2.12667348       3.90731672       0.01076478      -0.01076405      -0.01065747
C       -2.46922169       4.26272372       3.83794687       0.00434736       0.00335327      -0.00440196
C       -3.71612812       6.39811111       3.68605701       0.00383947      -0.00121264       0.00092510
C       -4.96705351       8.53956546       3.64352814       0.00285112       0.00321234      -0.00440708
C        2.43966135       0.01133587       3.79891688       0.00029812       0.01257254      -0.00111969
C        1.21274694       2.17309723       3.95404540       0.00311618       0.00267133       0.00240391
C       -0.00173105       4.29091943       4.06437129      -0.00694825      -0.00509708      -0.00778552
C       -1.27230980       6.41678979       3.93634515       0.00525742      -0.00728044       0.00225482
C       -2.50055896       8.54670921       3.80822948       0.00580096      -0.00339945       0.00343011
C        4.91351041      -0.00208010       3.80674818      -0.00157506       0.00635234      -0.00503031
C        3.69698521       2.14641094       3.71654130      -0.00933546       0.01415386       0.00530760
O        1.08569615       6.47820277       4.10347439      -0.00050517       0.00087802      -0.00185348
C       -0.04272703       8.54101340       3.90047302       0.00107578      -0.00581641      -0.00762991
C        7.38829347      -0.02878011       3.85236225      -0.00293537      -0.00608052      -0.00583768
C        6.18200411       2.10213036       3.66867682      -0.00607029      -0.00040215      -0.00019569
C        4.99991760       4.20078465       3.30057776      -0.00336103       0.00059427       0.01698333
P        3.47664482       6.26526262       2.67859196      -0.01061131       0.00731088       0.01141981
C        2.41244824       8.49856835       3.75729421       0.00180231       0.00439535       0.00283862
C        9.84724413      -0.03270885       3.82211143      -0.00597729      -0.00522989       0.00072999
C        8.63386367       2.11152974       3.79747699       0.00698484      -0.00681998       0.00567832
C        7.42895929       4.24691488       3.57067553       0.00175291      -0.00827032       0.00508056
C        6.18864902       6.39492136       3.34032133       0.00090137      -0.01063635       0.00531783
C        4.89581512       8.51841696       3.53873643       0.00423807       0.01044258       0.00097133
C       -0.02550067       1.41877057       3.89850078       0.01031110      -0.00260136      -0.01146196
C       -1.24175654       3.55813402       3.94448233      -0.00216923      -0.00819028      -0.01175264
C       -2.49002314       5.68524024       3.82336314       0.00228093       0.00260971       0.00624564
C       -3.73224243       7.82910025       3.70894637       0.00385642      -0.00065253      -0.00326848
C       -4.96148771       9.96681878       3.75086930      -0.00093685       0.00813028      -0.00842887
C        2.45013691       1.43865156       3.84220175       0.00291354       0.01269114       0.00123015
C        1.18932460       3.55937116       4.13402506      -0.01071217      -0.00238038      -0.00449885
C       -0.07382959       5.73084843       4.06236002       0.00304489      -0.00493122      -0.00078769
C       -1.28017605       7.83942189       3.89223273       0.00449508      -0.00970353       0.00289243
C       -2.49690232       9.97616907       3.80302744       0.00016761       0.00424835      -0.00142704
C        4.93370628       1.41436575       3.71966413      -0.01219758       0.00990122       0.00123759
C        3.77897195       3.54058449       3.59067248      -0.00936828       0.01213546       0.00884930
C        1.15272019       7.84124761       3.88642031       0.00324029      -0.00034552       0.00295386
C       -0.02309873       9.96605083       3.85616374      -0.00236727      -0.00298629      -0.01047374
C        7.40517048       1.39376134       3.78134466      -0.00120974      -0.00455410      -0.00173373
C        6.21522857       3.50838491       3.49077970      -0.00264210      -0.00223345       0.00754828
C        5.02466804       5.63198788       3.12707775      -0.00482895      -0.00501215       0.00020625
C        3.64301066       7.83805953       3.44194716       0.00403680       0.01294372       0.00113578
C        2.43927316       9.92675864       3.84245437      -0.00316634      -0.00304073      -0.00224315
C        9.85455347       1.39705469       3.85665026       0.00703478      -0.01061851       0.00242733
C        8.64336770       3.53962285       3.73846404       0.00736148      -0.00241100       0.00103563
C        7.41385915       5.67775254       3.52620375       0.00445126      -0.00821144       0.00489608
C        6.14689472       7.82137520       3.47886461       0.00354993      -0.00282396       0.00613776
C        4.91033442       9.94499757       3.73480131      -0.00436903       0.00631265      -0.00046146
Fe       2.78095082       4.64076761       4.82143621       0.00616207      -0.00199659      -0.01176737
O        3.49416258       5.64172276       5.88311447      -0.01239961       0.00569142       0.01458095
