50
Lattice="12.336457 0.0 0.0 -6.168228499999997 10.683685154694365 0.0 0.0 0.0 15.0" Properties=species:S:1:pos:R:3:forces:R:3 energy=-438.98041360500577 free_energy=-438.98041360500577 stress="-0.0015712860915355269 -0.00025399982017665845 -3.0481699217614635e-06 -0.00025399982017665845 0.005924019973532455 -1.9483346387228433e-05 -3.0481699217614635e-06 -1.9483346387228433e-05 -8.500803049720593e-06" pbc="T T T"
C       -0.00751211       0.00466301       3.70434124       0.00981586      -0.01654783      -0.00112980
C       -1.25307037       2.12559470       3.69969565       0.00337593      -0.00091162       0.01429050
C       -2.48285973       4.27045514       3.67574416       0.00160788       0.00159316       0.00719798
C       -3.71297065       6.41374604       3.65797534      -0.00729266       0.00716528      -0.01012940
C       -4.94683610       8.55598700       3.67667937       0.00094244      -0.00603210       0.00286896
C        2.45452567       0.05446431       3.70863534       0.00524840       0.01018332       0.00542880
C        1.19022236       2.14614147       3.77140980      -0.01020407       0.00279614      -0.00299476
C       -0.05412634       4.25257355       3.80242715       0.00753208       0.00382107      -0.00032210
C       -1.26523406       6.40994176       3.70508547       0.00102873      -0.00688851       0.00700995
C       -2.48894610       8.56345015       3.67784711       0.00602329       0.00158954       0.00863090
C        4.91823271       0.00756507       3.71365567       0.00244192      -0.00182466      -0.00993335
C        3.71719941       2.15754310       3.74325328       0.00246474      -0.00301847       0.00420510
C        1.14173353       6.39266278       4.01872319      -0.00783892       0.01130903       0.00595254
C       -0.01583773       8.52772179       3.75417856      -0.00213405       0.00524072       0.00191441
C        7.39720404      -0.02863008       3.72568479      -0.00091714      -0.00376555       0.00791458
C        6.16426209       2.13272062       3.70154512      -0.00214152       0.00705779      -0.00449086
C        4.97110992       4.28112739       3.72876184      -0.01040850       0.00087478      -0.00992008
O        3.76133758       6.41358014       3.65689436      -0.00328346      -0.00863424       0.00002540
C        2.48086844       8.47915864       3.79901362       0.00133900      -0.01308058      -0.00389347
C        9.85594175      -0.03100904       3.71426377      -0.00574590      -0.00086550      -0.00005838
C        8.62537133       2.12198509       3.68564628      -0.00039045      -0.00935729      -0.00467422
C        7.39621433       4.27255502       3.67276881       0.00727005      -0.00408242      -0.00155095
C        6.16766372       6.40454865       3.69162946      -0.00344694      -0.00148522      -0.00895312
C        4.92763273       8.52389190       3.71486999      -0.00139445       0.00711210      -0.00071755
C       -0.00342590       1.44135428       3.71838338      -0.00244807      -0.01411053       0.00228071
C       -1.24880506       3.54731986       3.71111546       0.00610714       0.00344166       0.00820872
C       -2.48329320       5.69499600       3.66721976      -0.00833356       0.00360139      -0.00188956
C       -3.71223417       7.84437907       3.66315924       0.00190998       0.00489428       0.00463520
C       -4.93747926       9.99935813       3.69530098       0.01526575      -0.00841101      -0.00154572
C        2.45492776       1.51291354       3.74952686      -0.00606862       0.01438487      -0.00136185
O        1.13802125       3.54324081       3.82919053       0.01052065       0.01205744      -0.00192193
C       -0.01958902       5.67828260       3.82345850       0.00287806      -0.00108091       0.01288795
C       -1.25691960       7.83549110       3.70383922       0.00473426      -0.00341311       0.00280793
C       -2.48893608       9.99957860       3.69683189       0.00150241       0.00401915       0.00684312
C        4.91318355       1.44657017       3.71830102       0.00402903      -0.00336258      -0.01165316
O        3.76294882       3.55811037       3.69257358      -0.01144897      -0.00130291       0.00437762
C        1.21640248       7.75582645       3.85219471      -0.00740578       0.00612656       0.00690071
C       -0.01361218       9.95725416       3.72782870      -0.00053806       0.00265189       0.00134950
C        7.38777173       1.40782135       3.69990210      -0.00425732      -0.00239867       0.00231654
C        6.16593473       3.55737630       3.69525025      -0.00467023       0.00985808      -0.01033980
C        4.97557735       5.68007999       3.72900163      -0.00222625      -0.00186402      -0.01350278
C        3.71826270       7.81919557       3.75510814       0.00331451      -0.00374689      -0.00844538
C        2.46404921       9.92084380       3.74354259      -0.00248022      -0.01254121       0.00218997
C        9.86153439       1.40865860       3.69294642       0.00127311      -0.00117465       0.00565637
C        8.62800519       3.55254512       3.67025235       0.00774333      -0.00996303      -0.00250299
C        7.39838689       5.69079911       3.66869911      -0.00139154      -0.00118652      -0.00570646
C        6.16967163       7.83347799       3.68939934      -0.00574089      -0.00029282      -0.00599040
C        4.92360070       9.95811366       3.71074498      -0.00105358       0.00501036       0.00276059
Fe       2.56274799       5.09903341       4.76521353       0.00314387       0.00724058      -0.01649808
O        2.82816640       4.99680842       6.40957430       0.00174872       0.00931363       0.01147207
