51
Lattice="12.336457 0.0 0.0 -6.168228499999997 10.683685154694365 0.0 0.0 0.0 15.0" Properties=species:S:1:pos:R:3:initial_magmoms:R:1:forces:R:3 energy=-444.40096288158054 free_energy=-444.40096288158054 stress="-0.001606768077002932 -0.00011250247227495364 -1.0466214787031862e-05 -0.00011250247227495364 0.006042894988310555 -9.799593706036967e-06 -1.0466214787031862e-05 -9.799593706036967e-06 -4.46222429647651e-06" pbc="T T T"
C       -0.02151554       0.01394459       3.69210297       0.00000000      -0.00011371       0.00966213      -0.01102195
C       -1.26788018       2.13638790       3.70158563       0.00000000       0.00377354      -0.00340693       0.00951568
C       -2.49798572       4.28155821       3.65786218       0.00000000       0.01545856      -0.00558193      -0.00725303
C       -3.72760110       6.42639925       3.60056046       0.00000000      -0.00058427      -0.00230068       0.00677218
C       -4.96032610       8.56801142       3.63054537       0.00000000      -0.00353647       0.00021641       0.00639135
C        2.44119379       0.07201221       3.68720043       0.00000000      -0.00240347      -0.00301560      -0.00761175
C        1.17409850       2.15589966       3.75872015       0.00000000      -0.00036940       0.00315788       0.00727547
C       -0.06924539       4.26015749       3.83450230       0.00000000      -0.00242483       0.00251396       0.00593517
C       -1.28180390       6.42088920       3.71622222       0.00000000       0.00895359       0.00637946       0.00563158
C       -2.50282336       8.57853451       3.66038570       0.00000000      -0.00074512      -0.00712576       0.00539671
C        4.90616343       0.02414437       3.67989338       0.00000000      -0.01399414      -0.00354376       0.00271079
C        3.70630389       2.18046439       3.65961381       0.00000000       0.00894093       0.00193223      -0.00763624
C        1.10881128       6.42362172       4.07176320       0.00000000       0.00217338      -0.00736468       0.00189056
C       -0.03312119       8.54644859       3.76095357       0.00000000      -0.00842750       0.00815779      -0.00158616
C        7.38502353      -0.01616999       3.70424033       0.00000000      -0.01400748       0.00525996       0.00722217
C        6.15287088       2.14480606       3.62142469       0.00000000      -0.00475408      -0.00340418      -0.01004313
C        4.94996527       4.28380330       3.58368912       0.00000000       0.00786118       0.00250558      -0.00015271
O        3.75279242       6.41841085       3.69752747       0.00000000       0.00686545      -0.01368693      -0.00413577
C        2.46673603       8.49208217       3.81138888       0.00000000       0.00045448      -0.00787684       0.00032587
C        9.84312000      -0.02157989       3.70675361       0.00000000      -0.00540957       0.01174245      -0.00331009
C        8.61266729       2.13271285       3.64750654       0.00000000       0.00052529      -0.00395020       0.01065765
C        7.38244702       4.28371232       3.58103403       0.00000000      -0.00010266      -0.01084305      -0.00176965
C        6.15026005       6.41368031       3.58060895       0.00000000      -0.00525834      -0.00105740      -0.00194283
C        4.91200438       8.53129618       3.68464362       0.00000000       0.00509164       0.01206146       0.00895741
C       -0.01958669       1.44997507       3.71448555       0.00000000       0.00058629       0.00249265       0.00471976
C       -1.26473525       3.55812254       3.72025490       0.00000000       0.00984932      -0.00747253       0.00067389
C       -2.49949742       5.70643760       3.64587070       0.00000000       0.01175418       0.00126655      -0.00218390
C       -3.72585015       7.85769649       3.62099868       0.00000000      -0.00255302      -0.00126357       0.00497612
C       -4.94972272      10.01188037       3.67451808       0.00000000      -0.00432930       0.00115661      -0.01759564
C        2.44009842       1.52870100       3.71256379       0.00000000       0.00359126       0.00251357      -0.00809928
O        1.11976522       3.54554121       3.87378374       0.00000000      -0.00872613       0.00236686       0.01137779
C       -0.04367452       5.68935866       3.86776594       0.00000000       0.00080188       0.00014348       0.00169345
C       -1.27381725       7.84969319       3.70506565       0.00000000       0.00130427       0.00400373       0.00230781
C       -2.50211838      10.01585149       3.67650911       0.00000000      -0.00681979      -0.01118319      -0.00833657
C        4.90232260       1.46017650       3.65036222       0.00000000       0.00053952      -0.00533649       0.00552342
O        3.75376144       3.56292213       3.57957393       0.00000000       0.01495871       0.00194716      -0.00562161
C        1.19516291       7.78594613       3.88147006       0.00000000      -0.01010984      -0.00348152      -0.00148278
C       -0.02731379       9.97401813       3.71125864       0.00000000      -0.01709621       0.00687015      -0.00215067
C        7.37635388       1.41878218       3.65237792       0.00000000      -0.00566562       0.00193341      -0.00037184
C        6.15358894       3.56845230       3.57876421       0.00000000      -0.00219684      -0.00529521      -0.00923923
C        4.96333785       5.68657509       3.60802774       0.00000000       0.00071819      -0.00106655       0.00278072
C        3.70388684       7.82874261       3.75813064       0.00000000       0.00920196      -0.00320531      -0.00608969
C        2.45120316       9.93274248       3.73824675       0.00000000      -0.00791286       0.00408507      -0.00254880
C        9.84784890       1.41833717       3.68249977       0.00000000       0.00134722       0.00609031      -0.00796893
C        8.61428493       3.56345455       3.61968330       0.00000000       0.00896933      -0.00764274       0.00154753
C        7.38405428       5.70316943       3.57287316       0.00000000      -0.00632027      -0.00694705       0.00367851
C        6.15523405       7.84397388       3.62173233       0.00000000      -0.00167002       0.00120708       0.00869587
C        4.90996169       9.96609596       3.69676805       0.00000000      -0.00074395       0.01773253       0.00530775
Fe       2.46789998       5.21873036       4.86837792       0.00000000       0.00532856       0.00529193      -0.01246643
O        2.67866960       5.09695589       6.75178090       1.00000000       0.00231345       0.00536117      -0.00278442
O        3.38194645       4.10735906       6.14048679       1.00000000       0.00491276      -0.00199945       0.01143788
