52
Lattice="12.336457 0.0 0.0 -6.168228499999997 10.683685154694365 0.0 0.0 0.0 15.0" Properties=species:S:1:pos:R:3:forces:R:3 energy=-451.0516952580933 free_energy=-451.0516952580933 stress="-0.004073193393066971 0.0005330584093256157 5.387863332471433e-06 0.0005330584093256157 0.005184113479380174 -3.976672722431964e-06 5.387863332471433e-06 -3.976672722431964e-06 -1.811286114343338e-05" pbc="T T T"
C        0.06708300      -0.04151970       3.75108650       0.00560656      -0.00056337       0.00588728
C       -1.18024183       2.06910808       3.69497502       0.00104459       0.00577003      -0.00490961
C       -2.40984329       4.21214805       3.67336598      -0.01195606       0.00075947      -0.00445693
C       -3.63236290       6.35847471       3.71893617       0.00424457      -0.00443234      -0.00359147
C       -4.85914918       8.51342740       3.76100748      -0.00156310       0.00355219      -0.00775720
C        2.53441312       0.00203031       3.77097017       0.00155118       0.00897331      -0.00057919
C        1.27801603       2.16281017       3.76859768      -0.00285105      -0.00066038       0.00960017
C        0.03384606       4.21351963       3.66418110       0.00642052      -0.00099640      -0.00147641
C       -1.18495703       6.35673324       3.66925972      -0.00185257      -0.00562471      -0.00273743
C       -2.40435635       8.50450361       3.73100330       0.00420592      -0.00476386      -0.00424629
C        4.99621750      -0.05413069       3.76499661      -0.00155127      -0.00095621       0.00874834
C        3.79500716       2.07551181       3.82501430       0.00305683      -0.00736614       0.00318342
O        1.20187536       6.35881159       3.62453539      -0.00659176       0.00967340      -0.00157124
C        0.05707033       8.46765713       3.73826544       0.00305491       0.00137052      -0.01000401
C        7.46919849      -0.09221455       3.76468646       0.00165217      -0.01129050      -0.00649467
C        6.24588971       2.06295319       3.77465586       0.00335022       0.00091788       0.00400541
C        5.06301576       4.20285707       3.85065654       0.00443128       0.00462063       0.00441880
C        3.84489949       6.32800132       3.96844154       0.00186275       0.00303289      -0.00595734
C        2.50506885       8.41505452       3.80261982       0.00332049      -0.00256417      -0.00629237
C        9.92493543      -0.09067998       3.75594683       0.00569920      -0.00575946       0.00012487
C        8.69937578       2.05986527       3.72570927      -0.00785556       0.00104360       0.00040010
C        7.47906245       4.21121833       3.74655101      -0.00726868       0.00634777       0.00212952
C        6.26711056       6.35743899       3.78991176      -0.00043060       0.00280767      -0.00311538
C        5.00347747       8.47300809       3.80400402      -0.00795182      -0.00247345      -0.01326677
C        0.06742875       1.39120342       3.72780298       0.00052758      -0.00030111       0.00816483
C       -1.19002887       3.49222816       3.65561471      -0.00411469       0.00800812       0.00576101
C       -2.41396642       5.63558077       3.68186817       0.00044468      -0.00320777      -0.00106486
C       -3.63693233       7.79098892       3.73538290      -0.00025239      -0.00369980      -0.00367239
C       -4.86149746       9.94605745       3.76232789       0.00555683       0.00678455      -0.00295196
C        2.54487555       1.45028059       3.79745779      -0.00295126       0.00413908       0.00638265
N        1.22740027       3.52884049       3.78026003       0.00145943      -0.00663707       0.01080760
C       -0.00222087       5.63476970       3.64271902       0.00120476      -0.00119075       0.00766250
C       -1.18682275       7.78546142       3.70657881       0.00631284      -0.00687181       0.00544631
C       -2.41110881       9.94554246       3.75797365      -0.00183613       0.00213177       0.00052475
C        4.99911936       1.37859125       3.78533959       0.00575398      -0.00286564       0.01345029
O        3.85354208       3.48775804       3.88361274       0.00248113       0.01159899      -0.00055284
C        1.26297576       7.76375556       3.74333751       0.00237211       0.00503552      -0.00493758
C        0.06350707       9.90020033       3.76073996      -0.00121773      -0.00252486      -0.00512299
C        7.46490624       1.34667287       3.75491316      -0.00276596      -0.00698137      -0.00490934
C        6.24725574       3.48595066       3.78732223       0.00356143      -0.00010267      -0.00547957
C        5.02851078       5.62194143       3.86271990      -0.00265521       0.00341883      -0.00005354
C        3.77316277       7.69874830       3.85635651      -0.00398921      -0.00056774      -0.00154670
C        2.52354058       9.85676559       3.77404084       0.00554103      -0.00874624       0.00505402
C        9.92720408       1.34089217       3.72040126      -0.00127502      -0.00092982       0.00050963
C        8.69782016       3.49079157       3.71091343      -0.01503515       0.00458573      -0.00618008
C        7.47937874       5.63666921       3.74865336       0.00173080       0.00371187      -0.01211853
C        6.24872030       7.78309218       3.78512263      -0.00600893       0.00242227      -0.00635993
C        5.00014884       9.90202898       3.76619403       0.00585083      -0.00463033       0.00869237
Fe       2.50653220       4.93402127       4.38027286       0.00763742      -0.00766250       0.00624008
O        2.18993998       5.02416133       6.21542816      -0.01545978      -0.00190358       0.00991513
O        1.26428543       6.14655541       6.39622875       0.00726809       0.00370385       0.00755722
H        1.48656602       6.35286449       7.32453359       0.00022977       0.00186408      -0.00325967
