52
Lattice="12.336457 0.0 0.0 -6.168228499999997 10.683685154694365 0.0 0.0 0.0 15.0" Properties=species:S:1:pos:R:3:forces:R:3 energy=-449.6007788889889 free_energy=-449.6007788889889 stress="-0.0071265910041312264 0.00024564536979234996 -7.093519067074846e-06 0.00024564536979234996 -0.0006630832722417674 4.259920201946089e-06 -7.093519067074846e-06 4.259920201946089e-06 8.41197520949771e-06" pbc="T T T"
C       -0.03927582      -0.06576816       3.78387067      -0.00945036      -0.00045062       0.00656128
C       -1.28663985       2.05746905       3.61680262       0.01079476      -0.00133092       0.00074693
C       -2.53489448       4.20199424       3.76817996      -0.00083398       0.00280862       0.00028222
C       -3.75743581       6.34435280       3.94017238      -0.00453321       0.00124911      -0.00089090
C       -4.97973903       8.48670793       3.94739767      -0.00532156       0.00246668       0.00028943
C        2.42827060      -0.05830045       3.86385527      -0.00541572      -0.00193000      -0.00086530
C        1.20720433       2.01614249       3.44901958       0.00314783       0.00086991      -0.00253718
C       -0.14263723       4.25486827       3.38320827      -0.00227489       0.00155650      -0.00350286
C       -1.33687033       6.36913352       3.78089087       0.00545480      -0.00244176      -0.00053275
C       -2.52160099       8.49488952       3.94650598      -0.00694129       0.00071935       0.00025991
C        4.89896497      -0.06687438       3.90647895       0.01348713       0.00509601      -0.00045807
C        3.67385344       2.10553106       3.76653439      -0.00451834       0.00179672       0.00616879
C        1.10435879       6.33479522       3.64077470       0.00129698       0.00388515      -0.00234151
C       -0.04446864       8.46531062       3.86019500       0.00052443      -0.00529880       0.00225191
C        7.37260244      -0.09543627       3.87821168       0.00232158      -0.00164194      -0.00494549
C        6.14186494       2.05591670       3.88265065       0.00607032      -0.00023601      -0.00156939
C        4.90504801       4.21787438       3.81283940       0.00130103      -0.00273002       0.00670179
O        3.77116365       6.38065968       3.66631248      -0.01118400      -0.00351451       0.00615669
C        2.45273830       8.42303293       3.82772582       0.00242074      -0.00095704       0.00016125
C        9.82909549      -0.09175922       3.81547356      -0.00838855      -0.00070636      -0.00021912
C        8.59736195       2.05177108       3.82751576      -0.00047811       0.00403008       0.00857075
C        7.35993737       4.19979950       3.90323376      -0.00479343       0.00371710      -0.00082013
C        6.13598948       6.35098514       3.93411716       0.00373277       0.00228373      -0.00081581
C        4.90207256       8.47025142       3.88494538       0.00655553      -0.00476018      -0.00144119
C       -0.04376658       1.35236657       3.60234292       0.00741405       0.00022006       0.00212450
C       -1.31125474       3.48811545       3.57623651       0.00343583      -0.00050352       0.00451118
C       -2.54259636       5.62984755       3.84077596      -0.00034504       0.00321071      -0.00243058
C       -3.74835915       7.77434252       3.96254734      -0.01104411       0.00157828      -0.00221181
C       -4.97430842       9.91401735       3.87494481      -0.01207943       0.00018204       0.00406780
C        2.43385012       1.35766238       3.70547037      -0.00123296      -0.00244234      -0.00463136
P        1.31635922       3.59234495       2.64393671      -0.00573213      -0.00970799       0.00163332
C       -0.12451221       5.67316867       3.57398735       0.00641874      -0.00114001       0.00276485
C       -1.29656443       7.78151951       3.88305123      -0.00351329      -0.00300330      -0.00739770
C       -2.51027522       9.91407472       3.92715437       0.00548447       0.00446983       0.00266787
C        4.90631353       1.35812409       3.86734737       0.00456409       0.00549514       0.00068819
C        3.69399336       3.50395489       3.73954502      -0.00516678       0.00248588       0.01218272
C        1.18770105       7.71003282       3.78186818       0.00243274      -0.00069011      -0.00454184
C       -0.03745551       9.88911278       3.89685467       0.00961332      -0.00427300      -0.00217416
C        7.37414009       1.33223087       3.87700283       0.00232830      -0.00140090      -0.00248679
C        6.14161948       3.48414613       3.87376864       0.00246882      -0.00222420      -0.00685347
C        4.95624133       5.64245990       3.82806631       0.00563023      -0.00078675       0.00527924
C        3.69675905       7.77514400       3.82362799       0.00378944       0.00077006      -0.00056289
C        2.43834667       9.85927594       3.85170740      -0.00486457      -0.00181160      -0.00231047
C        9.83007934       1.34169601       3.75847148       0.00138816       0.00181820      -0.00695474
C        8.59043956       3.48155770       3.84534074      -0.00428048       0.00648961       0.00434840
C        7.36136611       5.62295628       3.94418397      -0.00232421       0.00224512      -0.00347320
C        6.13665163       7.77510494       3.93723796       0.00696799      -0.00123459      -0.01362947
C        4.89744216       9.89960666       3.83577936      -0.00848290      -0.00478891       0.00073996
Fe       2.39783087       4.96301850       4.12053800      -0.00113860       0.00883300      -0.00022439
O        2.38571730       4.93339779       6.03905388      -0.00335400      -0.00212547       0.00252637
O        3.18026891       6.08447014       6.49862315       0.01216134      -0.00403437       0.01323571
H        3.06415284       5.94719685       7.45787370      -0.00351351      -0.00211167      -0.01409849
