49
Lattice="12.336457 0.0 0.0 -6.168228499999997 10.683685154694365 0.0 0.0 0.0 15.0" Properties=species:S:1:pos:R:3:forces:R:3 energy=-433.6033456664383 free_energy=-433.6033456664383 stress="-0.00539875736568301 -0.00024836761104026303 -1.398239625609798e-06 -0.00024836761104026303 0.002963465310538707 -1.1525742303376e-06 -1.398239625609798e-06 -1.1525742303376e-06 1.3016831948320445e-06" pbc="T T T"
C        0.00062437       0.00299227       3.73512588       0.00193835      -0.00077102      -0.00563512
C       -1.24817870       2.12123812       3.73288986      -0.00707323      -0.00581696      -0.00140153
C       -2.47827044       4.27081292       3.68723963      -0.00844950      -0.00301558       0.00590589
C       -3.70403000       6.41596745       3.66828304       0.00021200       0.01208521      -0.00118871
C       -4.93604648       8.55976971       3.69961644       0.00243909      -0.00144271       0.00338886
C        2.46386144       0.05264261       3.72879990      -0.00102145       0.00723176       0.00985683
C        1.19747265       2.13285675       3.79001110       0.00668208       0.00654231       0.00830954
C       -0.06734779       4.25928113       3.80859396       0.00139722      -0.00143745      -0.00010336
C       -1.26966786       6.41754411       3.72446091       0.00016103      -0.00368070      -0.00116011
C       -2.48270903       8.56854778       3.70450963      -0.00526577       0.00168101      -0.00896031
C        4.92709988       0.01041328       3.73256154      -0.00276701      -0.00436958      -0.00237856
C        3.72855542       2.14874092       3.76864671      -0.00399489       0.00592913      -0.00628040
C        1.13130284       6.40848552       3.93689827       0.00386726      -0.00028731      -0.00739292
C       -0.01397909       8.53636798       3.76647867       0.00192681      -0.00575424       0.00177631
C        7.40591592      -0.02806037       3.74812693       0.01594406       0.00598389      -0.00671651
C        6.17803675       2.12988576       3.71264087       0.00278372      -0.00784895       0.00026507
C        5.00466677       4.28439416       3.73937382      -0.00351191       0.00370380      -0.00611191
O        3.79868341       6.41899544       3.82680140      -0.00334022       0.00773778       0.00411614
C        2.49115130       8.48457369       3.81568335       0.00005806      -0.00732378      -0.00155384
C        9.86508290      -0.03194535       3.74806201      -0.00425144       0.00803134       0.00040788
C        8.63498251       2.12017536       3.70347267      -0.00071743       0.00000180      -0.00086516
C        7.41098388       4.27350748       3.66965471       0.00611775      -0.00408113       0.00410379
C        6.18978590       6.41213930       3.69701462       0.00396619      -0.00054407      -0.01143456
C        4.94079528       8.52811709       3.75086666      -0.00290728      -0.00199467       0.00012317
C        0.00105864       1.43653801       3.74861204       0.00543599       0.00130545       0.00385594
C       -1.24902008       3.54402812       3.73054422      -0.00568546      -0.00209323       0.00940207
C       -2.47962644       5.69562203       3.68176153      -0.00620823       0.00080974      -0.00002289
C       -3.70345429       7.84730645       3.68537437       0.00136748       0.00495645      -0.00777565
C       -4.92763372      10.00115496       3.71998308       0.00625777      -0.00439439       0.00540289
C        2.46427045       1.50886196       3.76677979       0.00065429       0.00410936       0.00946009
O        1.13298522       3.53380554       3.88933743       0.00485284      -0.00235781      -0.00608988
C       -0.03274787       5.68402258       3.81534707       0.00788213       0.00048854       0.00525394
C       -1.25444447       7.84313413       3.72518613      -0.00458667       0.00072600       0.00256631
C       -2.48013029      10.00322194       3.71946008      -0.00713758      -0.00170517       0.00829245
C        4.92589034       1.44591883       3.73610089      -0.00544023      -0.00374614      -0.00039208
O        3.79199270       3.55273614       3.77337033      -0.01341137      -0.00222457      -0.00135815
C        1.21791901       7.76918328       3.83770573       0.00266452      -0.00726342       0.01262256
C       -0.00723391       9.96247869       3.74708915       0.01008210      -0.00024216      -0.00018680
C        7.39830476       1.40594890       3.71650172       0.01049417       0.00079773       0.00587640
C        6.18656176       3.55365178       3.69759326       0.00143077      -0.00257597      -0.00806683
C        5.01134799       5.68029871       3.74561570      -0.00422520       0.00703054      -0.00645291
C        3.73324839       7.82923872       3.80284885      -0.00335799      -0.00489574       0.00763727
C        2.47320815       9.92315068       3.76940751       0.00747355      -0.00581995      -0.00270856
C        9.86916023       1.40596731       3.72532847      -0.01106631       0.00836209      -0.00922805
C        8.63758572       3.55116064       3.67653200       0.00082229      -0.00908892       0.00816060
C        7.41303146       5.69156926       3.66647561       0.00380832      -0.00026794       0.00143011
C        6.18335495       7.83920011       3.71258716       0.00071295      -0.00152802      -0.00900551
C        4.93336132       9.95958970       3.74479645      -0.00856490       0.00290265       0.00053669
Fe       2.46963145       5.01331753       4.22456839       0.00155131       0.00615499      -0.00628051
