50
Lattice="12.336457 0.0 0.0 -6.168228499999997 10.683685154694365 0.0 0.0 0.0 15.0" Properties=species:S:1:pos:R:3:forces:R:3 energy=-441.7445960426509 free_energy=-441.7445960426509 stress="-0.0027517920557659004 -0.00021784497285781172 -8.177877344309004e-06 -0.00021784497285781172 0.004050353375963524 -1.4193542064170635e-05 -8.177877344309004e-06 -1.4193542064170635e-05 2.249631767234685e-06" pbc="T T T"
C        0.00207097      -0.00776875       3.67350174       0.00072878      -0.00529760      -0.01106108
C       -1.24661160       2.11332542       3.66230920      -0.00182393       0.00228837       0.00993528
C       -2.47791068       4.26076155       3.63743536      -0.00153001      -0.00731529       0.00313983
C       -3.70506900       6.40415538       3.62004874      -0.00140449       0.00946758      -0.01043458
C       -4.93245159       8.54914729       3.64830500      -0.00042351       0.00795393       0.00178495
C        2.46298022       0.04722414       3.66633650       0.00298818       0.00182038       0.01174861
C        1.19366588       2.13507029       3.71722032      -0.00766292       0.00036499       0.00687592
C       -0.04606517       4.22870954       3.76892307      -0.00150983       0.00234889      -0.00857967
C       -1.25413686       6.39671708       3.67430360       0.00034973      -0.00288753       0.00305868
C       -2.48044733       8.55210579       3.64182162      -0.00339900      -0.00027524       0.01114740
C        4.92361317      -0.00216748       3.68029646      -0.00276691      -0.00635547      -0.01081171
C        3.73076002       2.14442717       3.71552439       0.00204148      -0.00128234       0.00418841
C        1.13630511       6.40604831       4.00479505       0.00515495      -0.00396721       0.01000496
C       -0.01704685       8.52763159       3.73180850      -0.00156487       0.00479738       0.00124758
C        7.39987989      -0.03423196       3.70808952       0.00746902      -0.00067973       0.00058032
C        6.16988453       2.11989425       3.67925493       0.00625666       0.00343514       0.00402788
C        4.97419290       4.25013960       3.76757917      -0.00112934       0.00196549      -0.01415026
N        3.78669911       6.40536776       3.94017532      -0.00393259      -0.00242697      -0.00618576
C        2.47634566       8.48895690       3.82859301       0.00397814      -0.01197042       0.00935382
C        9.86459676      -0.03763858       3.70058834      -0.00778486       0.01255086       0.00469935
C        8.63134986       2.11260178       3.65620616      -0.00147931      -0.00670607      -0.00220701
C        7.40203235       4.26338910       3.64807897       0.01670682      -0.00662514      -0.00166791
C        6.17482802       6.39579484       3.68680724      -0.00645199      -0.00602151      -0.01072775
C        4.94196639       8.51836869       3.73244670      -0.00092218       0.00326000      -0.00689917
C        0.00108149       1.42528816       3.67522506      -0.00380260      -0.00469460       0.00065532
C       -1.24583752       3.53458220       3.67341166       0.00223658       0.00152208       0.00057456
C       -2.47699911       5.68513961       3.62820668      -0.00397143      -0.00211470       0.00013512
C       -3.70421960       7.83398060       3.62716075      -0.00422139       0.01036140       0.00134513
C       -4.92781153       9.98846437       3.66025078       0.00635467       0.00259441       0.00120648
C        2.46373248       1.50171910       3.70224510      -0.00226320       0.00357124       0.01210967
O        1.13570304       3.51800755       3.78771015      -0.00548667      -0.00045397      -0.00091232
C       -0.01963257       5.66149942       3.79728206      -0.00053855      -0.00076246      -0.00084556
C       -1.24996592       7.82512254       3.67392545      -0.00097630       0.00098103      -0.00084480
C       -2.48219472       9.98944394       3.65982320      -0.00402806      -0.00539647      -0.00077328
C        4.92278079       1.43298799       3.68867314       0.00352192      -0.00231686      -0.00865213
O        3.79096042       3.53105302       3.73989328      -0.00363952       0.00210923       0.00757466
C        1.21859449       7.77978382       3.84865770      -0.00415147      -0.00171274       0.00725397
C       -0.00955042       9.95244212       3.70333319       0.00324593       0.00493427      -0.00130260
C        7.39367037       1.39874872       3.67579110       0.00362863      -0.00169566      -0.00382060
C        6.16923954       3.54432797       3.68903698       0.00560233       0.00696536      -0.00146345
C        4.95739370       5.67966700       3.79431321      -0.00551020      -0.00391862      -0.00515594
C        3.72662229       7.77463581       3.84013843       0.00738738      -0.00338073       0.00226965
C        2.46756495       9.91700753       3.74098214       0.00317160      -0.00912151       0.00461792
C        9.86743691       1.39614540       3.66420538      -0.00483176       0.01014934       0.00440634
C        8.63132050       3.54401247       3.63530609       0.00753286      -0.01651489       0.00423006
C        7.40273551       5.68400486       3.63943345       0.00372635      -0.00223311      -0.00732774
C        6.17568964       7.82455873       3.68507366      -0.00185334       0.00069878      -0.00922909
C        4.93412238       9.94595954       3.69899963      -0.00815106       0.00846999       0.00328661
Fe       2.48752129       5.38297592       4.86212000      -0.00138312       0.00359967      -0.01014180
O        2.61452171       5.31336809       6.48582979       0.00651241       0.00991704       0.00173572
