50
Lattice="12.336457 0.0 0.0 -6.168228499999997 10.683685154694365 0.0 0.0 0.0 15.0" Properties=species:S:1:pos:R:3:forces:R:3 energy=-441.64175440120124 free_energy=-441.64175440120124 stress="-0.003091730453036296 0.00010314772092036208 8.118578701366142e-06 0.00010314772092036208 0.006103864186727152 4.669559308993172e-06 8.118578701366142e-06 4.669559308993172e-06 -1.3833424319296341e-06" pbc="T T T"
C        0.00485143       0.00410618       3.73070588      -0.00044631      -0.00361023       0.00050748
C       -1.23880524       2.12835026       3.68575745      -0.00468559       0.00291133      -0.00555561
C       -2.46818834       4.27118514       3.64501465      -0.00549451       0.00094210       0.00039144
C       -3.69431832       6.41482520       3.66012824       0.00563682       0.00955171      -0.00062737
C       -4.92010089       8.56665782       3.71235780      -0.00165046      -0.00161111      -0.00066100
C        2.46677538       0.05972641       3.73864717       0.00159576       0.00270131       0.00266378
C        1.20814100       2.15010530       3.74769596       0.00023285      -0.00265401      -0.00060320
C       -0.04827690       4.28171530       3.68060699       0.00743155      -0.00102890      -0.00156484
C       -1.24287571       6.40791913       3.65751122       0.00078455      -0.00189123      -0.00645908
C       -2.46290655       8.56299483       3.68571349      -0.00517775      -0.00559810       0.00002948
C        4.93288215       0.01538001       3.71798279      -0.00440746      -0.00853711       0.00817881
C        3.72231475       2.20927085       3.81140902       0.00362368       0.00448470       0.01184959
O        1.16044969       6.40928311       3.64331405       0.00568893      -0.00263810      -0.00168683
C       -0.00164570       8.52580738       3.70341316      -0.00290202       0.00315515       0.00232996
C        7.40738396      -0.03429330       3.71446779       0.01009725       0.00195978      -0.00181785
C        6.18361844       2.12336050       3.71304536       0.00001040      -0.00026868      -0.00394453
C        4.96671426       4.23811830       3.81476048      -0.00332706       0.00258745       0.00173481
C        3.78381681       6.37609111       3.96916266      -0.01220489      -0.00698307      -0.00273418
C        2.44251580       8.47321407       3.78585949      -0.00116319      -0.00630090       0.00409281
C        9.86475054      -0.03498871       3.72714408      -0.00396731       0.00650267      -0.00170660
C        8.64075269       2.11643660       3.67554357      -0.00108381      -0.00063891       0.00157887
C        7.41809570       4.26564299       3.67498767       0.00451530       0.00047587       0.00702437
C        6.20347092       6.41588173       3.73781916       0.00532023      -0.00639398      -0.00623358
C        4.94041711       8.52311819       3.77513031       0.00202695       0.00360430       0.00079208
C        0.00589529       1.44030211       3.71903294      -0.00400175      -0.00210244       0.00393185
C       -1.23852836       3.55545055       3.66096235       0.00036028       0.00477015      -0.00583083
C       -2.47009872       5.69092456       3.64504989      -0.00206510       0.00263861       0.00000236
C       -3.69604082       7.84773319       3.68134160      -0.00281705       0.00385678       0.00122271
C       -4.92389077      10.00127578       3.72782014       0.00307297      -0.00146779      -0.00064233
C        2.45530385       1.50774130       3.77815422       0.00318917       0.00700288       0.00281687
O        1.16371138       3.55419528       3.66157897       0.01171860      -0.00107290      -0.01122898
C       -0.05416833       5.68029902       3.67736244       0.00275674      -0.00178539      -0.00184746
C       -1.24370937       7.83698405       3.67594108      -0.00350382      -0.00067877      -0.00735235
C       -2.47351119      10.00362482       3.71532286      -0.00572272      -0.00890220       0.00102357
C        4.93200595       1.44783705       3.74102690      -0.00095141      -0.00388352       0.00287476
N        3.78406021       3.57639277       3.90847342      -0.00788298       0.00721046       0.00055127
C        1.20401144       7.81538455       3.73652860      -0.00289695      -0.00205140       0.00006802
C        0.00128314       9.96076707       3.71184586       0.00485372       0.00504235      -0.00024683
C        7.41116977       1.40057651       3.69513519       0.00381503       0.00119427       0.00061703
C        6.19352804       3.54137914       3.71866754      -0.00267546       0.00274332      -0.00273429
C        4.96599099       5.68951403       3.83358914      -0.00187888       0.00108132       0.00028320
C        3.70655384       7.75589229       3.84082782       0.00303560      -0.00165977       0.00925912
C        2.46125871       9.91385130       3.74021145       0.00449678      -0.00385111       0.00200150
C        9.87626828       1.40201976       3.69152215      -0.00440982       0.00441906      -0.00116340
C        8.64203460       3.54757822       3.65547206      -0.00201815      -0.00417519       0.00172574
C        7.41929432       5.69586970       3.68010450       0.01327363       0.00151657       0.00446881
C        6.18681198       7.84005712       3.73981962       0.00051592      -0.00467657      -0.00499547
C        4.93777665       9.95178880       3.74153851      -0.00450695       0.00612754       0.00721000
Fe       2.49528751       5.01126814       4.53531422      -0.00281179       0.00224965      -0.01365553
O        2.38256988       4.96344235       6.18881857      -0.00339952      -0.00426797       0.00406187
