52
Lattice="12.336457 0.0 0.0 -6.168228499999997 10.683685154694365 0.0 0.0 0.0 15.0" Properties=species:S:1:pos:R:3:forces:R:3 energy=-449.4645181081677 free_energy=-449.4645181081677 stress="-0.005014270706515645 0.0018193758008113576 3.0490458384986153e-06 0.0018193758008113576 0.0005032182026013557 -1.5866639431591396e-05 3.0490458384986153e-06 -1.5866639431591396e-05 7.724561092243039e-06" pbc="T T T"
C        0.02578998      -0.04308126       3.82177368      -0.00699372      -0.00464055      -0.00299092
C       -1.20643551       2.08720019       3.90193636       0.00153250      -0.00808017      -0.00406618
C       -2.42686380       4.22825661       3.86201071      -0.00193000      -0.00111971       0.00727564
C       -3.66630706       6.36547655       3.76532396       0.00806319       0.00622122      -0.00501422
C       -4.91006479       8.50794324       3.70882000      -0.00190780       0.00501319       0.00446217
C        2.49246014      -0.02440523       3.87666911       0.00595727      -0.00932230      -0.00226604
C        1.25925636       2.13450702       3.95777415      -0.00059251       0.00396385      -0.00031004
C        0.03496866       4.24728213       3.97807316      -0.00604201       0.00577507      -0.00029647
C       -1.21216879       6.37911712       3.91330484       0.00214656       0.00907320      -0.00077527
C       -2.44319718       8.51189512       3.86973458      -0.00584542      -0.01077463      -0.00085489
C        4.96388134      -0.03712532       3.91195061       0.00262361      -0.00520475      -0.00164725
C        3.74162480       2.11868715       3.86598784      -0.00269277       0.00633431       0.00323870
O        1.16996305       6.41169824       3.96986107       0.00208613      -0.00211465       0.00550189
C        0.02029123       8.49460616       3.91660326      -0.00876619       0.00358381      -0.01728895
C        7.43680341      -0.06660209       3.90917942       0.00585502       0.00004237      -0.00184526
C        6.22195047       2.07396509       3.83798899       0.00448995      -0.00779070       0.00584207
C        5.02880469       4.18603828       3.54194860       0.00371420       0.00012008      -0.00322199
P        3.63028301       6.28327575       2.53968212      -0.00019183      -0.00230937       0.00584809
C        2.46949111       8.46094998       3.72162583      -0.00715730       0.00013659      -0.00462293
C        9.89488847      -0.06628139       3.83707264      -0.00237124       0.00326589       0.00337966
C        8.67600975       2.07705821       3.87353872       0.00363142      -0.00471859       0.00019284
C        7.46547858       4.21721839       3.72484723       0.00308094       0.00334327      -0.00194066
C        6.23370128       6.36130928       3.46720279      -0.00072052      -0.00037916       0.00663330
C        4.95379741       8.49290563       3.55777825       0.00360653       0.00311603      -0.00913005
C        0.02247168       1.38469505       3.90319412       0.00136487      -0.00699422      -0.00632890
C       -1.20212450       3.51545529       3.91296323      -0.00356658      -0.00485836       0.00531199
C       -2.43883715       5.65170846       3.85224222       0.00792134       0.00422873       0.01107608
C       -3.67627100       7.79624981       3.77876996      -0.00464145       0.00084764       0.00313450
C       -4.90660933       9.93498737       3.80427876      -0.00115951       0.00001539      -0.00217833
C        2.50010349       1.40538352       3.91963259       0.00160619      -0.00304622       0.00396934
C        1.23887107       3.52774280       4.05825490      -0.00060910       0.00911757       0.00093135
C       -0.01784156       5.67723338       3.96274806      -0.00120119       0.00406778       0.00064701
C       -1.22073518       7.80124961       3.91322926      -0.00458189       0.00378389      -0.00325414
C       -2.44408744       9.94179559       3.88961719       0.00486825      -0.01541585      -0.00254240
C        4.97657822       1.38564231       3.87569676      -0.00238978      -0.00120850      -0.00337041
C        3.79405439       3.52550899       3.78086553      -0.00328587       0.01011957       0.00300696
C        1.22114967       7.80202774       3.84430987      -0.00843964      -0.00061322       0.00744817
C        0.02728547       9.92471442       3.92054343       0.00452557      -0.00024369      -0.00465324
C        7.44756778       1.35999537       3.88625778       0.00775260      -0.00573753      -0.00054867
C        6.24501082       3.48640623       3.70327299       0.00374604      -0.00271988      -0.00558968
C        5.05524717       5.60331632       3.28574862      -0.00393656      -0.00085519      -0.00000784
C        3.70669055       7.81402257       3.40645088       0.00260284      -0.00019014       0.01081202
C        2.48970597       9.89246288       3.84840883       0.00194528      -0.00018345       0.01075796
C        9.89845988       1.36108146       3.88344469       0.00168672       0.00023110      -0.00360538
C        8.68339010       3.50626036       3.82864582      -0.00107241      -0.00490400      -0.00978889
C        7.45705820       5.64538993       3.65561559       0.00356279       0.00564960      -0.00191554
C        6.20319210       7.79097536       3.54471898       0.00303137       0.00072877       0.00273446
C        4.96311859       9.91685514       3.75339024      -0.00806919       0.00377951      -0.00718876
Fe       2.63024553       4.77410395       4.57554969       0.00021021      -0.00227573       0.00813177
O        3.30062369       5.89527304       5.97234649      -0.01055575       0.01442805      -0.00268613
O        1.99210033       5.47881240       6.55443276       0.00927709      -0.00744918       0.00347524
H        2.32855221       5.11166102       7.39051518      -0.00216825       0.00616328      -0.00388179
