50
Lattice="12.336457 0.0 0.0 -6.168228499999997 10.683685154694365 0.0 0.0 0.0 15.0" Properties=species:S:1:pos:R:3:forces:R:3 energy=-441.46262765580997 free_energy=-441.46262765580997 stress="-0.0028574173668280732 0.0005850399862738065 -9.210173070680063e-06 0.0005850399862738065 0.005962821372113038 -2.9015011487397143e-06 -9.210173070680063e-06 -2.9015011487397143e-06 1.2142790582317063e-05" pbc="T T T"
C        0.00591513       0.01612393       3.71650931      -0.00151493       0.00573034      -0.00348554
C       -1.24049558       2.12929875       3.69527459       0.01013709       0.00614531       0.00043807
C       -2.47139188       4.26964769       3.67199168       0.00323853       0.00159256      -0.01319442
C       -3.69499111       6.41604841       3.67066247       0.00452960      -0.01076824      -0.01523510
C       -4.92161409       8.57023273       3.69231203      -0.01070383       0.00511754       0.00069466
C        2.47267149       0.06089466       3.73473811       0.00348048       0.00415981       0.00382817
C        1.21849319       2.22253282       3.78661343      -0.00206963      -0.00164309       0.00577176
C       -0.02110777       4.27197016       3.74362612      -0.00160114       0.00021703      -0.00506513
C       -1.24263773       6.41018863       3.70119215       0.00133548       0.00192677      -0.00288078
C       -2.46513728       8.56070552       3.69684285       0.00110162      -0.00812613       0.00466352
C        4.93395520       0.00306516       3.72084759       0.00115232       0.00373525      -0.00047227
C        3.73260453       2.13786701       3.77202388       0.00008559      -0.00072786      -0.00009988
O        1.14707006       6.41079559       3.67400468      -0.01159186       0.00202007      -0.00187001
C       -0.00269761       8.52378812       3.72235141      -0.00112104       0.00111845      -0.00588059
C        7.40732866      -0.03390281       3.70882539      -0.00493623      -0.00865612       0.01008124
C        6.18123661       2.12179727       3.69776028      -0.00524165       0.00396297       0.00708299
C        4.98921271       4.25557113       3.74617171       0.00370217       0.00007309      -0.00372629
C        3.77891932       6.37880403       3.92847510       0.01184547       0.00623458       0.00442860
C        2.44158044       8.47186304       3.77509215       0.00029231       0.00020771       0.00053521
C        9.86283738      -0.03273350       3.71394056       0.01061993      -0.00167020       0.00008276
C        8.63643795       2.11820776       3.67900846      -0.00397063       0.00079379      -0.00537232
C        7.41334758       4.26962887       3.67040600      -0.00226180       0.00193127       0.00457647
C        6.19839333       6.41359621       3.68817002       0.00215667      -0.00235568       0.00298460
C        4.93968906       8.52843411       3.73643293      -0.00336856      -0.00083680       0.01020297
C        0.00787559       1.45022142       3.72343356       0.00268984      -0.00007791       0.00930727
C       -1.24870569       3.55356442       3.68822641       0.00020249       0.00391307      -0.00834849
C       -2.47524968       5.69162560       3.67755261       0.01042215      -0.00206694      -0.00201057
C       -3.69887608       7.84836063       3.68219119      -0.00739174      -0.00652181       0.00115625
C       -4.92305661      10.00320292       3.71473873      -0.00341950       0.01020723       0.00117880
C        2.48353319       1.50886135       3.77847853       0.00030992       0.00027046      -0.00534462
N        1.16959863       3.58727774       3.84332155      -0.01486588      -0.00709654       0.00281888
C       -0.05723380       5.69112815       3.73197299      -0.00451553      -0.00163641      -0.00560625
C       -1.24604264       7.83989595       3.70366742       0.00578730      -0.00355156      -0.00330109
C       -2.47316904      10.00232067       3.71703651       0.00449444      -0.00199552       0.00754652
C        4.93519723       1.43667586       3.72912921      -0.00058895       0.00198369      -0.00758588
O        3.78359991       3.54641221       3.74499130       0.00047420       0.00080134      -0.00628166
C        1.20146749       7.81909271       3.74920241      -0.00360335       0.00267037       0.00410263
C        0.00291445       9.95804155       3.71713460      -0.00509654      -0.00442242       0.00028254
C        7.40178420       1.40559891       3.68829480      -0.00940944      -0.00492648       0.01357669
C        6.17877192       3.54519467       3.69326513       0.00382423       0.00129336       0.00359672
C        4.95569705       5.67659361       3.76551482       0.00127950      -0.00292482       0.00195509
C        3.70670948       7.74984983       3.81039393      -0.00114478       0.00394466       0.00024662
C        2.46068826       9.91409705       3.72925374       0.00358769      -0.00256619       0.00694895
C        9.86570580       1.39953846       3.69082090       0.00891458       0.00390511      -0.00133465
C        8.63324852       3.54903435       3.66864806      -0.00192287       0.00543627      -0.01277180
C        7.41363709       5.69587626       3.66715390       0.00090092      -0.00294550      -0.00925327
C        6.18395184       7.83916062       3.69840462      -0.00723639      -0.00224444       0.00808311
C        4.93791135       9.95819494       3.71873418       0.00648919      -0.00323323       0.00289155
Fe       2.45972477       4.99031228       4.56086560      -0.00367664      -0.00044217       0.01649377
O        2.35418804       4.95694372       6.22102098       0.00819919       0.00204394      -0.01643579
