50
Lattice="12.336457 0.0 0.0 -6.168228499999997 10.683685154694365 0.0 0.0 0.0 15.0" Properties=species:S:1:pos:R:3:forces:R:3 energy=-444.0710597809666 free_energy=-444.0710597809666 stress="-0.000814113234123296 0.002690367216041811 -1.958289985501371e-06 0.002690367216041811 -0.0038565632382516163 -1.2794179294362422e-06 -1.958289985501371e-06 -1.2794179294362422e-06 3.074273947505594e-06" pbc="T T T"
C       -0.01609266      -0.00536273       3.80267254       0.00434950      -0.00031738       0.00466477
C       -1.22954297       2.14757726       3.87973716      -0.00782845       0.00241440      -0.00078543
C       -2.45692083       4.27163491       3.89711732      -0.00310542      -0.00591685       0.00275961
C       -3.71919374       6.39702777       3.83686790       0.00230392       0.00302248      -0.00661915
C       -4.96757764       8.52659707       3.75913609       0.00266890       0.00592324      -0.00372681
C        2.44469245      -0.02061968       3.83012520       0.00785392      -0.00431797      -0.00584333
C        1.23428009       2.13383222       3.89601848       0.00180746       0.00592630       0.00389514
C        0.03809811       4.30861115       3.97113478       0.00072480      -0.00030553       0.00316833
C       -1.24304333       6.40800073       3.90432876      -0.00124836      -0.00174755      -0.00070668
C       -2.48746142       8.52975858       3.82974460      -0.00748725       0.00248149      -0.00073525
C        4.91754128      -0.01586078       3.78895508      -0.00582218      -0.00289391       0.00665392
C        3.68528494       2.09830978       3.79776004      -0.00702428       0.00202317      -0.00269493
N        2.49905744       4.17370411       3.95523610       0.00754100       0.00038488      -0.00261720
O        1.14365523       6.48499488       3.94971766       0.00102984       0.00051180      -0.00085554
C       -0.03113855       8.54358545       3.75142703      -0.00052931      -0.00841889       0.00661688
C        7.38467593      -0.00439893       3.74440666      -0.00406740       0.00446947       0.00812139
C        6.16020705       2.11549309       3.77991886       0.00196126       0.00365124       0.00257933
C        4.92668209       4.22258089       3.60552983       0.00011218      -0.00259765      -0.00087186
S        3.83494067       6.45206064       2.15741060      -0.00202432       0.00394934       0.00490415
C        2.41551505       8.55302413       3.52278836       0.00635615      -0.00299347       0.00257413
C        9.85493585       0.00693906       3.73554855      -0.00025459       0.00301642      -0.00574894
C        8.63251609       2.13348918       3.82788094       0.00709971       0.00143457      -0.00507560
C        7.40083465       4.25672597       3.78711061       0.00556844      -0.00010264      -0.00226282
C        6.15174072       6.39091466       3.60478136      -0.00379646       0.00217329      -0.00233960
C        4.90910598       8.54454278       3.55504322      -0.00122087      -0.00764037       0.00610378
C       -0.00550469       1.42442491       3.86783643      -0.00368689       0.00486848       0.00159200
C       -1.20907342       3.57816321       3.92438965      -0.00362272      -0.00005924       0.00371561
C       -2.47972553       5.68835823       3.89229053      -0.00027787      -0.00589479      -0.00216019
C       -3.72847938       7.81809877       3.81772176      -0.00229962       0.00492474      -0.00456153
C       -4.96078434       9.95445829       3.80207528       0.00966324       0.00039935       0.00279890
C        2.45111907       1.40136137       3.84823716      -0.00285069      -0.00511830      -0.00622931
C        1.27478194       3.55515296       3.96006218       0.00571545       0.00781886      -0.00529437
C       -0.04126075       5.71055500       3.96096457      -0.00100739      -0.00110849       0.00557755
C       -1.26081165       7.82857129       3.83644433      -0.00933242       0.00049952      -0.00080685
C       -2.48792844       9.95580724       3.81418806      -0.00018641      -0.00331900       0.00337675
C        4.92620470       1.40330300       3.78263894      -0.00538797       0.00129302      -0.00196792
C        3.68382405       3.50302811       3.75891315      -0.00113046       0.00131898      -0.00313361
C        1.17636313       7.88023711       3.68575354       0.00540184      -0.00243920       0.00287567
C       -0.01624241       9.97170368       3.75175869      -0.00621800      -0.00483268       0.00260556
C        7.39460196       1.41798944       3.79158032       0.00737999       0.00647551       0.00121765
C        6.16444292       3.53704066       3.73518260       0.00377231       0.00227953       0.00334253
C        4.95402481       5.64183573       3.34332338      -0.00281200      -0.00576993      -0.00173277
C        3.67925402       7.88475791       3.26482376       0.00292727      -0.00829123      -0.01312104
C        2.44630474       9.97784769       3.67163050      -0.00148939       0.00286024       0.00735440
C        9.86797395       1.43068524       3.82530293      -0.00018511       0.00165348      -0.00864059
C        8.63793413       3.55477097       3.84966240       0.00166501      -0.00330049      -0.00334441
C        7.38319821       5.68123668       3.76659937      -0.00010129       0.00404089      -0.00135476
C        6.13687743       7.81465990       3.62036777      -0.00216371       0.00332232       0.00275189
C        4.91577605       9.97031403       3.71489340      -0.00054925      -0.00414384       0.00636554
Fe       2.93261625       5.93718234       4.25362083       0.00180790      -0.00160763      -0.00238498
