50
Lattice="12.336457 0.0 0.0 -6.168228499999997 10.683685154694365 0.0 0.0 0.0 15.0" Properties=species:S:1:pos:R:3:forces:R:3 energy=-436.6275449781307 free_energy=-436.6275449781307 stress="-0.0023407513070669264 -0.001960935381500989 6.432490381984707e-06 -0.001960935381500989 0.0038077895626231206 1.1054685824774842e-05 6.432490381984707e-06 1.1054685824774842e-05 1.1868626624054346e-05" pbc="T T T"
C       -0.02364787       0.00851353       3.81144338       0.00360457       0.00162042      -0.00061994
C       -1.27364801       2.13968330       3.83643321       0.00719549      -0.00346525       0.00010400
C       -2.48894760       4.28154527       3.84773062      -0.00801297      -0.00240147      -0.00006136
C       -3.70114567       6.42445747       3.82706320      -0.00950703       0.00750775      -0.01225407
C       -4.93880014       8.57153506       3.81606901      -0.00127413       0.01073767       0.00658390
C        2.44107943       0.03725892       3.79410080      -0.00080514      -0.00209738       0.00714961
C        1.17052224       2.13887610       3.79599624       0.00284947       0.00345873       0.00144820
C       -0.07170251       4.28841371       3.93982221      -0.00199535      -0.00007434       0.00224861
C       -1.24700290       6.41023677       3.91021473      -0.00415845      -0.00486958      -0.00718377
C       -2.47265912       8.55891025       3.84680381       0.00319319      -0.00504284      -0.00090936
C        4.91218427       0.01221993       3.71964536      -0.00378347      -0.00234790      -0.00284925
C        3.65945268       2.11265496       3.39252433      -0.00684094      -0.00912565      -0.00097432
O        1.14188807       6.42584009       3.92780279       0.00171682       0.00999670       0.00030800
C       -0.01139642       8.53293416       3.83345509       0.00175834       0.00260113       0.00649568
C        7.38024195      -0.01763259       3.73344711       0.00440794      -0.00854142      -0.00777055
C        6.14219988       2.15016225       3.55392059       0.00105801       0.00009447      -0.00388375
C        5.00048874       4.35474865       3.30900559       0.00721903       0.00678582      -0.01324241
N        3.77470405       6.41791764       3.60186081       0.00584265      -0.00420185      -0.00456407
C        2.43468842       8.47449026       3.79390936      -0.00213830      -0.00234235       0.00543276
C        9.83344891      -0.02189868       3.77492868       0.00173488       0.01120939       0.01426923
C        8.60516859       2.13514663       3.74370284      -0.01062267       0.00456936       0.00179821
C        7.39626503       4.28750079       3.68563178       0.00133810      -0.00108162      -0.00300583
C        6.19895134       6.45309797       3.66480528       0.01110617      -0.00213326      -0.00704057
C        4.91611587       8.53831159       3.75035332      -0.00170491      -0.00183194       0.00133264
C       -0.02816446       1.44482026       3.82576101       0.01101787      -0.00257490      -0.01068431
C       -1.26325104       3.56513302       3.87871182      -0.00297126      -0.00304806       0.00410745
C       -2.47767715       5.69820014       3.87043415      -0.01194620       0.00366186      -0.00639932
C       -3.70746928       7.85189477       3.83904817      -0.00413957       0.00862560       0.00530494
C       -4.95256458      10.00011852       3.82591760       0.00073676       0.00518062      -0.00234251
C        2.41735988       1.47488469       3.69243939      -0.00072791      -0.00760849       0.00159637
O        1.12489703       3.53877098       3.91396874       0.00233608       0.00397562      -0.00507421
C       -0.05777399       5.68770910       3.95583636       0.00260244       0.00063722       0.00475985
C       -1.25036298       7.83721146       3.86874025       0.00660959      -0.00406495       0.00827888
C       -2.48912511       9.99618266       3.79388755      -0.00212650      -0.00750156      -0.00459121
C        4.89825033       1.44520489       3.55182774      -0.00344353      -0.00123849      -0.00271071
S        3.60703657       3.65196457       2.56117245       0.00441405       0.00769698       0.00685661
C        1.19173929       7.82442517       3.85671251      -0.00458751       0.00033335       0.00798755
C       -0.01770854       9.96972686       3.76111245      -0.00066316      -0.00270880       0.00701114
C        7.36751010       1.42636799       3.67837927      -0.00422519      -0.00619857       0.00108693
C        6.16237805       3.58092344       3.51797016       0.00569703       0.00213884      -0.00303414
C        4.97732017       5.77186999       3.49734796       0.00227180      -0.00111378      -0.01010603
C        3.70591304       7.77767113       3.72988282      -0.00674356      -0.00237482       0.00759829
C        2.43687711       9.92379099       3.76681316       0.00658029      -0.00659305       0.01133439
C        9.84115675       1.41811374       3.78985441      -0.00476040       0.01285285       0.00310960
C        8.61459229       3.56333394       3.76664225      -0.00605013       0.00139094      -0.00470768
C        7.40995878       5.71379897       3.73113910       0.00247228      -0.00459256      -0.00615669
C        6.17180609       7.86362459       3.75308614       0.00605366       0.00041563      -0.00436345
C        4.90699328       9.96577070       3.78587033       0.00079551       0.00140927       0.01071707
Fe       2.73132626       4.92728216       4.52014172      -0.00034849       0.00041786       0.01576039
O        3.31810042       4.60733452       6.04125354      -0.00103523      -0.00814314      -0.01815078
