50
Lattice="12.336457 0.0 0.0 -6.168228499999997 10.683685154694365 0.0 0.0 0.0 15.0" Properties=species:S:1:pos:R:3:forces:R:3 energy=-436.4751152032618 free_energy=-436.4751152032618 stress="-0.0006739580003119586 0.0026187510286557066 5.680523089675536e-06 0.0026187510286557066 0.004184347364029138 -1.1205359356696161e-05 5.680523089675536e-06 -1.1205359356696161e-05 -2.2763641694444423e-06" pbc="T T T"
C        0.02693756      -0.00351500       3.68032734       0.01028630      -0.00192720       0.00664011
C       -1.19646570       2.14434651       3.50449265      -0.00622032       0.00142481       0.00310877
C       -2.44873323       4.27940003       3.65684054      -0.00311186      -0.00682616      -0.00824949
C       -3.69096358       6.41402805       3.81929048       0.00873749      -0.00321531       0.00591989
C       -4.91731876       8.55037714       3.83104508      -0.00062610      -0.00406165      -0.00022506
C        2.49873212       0.02662193       3.79825604       0.00624905      -0.00410582       0.00142004
C        1.29085048       2.10149148       3.37130878      -0.00473279      -0.01660097      -0.00343474
C       -0.05435378       4.36380471       3.25529234      -0.00621672       0.00566756       0.00346713
C       -1.24392301       6.43742798       3.69359816      -0.00046242       0.00529961      -0.00272976
C       -2.44938900       8.55636644       3.84020859      -0.00201949      -0.00277848       0.00061142
C        4.96189266       0.00215485       3.83635256      -0.01089040      -0.00265798       0.00755797
C        3.77425046       2.13194634       3.81532775       0.01091726       0.00249942       0.00786131
O        1.15966075       6.47382407       3.38777840      -0.00000002      -0.00343933      -0.00495420
C        0.02036866       8.54068266       3.79239931       0.00112372       0.00495041      -0.00108938
C        7.44226163      -0.02659458       3.78576994      -0.00842429       0.00996604       0.00199179
C        6.21494369       2.12868009       3.84862692       0.00257293       0.00367389      -0.00413421
C        5.00185688       4.25757185       3.96674539       0.00022559       0.00380188       0.00487174
N        3.76955671       6.38680254       4.03936966       0.00016284      -0.00453550      -0.00803757
C        2.47970528       8.47147255       3.79501468       0.00278726      -0.00520402       0.00563212
C        9.89703888      -0.02573287       3.70280538       0.00145996       0.00123217       0.00947260
C        8.67568276       2.12811371       3.72086698       0.00652913      -0.00336144       0.00098091
C        7.43090837       4.27161123       3.83719541       0.00099354      -0.00375322      -0.00459065
C        6.18520201       6.39781134       3.89220552      -0.00227919      -0.00141212      -0.00107860
C        4.94754257       8.51208041       3.81455034       0.00162791       0.01013588       0.00264016
C        0.04574336       1.43154198       3.50843887      -0.00615316      -0.00585021       0.00431859
C       -1.21784315       3.57660716       3.46508272      -0.00423846       0.00118952      -0.00047953
C       -2.46643566       5.70110007       3.73300689       0.00565700      -0.00467649      -0.01183035
C       -3.68722873       7.84046157       3.84097785       0.00109918      -0.00238057      -0.00520401
C       -4.90839242       9.98349381       3.77463139       0.00994321      -0.00559709       0.00557624
C        2.52533233       1.46328751       3.69896461       0.00669054      -0.00430450       0.00007097
S        1.39204830       3.65457428       2.58759646      -0.00273146       0.00712638      -0.00405122
C       -0.05881235       5.75285757       3.46716988      -0.00478236       0.00549676      -0.00595888
C       -1.22919113       7.85201682       3.79356368      -0.00014209       0.00480852      -0.00458714
C       -2.44399649       9.98958550       3.84557631      -0.00472433      -0.00913235       0.00475715
C        4.96943640       1.43700025       3.84303638       0.00524467      -0.00351115       0.00663001
O        3.82682834       3.51636205       3.98273481      -0.00142133       0.00755651       0.00828072
C        1.22595319       7.84686911       3.73230441       0.00026243       0.00041919      -0.00586489
C        0.03248643       9.96878216       3.81987305      -0.01156851       0.00592079       0.00049652
C        7.43843180       1.41393696       3.78963870       0.00354745       0.00884054       0.00237289
C        6.19997080       3.55309644       3.88878540      -0.00248573       0.00251751      -0.00751724
C        4.94961018       5.68480664       3.97847086      -0.00315033      -0.00341172      -0.00463781
C        3.73426198       7.74550723       3.88188047       0.00860154      -0.00413073      -0.00429077
C        2.49799962       9.91937186       3.76170789      -0.00551993      -0.00147258      -0.00177831
C        9.91295760       1.41667194       3.64040621       0.00372824      -0.00148058       0.00427750
C        8.66262370       3.55591720       3.74330933       0.00007623      -0.00793222      -0.00053141
C        7.41399091       5.69057864       3.85230484       0.00443087       0.00008464       0.00317610
C        6.18660528       7.82203270       3.84724941      -0.00477611       0.00280187      -0.00178390
C        4.95623401       9.94779870       3.72595578       0.00845690       0.00794354       0.00270526
Fe       2.10132383       5.13385791       4.61899546      -0.00801850       0.00556869      -0.01138421
O        1.50407649       4.81346634       6.14313771      -0.00671534       0.00883321       0.00358541
