52
Lattice="12.336457 0.0 0.0 -6.168228499999997 10.683685154694365 0.0 0.0 0.0 15.0" Properties=species:S:1:pos:R:3:forces:R:3 energy=-446.3492668743203 free_energy=-446.3492668743203 stress="-0.0012129562065543002 0.0028927452614801556 -4.368742651574823e-05 0.0028927452614801556 0.0033689792879437967 1.6677183713407185e-05 -4.368742651574823e-05 1.6677183713407185e-05 -2.2956838895385573e-06" pbc="T T T"
C       -0.01586747       0.00798748       3.78007339      -0.01106448      -0.01062787       0.00050852
C       -1.24354849       2.14165374       3.89634729       0.00013653      -0.00513389      -0.01001441
C       -2.47070344       4.27791666       3.87637940      -0.00763970       0.00715497       0.00211845
C       -3.72315325       6.41140612       3.75956635       0.00613941       0.00051630      -0.00008269
C       -4.97341622       8.54732109       3.68703478      -0.00645922      -0.00238410       0.00913992
C        2.43842648       0.05648841       3.76627448      -0.00449181       0.00074229      -0.00812504
C        1.19099988       2.16292342       3.85427391      -0.00092266      -0.00537256       0.00496102
C       -0.03173148       4.27301579       3.98816883       0.00385177      -0.00087904       0.00221622
C       -1.26251936       6.41379364       3.89490816       0.00339563       0.00223683      -0.00052638
C       -2.50964194       8.55915210       3.80430886      -0.00896030       0.00807311      -0.00889595
C        4.90149382       0.00438750       3.80487000       0.00854224       0.00961695       0.01023858
C        3.72238139       2.14657648       3.66917177      -0.00014788      -0.00277168      -0.00244048
N        1.14045198       6.44555410       4.04992101       0.00168520      -0.00248702       0.00572279
C       -0.04455032       8.53912199       3.87356644      -0.00934243      -0.00132854       0.00121181
C        7.37969397      -0.01638434       3.87315954      -0.00018128       0.01168359      -0.00302116
C        6.17172000       2.11173708       3.75154076      -0.00153154      -0.01165243      -0.00498023
C        5.00168334       4.19490590       3.43117591       0.00644802      -0.00419355      -0.00297338
S        3.54401934       6.32893125       2.65724680       0.00048361       0.00631218      -0.01711433
C        2.42225523       8.52444200       3.78840185       0.00109301       0.00056028      -0.00090171
C        9.85201559      -0.01262286       3.84031610      -0.00072603      -0.00840959       0.00632925
C        8.63046426       2.12728417       3.86022523       0.00723079       0.00131959       0.00454715
C        7.41174408       4.26164905       3.71724385      -0.01254641       0.00208596       0.00140303
C        6.15366911       6.38351885       3.51656658      -0.00280668       0.00847007       0.00174065
C        4.89765451       8.52897178       3.60887885       0.00496483       0.00330968      -0.00193076
C       -0.00346834       1.44766631       3.85055632       0.00062073      -0.00958212       0.00117873
C       -1.23329331       3.56686610       3.92992984      -0.00346648       0.00361380       0.00636575
C       -2.48506007       5.69789598       3.84809902       0.00698941       0.00369650      -0.00301911
C       -3.73723924       7.83873406       3.74709844      -0.00375230      -0.00201430      -0.00272372
C       -4.95527543       9.99353279       3.74223809      -0.00778802      -0.00532080      -0.00774254
C        2.44851486       1.51179352       3.76482965      -0.00280810      -0.00216685       0.00934517
O        1.14969729       3.54683896       3.96754017       0.00941232      -0.00411039       0.00835382
C       -0.02250210       5.70763237       3.99276486       0.00506157       0.00018597      -0.00201278
C       -1.27933526       7.83858769       3.85971441      -0.01138119       0.00356754       0.00649099
C       -2.50859240       9.99788393       3.78879720       0.00491839       0.01216505      -0.00575427
C        4.91433060       1.43180850       3.74413515      -0.00076533      -0.00003796       0.00558323
O        3.79025905       3.51024336       3.46000769       0.00711510      -0.00954463       0.00453797
C        1.17001557       7.80127464       3.89775278      -0.00515984      -0.00252894       0.00545602
C       -0.03091031       9.96706694       3.85144921       0.00321098       0.00242061       0.00205853
C        7.39045550       1.40927405       3.84141394       0.00593899       0.00436636      -0.00359235
C        6.19461067       3.52082345       3.63948381      -0.00419477      -0.01223734       0.00001427
C        4.98900125       5.59909919       3.31245137      -0.00384092       0.00447399       0.00097060
C        3.64109171       7.85842363       3.51017125       0.00990459       0.00011584       0.01244202
C        2.44251981       9.95383600       3.86039028      -0.00318259       0.00240499      -0.00538612
C        9.86707469       1.42182226       3.88023216       0.00336621      -0.00689855      -0.00735039
C        8.63971745       3.55390403       3.82825531      -0.00831159       0.00506868       0.00100623
C        7.39246845       5.68385768       3.67146258      -0.00419175       0.00514295      -0.00233728
C        6.13370962       7.81827130       3.57832980      -0.00035463       0.00631817      -0.00973322
C        4.91359052       9.96392207       3.75786683      -0.00705280      -0.00460664       0.00315836
Fe       2.74421961       5.45579703       4.75523900       0.00669195       0.00469530       0.00300973
O        3.46123773       4.31185073       6.02579088       0.00822593       0.00550398      -0.01375189
O        2.54900715       5.16337791       6.84236615       0.00583388      -0.00006185       0.00600149
H        3.18257045       5.43647334       7.52817451       0.01180967      -0.01147092      -0.00170011
