53
Lattice="12.336457 0.0 0.0 -6.168228499999997 10.683685154694365 0.0 0.0 0.0 15.0" Properties=species:S:1:pos:R:3:forces:R:3 energy=-458.7876565093567 free_energy=-458.7876565093567 stress="-0.0006117797641001564 0.0028865776853147095 1.3582189046283032e-05 0.0028865776853147095 -0.0030162176872761417 2.685566841353076e-05 1.3582189046283032e-05 2.685566841353076e-05 3.8005531499867785e-05" pbc="T T T"
C        0.02098612      -0.04486229       3.75318075      -0.00236711       0.00686830       0.00343603
C       -1.18954574       2.10892909       3.86255535       0.00560935       0.00575101       0.00597484
C       -2.41527741       4.22983096       3.90277917       0.00174702       0.00107748       0.00447406
C       -3.68029813       6.35641451       3.82720990      -0.00002333      -0.01186107       0.00445406
C       -4.93034899       8.48540272       3.71941037       0.00065382       0.00320797      -0.00620413
C        2.48067259      -0.06350938       3.78524444       0.00182523       0.00761800       0.00497601
C        1.27191112       2.09685460       3.86915061       0.00310080      -0.00291019       0.00555836
C        0.08391089       4.27450394       3.96269094       0.00121230       0.00431969      -0.00930600
C       -1.20843194       6.36788023       3.86412660      -0.00005642      -0.00019708       0.00324873
C       -2.45158286       8.48887165       3.78704422       0.00178085      -0.00190771       0.00565965
C        4.95444427      -0.05865439       3.79473093       0.00785778      -0.00388364       0.00101271
C        3.72304976       2.05053561       3.83738101       0.00311037      -0.00072816      -0.00070936
N        2.54228640       4.12788293       4.08507897      -0.00435042      -0.01246111      -0.00742270
O        1.16044956       6.44323467       3.82132501      -0.00743522       0.00898549       0.00191845
C        0.00485839       8.50185889       3.72233385      -0.00024646      -0.00159293       0.00107103
C        7.42364379      -0.04922642       3.77649268       0.00156208       0.00283596      -0.00677328
C        6.20094573       2.07105138       3.85758295      -0.01075158       0.00397551       0.00665277
C        4.96005254       4.18175538       3.79683838       0.00461018      -0.00844888       0.00389231
S        3.72675530       6.29375793       2.46649464      -0.00017504       0.00166668       0.00669982
C        2.45107465       8.49697195       3.54420680      -0.00113958      -0.00327891      -0.00310033
C        9.89120647      -0.03860583       3.73211011       0.00213588      -0.00549776       0.00244253
C        8.67321471       2.08945195       3.86200360      -0.00274261       0.00581912      -0.00551860
C        7.43984812       4.21410826       3.86203645      -0.00595326       0.00731154      -0.00679819
C        6.19074507       6.35056859       3.66226369      -0.00428039       0.00393071      -0.00357961
C        4.94244480       8.49883603       3.54089139      -0.00016702       0.00414341      -0.00334850
C        0.03309162       1.38685864       3.82775726       0.00406524       0.00454488       0.00602715
C       -1.16135437       3.54253628       3.91801639       0.00359373       0.00628076       0.00207560
C       -2.44078403       5.64672596       3.87898622       0.00476276      -0.00482833      -0.00296053
C       -3.69218670       7.77690676       3.78100676       0.00141869      -0.01001007      -0.00241773
C       -4.92440815       9.91310994       3.74681544      -0.00212695       0.00850814       0.00839004
C        2.48692880       1.35751901       3.82713917       0.00512807       0.00420031      -0.00296652
C        1.32241466       3.52114634       3.98348762      -0.00641351      -0.00777550       0.00481063
C        0.00347464       5.68184352       3.91317880      -0.00064334       0.00438775      -0.00713618
C       -1.22606300       7.78771745       3.79284341       0.00147401      -0.00209440      -0.00216389
C       -2.45186689       9.91422351       3.78417667       0.00379306       0.00274602      -0.00998998
C        4.96489562       1.35987742       3.82530852      -0.00256651      -0.00327591       0.00901194
C        3.71054740       3.46244537       3.88854579       0.00066726      -0.00408548       0.00267386
C        1.20703725       7.82310547       3.64273185      -0.00216124       0.00240893       0.00341520
C        0.02025985       9.92827866       3.76228577       0.00715868      -0.00481473      -0.00635399
C        7.43572433       1.37326623       3.84189731      -0.00947557       0.00719868      -0.00382725
C        6.20124249       3.49439614       3.85876405       0.00136926       0.00024660       0.00359053
C        4.97671188       5.59434028       3.51805594       0.00898195      -0.01267482       0.00281533
C        3.70771364       7.83263288       3.32025835       0.00148518       0.00022961       0.00541670
C        2.48186578       9.92506733       3.69271357      -0.00008652      -0.00466026      -0.00004416
C        9.90753887       1.38776315       3.82473982       0.00332331      -0.00060082       0.01205885
C        8.67925326       3.51144433       3.88842210      -0.00426617       0.00898233      -0.00125893
C        7.42281988       5.63966476       3.80583368      -0.00847070       0.00338014       0.00238697
C        6.17178725       7.76996560       3.61844243      -0.00261101       0.00701582      -0.00709316
C        4.95269517       9.92929652       3.68279466       0.00194566       0.00085342      -0.00108347
Fe       3.24334237       5.92401360       4.94510960      -0.00231751      -0.00425229      -0.00499305
O        3.39283143       7.10362111       6.32791424       0.00198073      -0.00134783      -0.01705567
O        2.03994201       6.53090469       6.60090497       0.00451822      -0.01585136       0.00847111
H        2.18418229       6.30481211       7.53717421      -0.01004399       0.00054500      -0.01051005
