50
Lattice="12.336457 0.0 0.0 -6.168228499999997 10.683685154694365 0.0 0.0 0.0 15.0" Properties=species:S:1:pos:R:3:forces:R:3 energy=-438.5383940893334 free_energy=-438.5383940893334 stress="-0.004947782401279985 0.0005424877473258123 -5.687981812149169e-07 0.0005424877473258123 -0.006521372596632938 -1.0777562082140803e-05 -5.687981812149169e-07 -1.0777562082140803e-05 3.036842992337609e-06" pbc="T T T"
C       -0.01564642       0.00136347       3.64027636       0.00494578      -0.00861701       0.00135196
C       -1.24412498       2.14862549       3.54821800      -0.00029517       0.00539346      -0.00229546
C       -2.48591372       4.28320997       3.58747351      -0.00555502       0.00103877       0.00006638
C       -3.72590380       6.41799889       3.63708104      -0.01413418       0.00586510      -0.00160254
C       -4.95623434       8.54537858       3.67853996      -0.00694036       0.00349349      -0.00919167
C        2.45199258      -0.04690863       3.75783752       0.00497615      -0.00560398       0.00136883
C        1.25869275       2.07684410       3.50866973      -0.00648764      -0.00872143       0.00807627
C       -0.04281156       4.34845522       3.44997351       0.01261403      -0.00084362       0.00481561
C       -1.29265594       6.45759977       3.55175682       0.00054646       0.00053737       0.00390991
C       -2.48551658       8.55132509       3.69754774       0.00097595      -0.00072009       0.00102071
C        4.93340943      -0.01716229       3.86709669       0.00085962       0.00764032      -0.00168037
C        3.67051883       2.01971899       4.09349953      -0.00125529       0.00579084      -0.00131345
N        1.12967341       6.44123596       3.75516627       0.00588499      -0.01121929       0.00834138
C       -0.00345090       8.54373758       3.73635266       0.01011265       0.00158190       0.00678193
C        7.40109543      -0.00411016       3.82588616      -0.00627403       0.00193658       0.00149776
C        6.15564390       2.15260876       3.95049693       0.01040443      -0.00168553      -0.00763876
C        4.97338081       4.39360534       4.04643289      -0.00172234       0.00100072       0.00346275
O        3.77172069       6.48020517       3.99993011       0.01183482       0.00414896       0.00366224
C        2.47286675       8.50489760       3.82603147      -0.00717648      -0.00550761      -0.00550833
C        9.85219049      -0.00027284       3.72287753       0.00063229      -0.00589209      -0.01086097
C        8.62302468       2.14326328       3.73228568      -0.00206354       0.00552745       0.00053419
C        7.38811426       4.28470387       3.76162456      -0.00359868       0.00580947       0.01040611
C        6.16694808       6.44498862       3.74720225       0.00638757       0.00505897      -0.00810885
C        4.91856816       8.55572223       3.75269173       0.00205993      -0.01094374      -0.00968217
C       -0.00175632       1.43105253       3.54314356      -0.00382783      -0.00701253      -0.00241115
C       -1.24543454       3.57893687       3.51502943       0.00238055       0.00513231      -0.00912886
C       -2.50112075       5.70845104       3.57880370      -0.01088876       0.00320872       0.00490020
C       -3.71983559       7.83835928       3.66305396      -0.01015511       0.00632305      -0.00561077
C       -4.95719674       9.96107881       3.68130943       0.00429744      -0.00236959      -0.00019569
C        2.45355011       1.35502221       3.79473123      -0.00157989      -0.00569693       0.00894527
P        1.55895576       3.72509591       2.88149981      -0.00667491      -0.00077658       0.01218562
C       -0.07580726       5.79858424       3.51641745       0.00380581      -0.00241832       0.00580803
C       -1.25594906       7.86060930       3.65696432       0.00951228       0.00402633       0.00458305
C       -2.47281626       9.95860301       3.79033551       0.00524701      -0.00093879      -0.00468000
C        4.93003450       1.40588806       3.99927437       0.00546876       0.00730567       0.00064364
P        3.46533773       3.68694072       4.51040423      -0.01237564      -0.00339636       0.00279604
C        1.21118956       7.80625333       3.78418234       0.00401447      -0.01462161      -0.00273311
C        0.00116982       9.96686981       3.81518693      -0.00226424       0.00410200       0.00873936
C        7.38791827       1.43294467       3.84157732       0.00451585      -0.00105108      -0.00067930
C        6.15503265       3.59103884       3.92475677       0.00350224       0.00105105      -0.00154657
C        4.96886280       5.78440395       3.91587818       0.01090238       0.00377777       0.00104107
C        3.72054965       7.85136494       3.85478273      -0.00215695       0.00117187      -0.00241899
C        2.46342108       9.94614533       3.79366859      -0.00903877      -0.00245892      -0.00410738
C        9.85910807       1.43424790       3.66252576      -0.00166750       0.00383802      -0.00259780
C        8.62249169       3.56739489       3.68910609      -0.00737612       0.00507016       0.00454499
C        7.38851252       5.70456530       3.70322977      -0.00740852       0.00347680       0.00067993
C        6.15622083       7.85424940       3.71142207       0.00110849      -0.00212960      -0.01169840
C        4.91541013       9.98269628       3.69834058       0.00579699      -0.01273793      -0.00690659
Fe       1.53188317       4.93848682       4.90888401      -0.00040022       0.00901403       0.00109556
O        2.96243607       4.06331076       5.94508930      -0.00146974       0.00304144       0.00133839
