51
Lattice="12.336457 0.0 0.0 -6.168228499999997 10.683685154694365 0.0 0.0 0.0 15.0" Properties=species:S:1:pos:R:3:initial_magmoms:R:1:forces:R:3 energy=-440.8952691259876 free_energy=-440.8952691259876 stress="-0.0019485414714131477 1.4819501919054206e-05 -7.3756224213353e-07 1.4819501919054206e-05 -0.004963669545139559 1.0022552890173157e-05 -7.3756224213353e-07 1.0022552890173157e-05 -9.272254844282172e-06" pbc="T T T"
C        0.02217591      -0.06848957       3.52929185       0.00000000      -0.00494173      -0.00053529       0.00646573
C       -1.20674836       2.08073419       3.44697001       0.00000000       0.00243797       0.00638588       0.00361031
C       -2.44240948       4.21444443       3.56142991       0.00000000       0.00234431      -0.00103046      -0.00323886
C       -3.67831940       6.34529533       3.64540419       0.00000000      -0.00102687       0.00270665      -0.00363331
C       -4.91764291       8.47417590       3.62510797       0.00000000       0.00138812      -0.00095539      -0.00002237
C        2.49121354      -0.11175313       3.65227252       0.00000000       0.00347160      -0.00028111       0.00139286
C        1.28901232       2.00755868       3.37871550       0.00000000      -0.00348640      -0.00349424      -0.00568911
C        0.00994082       4.27567742       3.34110823       0.00000000      -0.00132586      -0.00493292      -0.00320103
C       -1.22827401       6.36969747       3.57463702       0.00000000      -0.00091010       0.00595972      -0.00471613
C       -2.44283837       8.47645080       3.67801812       0.00000000      -0.00149138      -0.00102960       0.00009390
C        4.96560343      -0.07682570       3.79954004       0.00000000      -0.00090289      -0.00428727       0.00659278
C        3.69541211       1.98750814       3.96339929       0.00000000      -0.00339633       0.00767567      -0.00007170
N        1.20024531       6.36884171       3.60842113       0.00000000      -0.00001541      -0.00264913       0.00483741
C        0.03235756       8.47663295       3.70861197       0.00000000       0.00041479       0.00804090       0.00286824
C        7.43381146      -0.06528307       3.76039776       0.00000000       0.00368744       0.00003489       0.00358715
C        6.18772997       2.08614119       3.88648902       0.00000000      -0.00333804      -0.00407294       0.00188315
C        4.98097951       4.30547122       4.05357572       0.00000000      -0.00392046      -0.00279039      -0.00257789
O        3.84348382       6.44335630       4.18324322       0.00000000       0.00473176      -0.00167753      -0.01389819
C        2.51039436       8.44758742       3.79902621       0.00000000      -0.00039530       0.00103951      -0.00289380
C        9.89019132      -0.06416512       3.63490834       0.00000000       0.00155009       0.00512641      -0.00242814
C        8.65958133       2.07878482       3.66896894       0.00000000       0.00271589      -0.00543597       0.00000336
C        7.42095092       4.21597673       3.75334295       0.00000000       0.00665411       0.00238071      -0.00026609
C        6.20764474       6.37305699       3.76150112       0.00000000      -0.00155159      -0.00261457      -0.00095561
C        4.95846501       8.48988864       3.70083635       0.00000000       0.00256984      -0.00357889       0.00389733
C        0.02885344       1.35969450       3.42460855       0.00000000      -0.00347750      -0.00010046      -0.00395817
C       -1.19269431       3.51730553       3.43437953       0.00000000       0.00226476       0.00133067       0.00965746
C       -2.44737172       5.63582145       3.59373218       0.00000000      -0.00138514       0.00150103       0.00031535
C       -3.67749937       7.76523671       3.64584272       0.00000000       0.00019179       0.00007764      -0.00332061
C       -4.91765664       9.89118438       3.58509567       0.00000000       0.00009224       0.00089286       0.00251357
C        2.48819506       1.29103109       3.66236526       0.00000000      -0.00143860       0.00160128       0.00124871
P        1.58985576       3.64939021       2.81465926       0.00000000      -0.00620876       0.00023567       0.00504154
C        0.00413898       5.69408756       3.48370734       0.00000000      -0.00283769      -0.00242074      -0.00384414
C       -1.21267737       7.77748813       3.66370685       0.00000000      -0.00043985       0.00729328       0.00214369
C       -2.43483906       9.88956338       3.72315479       0.00000000       0.00175859      -0.00423468      -0.00310397
C        4.96077238       1.34872133       3.91031271       0.00000000      -0.00648375      -0.00423495      -0.00087591
P        3.41235333       3.62303480       4.49760682       0.00000000      -0.00441762       0.00447454      -0.00397131
C        1.24696394       7.74154491       3.71653047       0.00000000      -0.00149928       0.00368423      -0.00613931
C        0.03355485       9.90226515       3.76750852       0.00000000       0.00244313       0.00564704      -0.00127479
C        7.42335769       1.36965922       3.77554704       0.00000000      -0.00059315      -0.00394617      -0.00099167
C        6.17971012       3.52176798       3.89804031       0.00000000       0.00238487       0.00122182       0.00414170
C        5.02417041       5.69853117       3.98650799       0.00000000       0.00094660      -0.00316346       0.00441402
C        3.75922126       7.81484065       3.88078256       0.00000000       0.00152140      -0.00045692      -0.00187108
C        2.49796592       9.88972131       3.72782183       0.00000000       0.00372358       0.00223066      -0.00130566
C        9.89680901       1.37092872       3.57438094       0.00000000       0.00602215       0.00545524       0.00124517
C        8.66084863       3.50342419       3.65745774       0.00000000       0.00546031      -0.00547743       0.00051093
C        7.43166359       5.63416437       3.70767124       0.00000000       0.00066521       0.00414844       0.00137024
C        6.19644482       7.78268798       3.67799717       0.00000000       0.00198717      -0.00412287      -0.00048352
C        4.95429203       9.91595632       3.60441906       0.00000000      -0.00351923      -0.00235247       0.00152565
Fe       2.15971543       5.65551617       5.33017312       0.00000000      -0.00389309      -0.00471671      -0.01084178
O        1.01195950       4.95347430       6.65733101       1.00000000      -0.00263754      -0.00541750      -0.00330588
O        0.99560193       6.30863711       6.68891723       1.00000000       0.00410581       0.00086531       0.01951976
