52
Lattice="12.336457 0.0 0.0 -6.168228499999997 10.683685154694365 0.0 0.0 0.0 15.0" Properties=species:S:1:pos:R:3:initial_magmoms:R:1:forces:R:3 energy=-454.5207630733938 free_energy=-454.5207630733938 stress="-0.00017429553905602278 0.00292197726012365 8.161434938507451e-06 0.00292197726012365 -0.0019051197357433938 7.446601382056092e-06 8.161434938507451e-06 7.446601382056092e-06 1.1758090967877402e-06" pbc="T T T"
C       -0.04869251      -0.03972392       3.71746176       0.00000000       0.00025593       0.00286628      -0.00118445
C       -1.25935443       2.11400131       3.81647499       0.00000000      -0.00385455      -0.00235290      -0.00580904
C       -2.48615001       4.23502731       3.82677382       0.00000000       0.00813731      -0.00308965       0.00029112
C       -3.74983203       6.36175569       3.74049168       0.00000000      -0.00317272       0.00132168      -0.00098882
C       -4.99917868       8.49291776       3.65645620       0.00000000       0.00130207      -0.00335256      -0.00144898
C        2.41162210      -0.05460488       3.74906132       0.00000000      -0.00460076      -0.00570469      -0.00114524
C        1.20317053       2.10596160       3.83076663       0.00000000      -0.00090844      -0.00021825       0.00098072
C        0.01332021       4.28054848       3.89925459       0.00000000       0.00389311       0.00440912      -0.00199157
C       -1.27869264       6.37232891       3.79261141       0.00000000      -0.00060688       0.00488278      -0.00043891
C       -2.52177125       8.49598541       3.73388658       0.00000000      -0.00043376      -0.00367792      -0.00284967
C        4.88466600      -0.05091897       3.75225071       0.00000000      -0.00591486      -0.00249357       0.00031224
C        3.65291714       2.06214190       3.78630686       0.00000000       0.00632571       0.00589829      -0.01211941
N        2.47477353       4.14502402       4.02570531       0.00000000      -0.00352921       0.00084452      -0.00422224
O        1.09414834       6.43919252       3.76203933       0.00000000       0.00500125      -0.00254657       0.00528312
C       -0.06563703       8.50627002       3.69103463       0.00000000      -0.00263516       0.00786870      -0.00176749
C        7.35320158      -0.04434684       3.73378428       0.00000000       0.00197008       0.00460382      -0.00572165
C        6.12947878       2.07978944       3.78851308       0.00000000       0.00156149      -0.00128280       0.00133632
C        4.88840129       4.19297968       3.66911513       0.00000000      -0.00244037       0.00357376      -0.00856947
S        3.65787630       6.32419941       2.32979149       0.00000000       0.00584536      -0.00750028       0.01110449
C        2.37739048       8.49948420       3.52935655       0.00000000      -0.00516138       0.00054175      -0.00582803
C        9.82121015      -0.03526780       3.69590327       0.00000000       0.00451365      -0.00012029       0.00473478
C        8.60250277       2.09489309       3.79837064       0.00000000      -0.00242343      -0.00120598      -0.00105344
C        7.36920858       4.22013938       3.76130107       0.00000000      -0.00124420      -0.00267092      -0.00939317
C        6.12384708       6.35421152       3.53731870       0.00000000      -0.00042516      -0.00052538      -0.00361469
C        4.87385499       8.50237959       3.49502102       0.00000000       0.00520879       0.00073462      -0.00060281
C       -0.03549293       1.39337013       3.79094365       0.00000000      -0.00354017       0.00089282       0.00617570
C       -1.23202342       3.54817637       3.85617317       0.00000000       0.00770428      -0.00344670       0.00445227
C       -2.51099719       5.65112784       3.79838492       0.00000000      -0.00057494       0.00098435      -0.00278895
C       -3.76182222       7.78333561       3.71122849       0.00000000       0.00015217       0.00002652       0.00256445
C       -4.99357479       9.92056126       3.70563201       0.00000000      -0.00457518      -0.00402859       0.00596579
C        2.41796175       1.36759963       3.79090968       0.00000000       0.00355595       0.00126605      -0.00687216
C        1.25759210       3.53444947       3.93194576       0.00000000      -0.00148257       0.00084759       0.00620174
C       -0.06892893       5.68428734       3.84180231       0.00000000       0.00056384       0.00383380       0.00963369
C       -1.29663114       7.79323906       3.73878902       0.00000000       0.00071064       0.00440877      -0.00016014
C       -2.52144665       9.92234795       3.74226188       0.00000000      -0.00540206      -0.00766209      -0.00674493
C        4.89316508       1.36916071       3.77344238       0.00000000       0.00358075      -0.00189154      -0.00060527
C        3.63667361       3.47938427       3.80872587       0.00000000       0.00137010       0.00842766       0.00020059
C        1.13723263       7.82458514       3.63032041       0.00000000      -0.00570426      -0.00024316      -0.00738658
C       -0.04947268       9.93337431       3.72268289       0.00000000      -0.00161285       0.00793640       0.00340001
C        7.36436885       1.38006345       3.78198601       0.00000000      -0.00010572       0.00070078       0.00565309
C        6.12920884       3.50274075       3.75825101       0.00000000      -0.00416322      -0.00009018      -0.00328621
C        4.91624808       5.59549886       3.34726437       0.00000000      -0.00421104       0.00572302       0.00658281
C        3.63238617       7.82118603       3.28530716       0.00000000       0.00127635       0.00062996       0.00538911
C        2.41142462       9.92789115       3.66063866       0.00000000       0.00301202       0.00128965       0.00807162
C        9.83767901       1.39178160       3.77842983       0.00000000      -0.00408316      -0.00211356       0.00416511
C        8.60775844       3.51723180       3.80750077       0.00000000       0.00331384      -0.00244579       0.00257334
C        7.35378566       5.64513919       3.69700498       0.00000000      -0.00335853      -0.00115126      -0.00004846
C        6.10297098       7.77718520       3.53988164       0.00000000       0.00395150      -0.00367773       0.00091963
C        4.88278777       9.93039943       3.64559167       0.00000000       0.00566881       0.00084015       0.00380053
Fe       3.22024973       6.04829446       4.83747653       0.00000000       0.00134756      -0.00465854      -0.01574836
O        3.06384452       7.11217181       6.38223171       1.00000000       0.00383893       0.00025747      -0.00253182
O        4.22949170       6.44171538       6.37085883       1.00000000      -0.00789689      -0.00745940       0.01512969
