49
Lattice="12.336457 0.0 0.0 -6.168228499999997 10.683685154694365 0.0 0.0 0.0 15.0" Properties=species:S:1:pos:R:3:forces:R:3 energy=-431.5016987677438 free_energy=-431.5016987677438 stress="-0.002876996969780965 -0.0014393976129504756 -9.333782016367703e-06 -0.0014393976129504756 0.00278552111195728 2.6729695996037706e-06 -9.333782016367703e-06 2.6729695996037706e-06 -1.772490778064309e-06" pbc="T T T"
C       -0.00250322       0.00144030       3.84570133      -0.00506661      -0.00757480      -0.00208892
C       -1.25595319       2.12679571       3.88718712       0.01588804       0.00836643      -0.00027930
C       -2.47571992       4.26990417       3.92418325      -0.01335440       0.00018266      -0.00489062
C       -3.69066184       6.41394374       3.90226013      -0.00435693      -0.01136611      -0.00962350
C       -4.92454380       8.56094418       3.87173982       0.00655401       0.00276406       0.00420628
C        2.46042573       0.02494147       3.80373094      -0.00642367       0.00022227      -0.00475954
C        1.19448860       2.12715608       3.76747207       0.00009598       0.00099706      -0.00666757
C       -0.06018772       4.27733889       3.97534882       0.00221688      -0.00704676       0.00257974
C       -1.24061006       6.40273858       3.98994571       0.00896807       0.00625998       0.01211234
C       -2.45831650       8.54889816       3.91003062      -0.01115433       0.00140974       0.00322834
C        4.93119846      -0.00424266       3.73948652       0.00535735      -0.00660291      -0.00165282
C        3.68840608       2.08005784       3.31362620      -0.00844639      -0.00842957       0.01302371
O        1.15504777       6.42032001       4.02990164       0.00224114       0.00296234      -0.00870157
C        0.00418764       8.52362507       3.89088201       0.00093802       0.00565378      -0.00182901
C        7.39838236      -0.02906116       3.76346502       0.00590772      -0.00200726       0.00441607
C        6.16499762       2.13320899       3.54196611       0.00431397       0.00288665       0.00571164
C        5.03463034       4.34041752       3.22631918       0.01164188      -0.00559023       0.00566481
N        3.80697574       6.42847483       3.53853889      -0.00146329       0.00565379      -0.00100423
C        2.45394124       8.47190718       3.80640732      -0.00277400      -0.00007213      -0.00621877
C        9.85390552      -0.02978772       3.82261493      -0.00066679       0.00633122      -0.01187798
C        8.62248091       2.12450723       3.78937696       0.00104106      -0.00199423       0.00440009
C        7.41202928       4.27586024       3.72238539       0.00150941       0.00553442      -0.01216993
C        6.21167646       6.43870168       3.69569555      -0.00197192       0.00255754      -0.00500142
C        4.93744580       8.53161636       3.78389680       0.00493056      -0.00294744       0.00734578
C       -0.00631172       1.43680631       3.84578900       0.00753754      -0.00381553       0.00058707
C       -1.25065108       3.54970828       3.94238278      -0.00603129       0.00534823       0.00615295
C       -2.46884843       5.68724100       3.95309805       0.00295615       0.00055251      -0.00309914
C       -3.69429819       7.84172640       3.90949824      -0.00563698      -0.00991912      -0.00650814
C       -4.93354570       9.99093233       3.85997362      -0.00302755       0.00229226       0.00441244
C        2.44092034       1.46170301       3.64636101      -0.00913150      -0.00408942      -0.00906595
O        1.15548522       3.53370733       3.91790550       0.00867189       0.00111897       0.00566557
C       -0.05685207       5.67180237       4.01057237       0.00578206      -0.00637319       0.00296581
C       -1.23756508       7.82890300       3.94289406      -0.00170274       0.01255512       0.01351415
C       -2.47235035       9.98389859       3.82468838      -0.00429242       0.00114707       0.00788238
C        4.92288900       1.42270165       3.53140261      -0.00109129      -0.00398013      -0.00011007
S        3.71818733       3.55494762       2.36684763      -0.01334176       0.00975621      -0.01093881
C        1.21117406       7.82733429       3.89038302      -0.00310123      -0.00093541      -0.00840880
C       -0.00032566       9.95735762       3.79858323       0.00952115      -0.00084771       0.00052977
C        7.38643083       1.41415863       3.70054719       0.00110826      -0.00174161       0.00685822
C        6.18319338       3.56824539       3.50176404       0.00815668       0.00388607       0.00870193
C        5.00700608       5.75365149       3.45521843      -0.00327827      -0.00477076       0.00781290
C        3.72803960       7.78054916       3.72099003       0.00047993       0.00457907       0.00694738
C        2.45671903       9.91933322       3.80107197       0.00032557      -0.00052575       0.00088027
C        9.85873430       1.40787606       3.84359545       0.01241403       0.00891632      -0.00341112
C        8.62972182       3.55229071       3.82320859      -0.01057792      -0.00285108      -0.00266375
C        7.42311219       5.70120769       3.78252713      -0.00522445      -0.00014054      -0.00314070
C        6.18576220       7.85063966       3.79918001       0.01151339       0.00418220      -0.00846836
C        4.92886873       9.95961643       3.83062812      -0.00567402      -0.00628569       0.00261157
Fe       2.54017421       5.06250418       3.71344677      -0.01228099      -0.00620857      -0.00563118
