52
Lattice="12.336457 0.0 0.0 -6.168228499999997 10.683685154694365 0.0 0.0 0.0 15.0" Properties=species:S:1:pos:R:3:forces:R:3 energy=-439.3794274478864 free_energy=-439.3794274478864 stress="-0.0023929149725857974 -0.0023368557022812064 -2.413156788390419e-06 -0.0023368557022812064 -0.002410229956175458 2.9799022040416733e-05 -2.413156788390419e-06 2.9799022040416733e-05 -1.6378959307089095e-06" pbc="T T T"
C        0.02194251       0.00833573       3.97912349       0.00297314       0.00007227      -0.00895553
C       -1.23472958       2.13179793       3.76335345      -0.00330440      -0.00503206      -0.01101418
C       -2.47044786       4.28180456       3.92538106      -0.00297935      -0.00166652      -0.00245386
C       -3.66888773       6.42732297       4.13805976       0.00716005      -0.00032876      -0.00176360
C       -4.89846751       8.56639523       4.17378766      -0.00172606      -0.00191394       0.00239582
C        2.49222817      -0.00288375       3.88327792       0.00346260       0.00352303       0.00312027
C        1.21757709       2.02052138       3.30907696      -0.00149017       0.00265655      -0.00351653
C       -0.17936094       4.27262050       3.12888581      -0.00228072      -0.00278173       0.00508866
C       -1.24673571       6.42934806       3.67382718      -0.00241416       0.00020640       0.00194719
C       -2.42292722       8.55420525       3.99063227      -0.00235039       0.00130981       0.00189527
C        4.96043150       0.01450201       3.90421275       0.00303079       0.00023231       0.00955725
C        3.71856343       2.09251552       3.47665221      -0.00220226       0.00771208       0.01359071
S        1.28521632       6.49227425       2.53842929       0.01829086       0.00001476      -0.00045269
C        0.04068886       8.55641986       3.77116947       0.00179692      -0.00285133       0.00298196
C        7.42715473       0.01109255       3.99497340      -0.00098032       0.00746328      -0.00547602
C        6.17636085       2.17115383       3.92028395      -0.00192505      -0.00136800       0.00891341
C        4.99004744       4.38917277       3.84373338       0.00041282      -0.00045548      -0.00141793
O        3.82077642       6.48937720       4.01472509      -0.00804818      -0.00522072      -0.00260087
C        2.52256213       8.53613392       3.88667064       0.00335132      -0.00060490       0.00340828
C        9.89037335       0.00525086       4.05091663      -0.00362555      -0.00003793       0.00472761
C        8.64505744       2.14993317       4.03915614       0.00186307       0.00515554       0.00349616
C        7.41649906       4.29751581       4.13782289      -0.00381073       0.00381119       0.00777128
C        6.21218722       6.45342294       4.24703100      -0.00206667       0.00167476      -0.00369249
C        4.96688890       8.56058694       4.15173170      -0.00307075       0.00288752      -0.00527553
C        0.00355620       1.41450666       3.69827621       0.00031963       0.00005181      -0.00531442
C       -1.27704748       3.54880210       3.63584764      -0.00585040      -0.00462132      -0.00315385
C       -2.45606159       5.70877526       3.94273814       0.00414509      -0.00344760       0.00581118
C       -3.65965537       7.85061295       4.12277020      -0.00080100      -0.00202167      -0.00403800
C       -4.90533350       9.98639595       4.03278032       0.00393722      -0.00229687      -0.01054949
C        2.48141100       1.39136861       3.55371510      -0.00063540       0.00296028      -0.00380522
S        1.11004979       3.41937566       2.25374341       0.00666450      -0.00235952      -0.00346264
C       -0.14591995       5.69959889       3.18094640      -0.00615161      -0.00156068      -0.00395522
C       -1.20106832       7.84679359       3.80180873      -0.00349944       0.00274656      -0.00336547
C       -2.43416603       9.98110962       3.94831629       0.00205630       0.00089620      -0.00469677
C        4.94918479       1.44573662       3.78159057      -0.00086896      -0.00087782      -0.00021225
P        3.74541026       3.71702972       2.79346692       0.00221799       0.00635850      -0.00155293
C        1.27984480       7.90724376       3.54867763       0.00645838      -0.00570653       0.00695622
C        0.02896115       9.98731509       3.92906614       0.00236800       0.00128574      -0.00546004
C        7.40888117       1.44570770       4.01673889       0.00222778       0.00714381       0.00213809
C        6.17822700       3.60539489       3.99196869      -0.00081755      -0.00228249      -0.00324288
C        5.01334353       5.77904684       4.04623287      -0.00347944      -0.00266579       0.00270655
C        3.77347086       7.86603753       4.00970121      -0.00102759      -0.00355228       0.00380962
C        2.49672366       9.96835146       4.01908170      -0.00333445       0.00245434      -0.00184451
C        9.88512399       1.43595685       3.98288830      -0.00234181      -0.00123086      -0.00823334
C        8.64204104       3.57291672       4.06884021      -0.00438876       0.00473177       0.00511174
C        7.43681595       5.71763454       4.21322698       0.00368253       0.00451794       0.00743343
C        6.21286859       7.86671153       4.23378308      -0.00450616       0.00243618       0.00124285
C        4.95665977       9.98759596       4.08461163      -0.00070004       0.00411370       0.00606510
Fe       1.84973817       4.81121146       4.28483762      -0.01186943       0.00205943       0.00106993
O        2.71777015       4.94773225       5.89094848       0.00476234      -0.00544016      -0.00528650
O        1.86675094       3.76609299       6.12043573       0.00135651      -0.00371027       0.00501471
H        1.48320706       4.03569930       6.97412876       0.01000897      -0.01444050      -0.00146052
