50
Lattice="12.336457 0.0 0.0 -6.168228499999997 10.683685154694365 0.0 0.0 0.0 15.0" Properties=species:S:1:pos:R:3:forces:R:3 energy=-432.7940146169078 free_energy=-432.7940146169078 stress="-0.0022489681718725232 -0.002928055474213858 1.0604904666385892e-05 -0.002928055474213858 -0.0042904779721415105 -1.1308658859387766e-05 1.0604904666385892e-05 -1.1308658859387766e-05 7.626570273833863e-06" pbc="T T T"
C        0.00277489      -0.00437865       3.68969672      -0.00138248       0.00590542       0.00900359
C       -1.25560507       2.12436263       3.48884501       0.01622533       0.00559724       0.00416296
C       -2.49474266       4.27112322       3.60392559      -0.00130891      -0.00725502      -0.00529431
C       -3.68728142       6.41603170       3.81104317      -0.00105740      -0.00146464      -0.00427727
C       -4.91338199       8.54893871       3.83580045      -0.00766874       0.00497659      -0.00012159
C        2.47678889      -0.03117388       3.72111020       0.00515086       0.00127117       0.00318847
C        1.24022214       2.04776061       3.29814617       0.00319307       0.00307401      -0.00353640
C       -0.18072811       4.26643878       2.87910335      -0.00793938      -0.00027172       0.00239771
C       -1.26960988       6.42840963       3.37415076       0.00834371      -0.00869123       0.00351182
C       -2.43551201       8.54025764       3.71269078       0.00426299       0.00214972       0.00581655
C        4.95039065      -0.00400974       3.89791445       0.00335317       0.00287291       0.00976190
C        3.65522201       2.06795564       4.04316666       0.00361276      -0.00681960      -0.00465343
S        1.36941410       6.47263525       2.47229206       0.00045367      -0.01737121      -0.00292933
C        0.03432995       8.54508347       3.62410145      -0.00319476       0.01498122      -0.00522426
C        7.41184159       0.00488525       3.94104563      -0.00750072      -0.00267140       0.00072360
C        6.15402055       2.16280597       4.13484485       0.00468210      -0.00636415       0.00016931
C        5.00339757       4.40703958       4.42854862      -0.00229557       0.00695911      -0.00853110
O        3.81350886       6.50312313       4.23259046      -0.00098501       0.00702927      -0.00494147
C        2.51178684       8.53128412       3.83815620      -0.00192248      -0.00662240      -0.00585690
C        9.87600635       0.00529310       3.85763586      -0.00745499      -0.00317187      -0.00372715
C        8.62754265       2.14477056       3.88183558       0.00615949       0.00499683       0.00806701
C        7.41024425       4.29057360       4.04071262      -0.00434842       0.00415994       0.00331618
C        6.21483159       6.46127626       4.10522640      -0.00308069      -0.00407454      -0.01234301
C        4.95699811       8.56047201       3.94981893       0.00716849      -0.00859044      -0.00427736
C       -0.01117599       1.41269305       3.46918586       0.00950387       0.00794900       0.00923656
C       -1.29982998       3.53659556       3.32854298       0.00158639      -0.00055806       0.00164747
C       -2.47799428       5.69814618       3.60670835       0.00239576      -0.00990182      -0.00624070
C       -3.67566783       7.83586605       3.78524494      -0.00441803       0.00425409      -0.00005140
C       -4.92740703       9.96374937       3.72930284      -0.00089385       0.00713952      -0.00298759
C        2.45556001       1.38175753       3.67662708      -0.00196408      -0.00144881       0.01163284
S        1.32528185       3.49564352       2.31124366      -0.00474922       0.00603495       0.00007515
C       -0.15344333       5.70085568       2.92899705       0.00315911      -0.00585057      -0.00223243
C       -1.20810379       7.83766878       3.55224006       0.00481423      -0.00287558       0.00956538
C       -2.44400027       9.96076117       3.79045068       0.00876264       0.00364685       0.00222430
C        4.93093726       1.42220075       4.06234744       0.00424935      -0.00614773       0.00124075
P        3.48277996       3.65169875       4.69325134      -0.00712463      -0.00555955       0.00346043
C        1.28280792       7.89313478       3.47854670      -0.00994516       0.00691345      -0.00219995
C        0.01920844       9.97116116       3.85515714      -0.00574475       0.00835275       0.00611433
C        7.39300785       1.44092749       4.01012781       0.00455135      -0.00334895      -0.00029072
C        6.17729238       3.59865695       4.22266634      -0.00026960       0.00138366      -0.00317176
C        5.01412756       5.80593822       4.28061069      -0.00306762       0.00466918      -0.00110168
C        3.76150323       7.86090084       3.97828341       0.00342045      -0.00182978      -0.01029809
C        2.48502187       9.96716706       3.91788145      -0.01146547      -0.00554425      -0.00138447
C        9.86555278       1.43201811       3.75152389       0.00933478       0.00548678      -0.00396766
C        8.62687080       3.56651278       3.85410989      -0.00355541       0.00437901       0.00397555
C        7.42836038       5.71257244       4.00070093      -0.00265299       0.00061344       0.00442666
C        6.20312355       7.86408085       3.96910489       0.00116240      -0.00862845      -0.00578562
C        4.93946087       9.98310099       3.82908069      -0.00246831      -0.00392390       0.00240980
Fe       1.55425395       4.87562674       4.19684637      -0.00225250      -0.00185564       0.00005858
O        2.48513333       4.06129852       5.80239864      -0.00483480       0.00604524      -0.00076129
