50
Lattice="12.336457 0.0 0.0 -6.168228499999997 10.683685154694365 0.0 0.0 0.0 15.0" Properties=species:S:1:pos:R:3:forces:R:3 energy=-433.3679156275119 free_energy=-433.3679156275119 stress="-5.0669128085666164e-05 0.0007080287347679745 1.8219907451837885e-05 0.0007080287347679745 -0.007031935456883087 1.1203203510780806e-05 1.8219907451837885e-05 1.1203203510780806e-05 -1.1274198587226066e-05" pbc="T T T"
C       -0.01189516      -0.03192604       3.63535553       0.00541671      -0.00298136      -0.00662398
C       -1.22013784       2.14284991       3.66274883      -0.00262985       0.00318253       0.00066710
C       -2.43699568       4.26744313       3.90392587       0.00364606       0.00635420       0.00144652
C       -3.69457827       6.39315084       3.87778929       0.00335608       0.00654158      -0.00577405
C       -4.95684486       8.50661013       3.70202631      -0.00675279      -0.00363673      -0.00451054
C        2.44993921      -0.07924363       3.84139026       0.00781709      -0.00445733      -0.00076474
C        1.26330936       2.03366590       3.44500293      -0.00393078      -0.00636610      -0.00025520
C        0.04114168       4.34124518       3.74385172       0.00032589       0.00301717      -0.00680440
C       -1.23933010       6.42626198       4.07385346      -0.00316931      -0.00042357       0.00285784
C       -2.47637888       8.51998285       3.96194974      -0.00356775      -0.00324467       0.00047928
C        4.92562427      -0.02047716       4.00978443       0.00128785       0.01121626      -0.00253899
C        3.65466505       2.02891718       4.05639586       0.00204150      -0.00316558       0.00116881
O        1.15580852       6.50439982       3.66502422      -0.00150107      -0.00447102       0.01232967
C       -0.00828495       8.54599626       3.90377959      -0.00107081       0.00123683       0.00131521
C        7.39608776      -0.00084938       3.88370156      -0.00228170      -0.00121420      -0.00012427
C        6.15988886       2.13827092       4.00003241       0.00516512      -0.00031917       0.00353588
C        4.97027626       4.32483918       3.70552365      -0.00437779       0.00062486       0.00892001
S        3.68771069       6.36345320       2.43130724       0.00463430       0.00489525      -0.00012678
C        2.42972998       8.54280447       3.53828044       0.00542838       0.00307838      -0.00432138
C        9.85852065      -0.00297393       3.68411181       0.00033439      -0.00212683       0.00237209
C        8.64146857       2.13323434       3.86446239       0.00119642      -0.00486673       0.00101706
C        7.41684497       4.26223222       3.84574085      -0.00504977      -0.00129757      -0.00373728
C        6.20538376       6.39970670       3.47363847       0.00117121       0.00276938       0.00618686
C        4.91308465       8.53058482       3.44895996      -0.00226138       0.00420192       0.00177567
C        0.00304554       1.40051950       3.56169725      -0.00445777       0.00032545       0.00841338
C       -1.19338041       3.57368263       3.77518262       0.00495940       0.00776045      -0.00418289
C       -2.45601388       5.68679600       3.99081137       0.00081793       0.00616196      -0.00452984
C       -3.71381928       7.80855708       3.85651210      -0.00557639       0.00150150      -0.00852936
C       -4.95733691       9.92327490       3.72171720       0.00552438      -0.00526880      -0.00489169
C        2.45760641       1.32842409       3.78419499       0.00255441      -0.00336111      -0.00402378
P        1.51319002       3.68376089       2.83463803      -0.00483717      -0.00017972      -0.00345860
C        0.00087955       5.77195857       4.01891226      -0.00814249      -0.00266068      -0.00037330
C       -1.24376247       7.83135043       4.01185104      -0.00320160      -0.00186471       0.00303812
C       -2.47496067       9.93583988       3.95578664       0.00728305      -0.00111777      -0.00020123
C        4.91665237       1.41092810       4.05096965       0.00591250       0.00948703       0.00315261
P        3.37411420       3.75717332       4.20991503       0.00831242      -0.00704284      -0.00711936
C        1.18132176       7.86846625       3.67907771       0.00304875       0.00065811      -0.00046610
C       -0.00293899       9.97354049       3.94400090      -0.00493959       0.00542647      -0.00047228
C        7.39518448       1.42948734       3.93317162       0.00322204      -0.00500484      -0.00217691
C        6.16930695       3.56233302       3.88014382      -0.00745516      -0.00528412       0.00328953
C        5.03326090       5.65553821       3.26372902       0.00795712      -0.00388059      -0.00509856
C        3.67029606       7.89034480       3.23534325       0.00364709      -0.00071688      -0.00152748
C        2.45026464       9.96556465       3.72001190       0.00009662       0.00042032       0.00456880
C        9.87589632       1.42798447       3.74788390       0.00088399      -0.00327295       0.00067441
C        8.65312910       3.55341225       3.88842455       0.00012519      -0.00069023       0.00082842
C        7.42174179       5.68244106       3.74108724       0.00419935       0.00394311       0.00230913
C        6.15821228       7.81222253       3.49593610      -0.00885054       0.00260620       0.00363622
C        4.91784792       9.95873008       3.60355337       0.00229458       0.00243819      -0.00285641
Fe       1.03085450       4.61237766       5.72857063      -0.00798941      -0.01252306       0.00979373
O        2.94817609       4.29133439       5.60391258      -0.01061668       0.00359201       0.00171305
