50
Lattice="12.336457 0.0 0.0 -6.168228499999997 10.683685154694365 0.0 0.0 0.0 15.0" Properties=species:S:1:pos:R:3:forces:R:3 energy=-432.63875873877004 free_energy=-432.63875873877004 stress="-0.003742164111482139 -0.0009854659156592286 -4.7780065229581996e-05 -0.0009854659156592286 -0.005252109911150962 -7.002152287631889e-05 -4.7780065229581996e-05 -7.002152287631889e-05 9.430309283791473e-05" pbc="T T T"
C       -0.00244975      -0.00475850       4.00216043       0.00097266      -0.00493842      -0.00123421
C       -1.23672626       2.15142722       4.12419211       0.00055895      -0.00175603       0.00950865
C       -2.47698288       4.28774478       3.94273910       0.00333821       0.00476437       0.00270782
C       -3.69303654       6.42628293       3.83266475      -0.00016034       0.00385822      -0.00647998
C       -4.92735555       8.55242939       3.86794548       0.00099245      -0.00036822      -0.00811035
C        2.48245402      -0.02792884       3.88782676      -0.00617740      -0.01076582      -0.00138535
C        1.25770717       2.03545085       4.29998398      -0.00512820       0.03905251       0.00992652
C       -0.05993248       4.36775400       4.15260974       0.03568168      -0.03147384       0.01758777
C       -1.24962209       6.43280940       3.65929177      -0.00024014      -0.00258936       0.01090554
C       -2.45057884       8.55070164       3.69913860      -0.00477754      -0.00080375       0.00052361
C        4.94798314       0.01127248       3.66028499       0.00232490      -0.00700129      -0.00144082
C        3.68433219       2.13018201       3.70156610      -0.00418502       0.00926322       0.01063412
P        1.20581959       6.27483566       2.57270842      -0.00220883      -0.01170551       0.01659404
C        0.01847403       8.55884749       3.45408506      -0.00001357      -0.00201566       0.00476918
C        7.41791281       0.01404877       3.63113986       0.00149227      -0.00569212      -0.00040278
C        6.16760845       2.16476149       3.60650767       0.01791958      -0.02436324      -0.00843240
C        5.00021650       4.37299590       3.35085224       0.03705883      -0.00693415      -0.09046199
O        3.80885485       6.50852247       3.36898048      -0.01736636       0.01606266      -0.00384745
C        2.50898465       8.55323804       3.44970942      -0.00455436       0.00423981       0.00205902
C        9.87253918       0.01229415       3.82442169       0.00014063      -0.00046895       0.00017820
C        8.63826427       2.15218243       3.83491993       0.00749473      -0.00189977       0.00122043
C        7.40100602       4.29740740       3.77239472       0.03058617       0.00376400       0.00064451
C        6.18277635       6.44569356       3.80755515       0.01790055       0.01318988      -0.00035215
C        4.94622201       8.56262666       3.74253879       0.00913661       0.00848521      -0.00757397
C       -0.00597877       1.41373834       4.17428529       0.00157406       0.00617043       0.00631718
C       -1.24820492       3.58128132       4.11166405       0.00117918      -0.01046133       0.01401818
C       -2.46995312       5.71390649       3.82855134       0.00148716      -0.00128138       0.00251041
C       -3.68550953       7.84607579       3.80588620      -0.00353190       0.00213420      -0.00457476
C       -4.93282087       9.96781553       3.93003341      -0.00299879      -0.00084820      -0.00430130
C        2.47026669       1.37778294       3.98817268      -0.00388714      -0.00466354       0.01450491
P        1.38429976       3.69997842       4.82701490      -0.18457148      -0.01294595      -0.07664163
C       -0.02968946       5.70137925       3.65539838      -0.00302808      -0.00768048       0.03252322
C       -1.22432926       7.84595800       3.55528489      -0.00259903       0.00214405       0.00892642
C       -2.44973864       9.96819389       3.73446201      -0.00272258      -0.00384563       0.00004760
C        4.94304738       1.44454602       3.64438958       0.00516323      -0.00600437      -0.00114521
S        3.50687406       3.58544713       2.65867120      -0.01591461      -0.01420032      -0.05816390
C        1.25685553       7.87815291       3.26846198      -0.00249254      -0.00161196       0.00663923
C        0.01686589       9.98713866       3.57510004       0.00321998      -0.00352285       0.00144394
C        7.40714921       1.44404012       3.69183574       0.00916923      -0.00618112      -0.00232959
C        6.17833790       3.59609490       3.58755182      -0.00308519       0.01167412      -0.01331446
C        4.98151218       5.78903569       3.62263628      -0.00356741      -0.00836865       0.04360382
C        3.75882957       7.88129452       3.50563174      -0.00482990      -0.00524209       0.00204765
C        2.49043649       9.97729507       3.64163365      -0.00219665      -0.00063275      -0.00077906
C        9.87395110       1.44247592       3.94054286       0.00107760      -0.00180769       0.00426116
C        8.63453511       3.57513809       3.86630190       0.00883244      -0.00107602       0.00007880
C        7.40965819       5.71519840       3.83375781       0.00297726       0.00132204      -0.01303935
C        6.18111472       7.85905475       3.83142032       0.00510128       0.00352193      -0.01271433
C        4.93299739       9.98504928       3.86443318       0.00271940       0.00429346      -0.00360335
Fe       3.67485421       4.09201799       5.01810236      -0.06737492       0.04796454       0.35253316
O        1.89457555       4.00715102       6.25368394       0.13951294       0.02124584      -0.25638673
