51
Lattice="12.336457 0.0 0.0 -6.168228499999997 10.683685154694365 0.0 0.0 0.0 15.0" Properties=species:S:1:pos:R:3:initial_magmoms:R:1:forces:R:3 energy=-440.21585431529803 free_energy=-440.21585431529803 stress="-0.000777567392870501 -0.0020865221660148333 1.4310856560137957e-05 -0.0020865221660148333 0.004518014992025921 -9.036885972551469e-06 1.4310856560137957e-05 -9.036885972551469e-06 -4.744203604004234e-06" pbc="T T T"
C        0.00326781       0.03193060       3.79099543       0.00000000       0.00180522      -0.00185250       0.01521240
C       -1.24554108       2.15702177       3.79830030       0.00000000      -0.00531196       0.00488418      -0.00078234
C       -2.46521271       4.29343151       3.83146581       0.00000000      -0.00440078      -0.00754774       0.00716681
C       -3.68307087       6.43439613       3.85803952       0.00000000       0.01526389      -0.00221442      -0.01215978
C       -4.92101602       8.58406360       3.84317855       0.00000000      -0.00635838       0.00148663      -0.00113332
C        2.46678167       0.04807036       3.74214655       0.00000000       0.00088078      -0.00918903       0.00116632
C        1.19774891       2.17125862       3.68376807       0.00000000       0.00568100      -0.00203440       0.01343852
C       -0.03028619       4.29977809       3.80685701       0.00000000      -0.00601703       0.00675356      -0.00511188
C       -1.21431960       6.41475592       3.84839702       0.00000000      -0.00014693      -0.00520413      -0.00496669
C       -2.44665529       8.56764312       3.82402721       0.00000000      -0.00175276       0.00403436      -0.00137693
C        4.94410795       0.01304024       3.66894770       0.00000000      -0.00432625       0.01010212      -0.00132916
C        3.69103879       2.12859104       3.34023514       0.00000000       0.00556023      -0.00134680      -0.01031921
O        1.17163061       6.42566033       3.86721631       0.00000000       0.00112250      -0.01139471       0.00224713
C        0.02557029       8.53032741       3.78746214       0.00000000      -0.00479520      -0.00764351       0.00868103
C        7.41130014      -0.00856185       3.71824500       0.00000000      -0.00137123       0.00706300      -0.00604384
C        6.17290371       2.15989610       3.55850002       0.00000000      -0.00406576      -0.00036608       0.00866382
C        4.97596812       4.36754906       3.39689963       0.00000000       0.00375333       0.00314055       0.00008219
O        3.79563724       6.48163998       3.51516057       0.00000000      -0.00361171      -0.00200075       0.00902146
C        2.47459490       8.48130712       3.77697078       0.00000000       0.00487623      -0.01180665      -0.00921156
C        9.86039475      -0.00533543       3.77881821       0.00000000       0.00828763      -0.00175645       0.00460056
C        8.63007153       2.14774429       3.75208584       0.00000000       0.00092634       0.00209282      -0.00736669
C        7.40739056       4.29766468       3.73225700       0.00000000      -0.00112972      -0.00337712      -0.01011074
C        6.20582214       6.46428273       3.77007637       0.00000000       0.00237436       0.01337000      -0.00264989
C        4.94045319       8.56260292       3.79156756       0.00000000       0.00089439       0.00732794       0.00596742
C       -0.00376709       1.46495615       3.76419686       0.00000000      -0.00100565      -0.00000532       0.00703985
C       -1.23314473       3.58477480       3.81665452       0.00000000      -0.00552258       0.00431294      -0.00377509
C       -2.45229827       5.71120670       3.85610170       0.00000000       0.01068493      -0.01118367      -0.00234425
C       -3.68459936       7.86312058       3.85629278       0.00000000       0.00067888       0.00137031      -0.01151013
C       -4.92578634      10.01621627       3.80703421       0.00000000      -0.00218723      -0.00641657       0.01008051
C        2.44396590       1.47937913       3.60144199       0.00000000       0.00898859      -0.00959014      -0.00085399
O        1.15481667       3.56253294       3.79199082       0.00000000      -0.00253169       0.00533973       0.00088225
C       -0.01388233       5.69947751       3.83235834       0.00000000      -0.00063910       0.00112052      -0.00735135
C       -1.22017309       7.84141978       3.82745684       0.00000000      -0.00716122      -0.00600293      -0.00311565
C       -2.46207880      10.00176773       3.74969438       0.00000000       0.00134737       0.00420668       0.00024914
C        4.93269427       1.44308825       3.50860272       0.00000000      -0.00077257       0.00767785       0.00237335
P        3.62633548       3.68028025       2.49591125       0.00000000      -0.00281388      -0.00335669       0.00142180
C        1.21898639       7.81077829       3.81114271       0.00000000      -0.00106988      -0.01096287       0.01110679
C        0.01198936       9.97092212       3.72336986       0.00000000      -0.00736384       0.00400089      -0.00026345
C        7.40100215       1.43284170       3.67979475       0.00000000      -0.00171378       0.00813691       0.00028541
C        6.18539245       3.59058783       3.55974185       0.00000000      -0.00155844      -0.00705927       0.00311549
C        5.01799831       5.78503007       3.57299099       0.00000000       0.00642848       0.00550193      -0.00160843
C        3.74182778       7.86641680       3.74544285       0.00000000       0.00736332      -0.00176416      -0.00221666
C        2.46804543       9.93687732       3.76207038       0.00000000       0.00613843      -0.00354482       0.00215895
C        9.86763621       1.43704349       3.78405106       0.00000000      -0.00033372       0.00172998       0.00185731
C        8.63585446       3.57630208       3.78152017       0.00000000      -0.00250983      -0.00359255      -0.00576112
C        7.42620698       5.72285080       3.80300002       0.00000000       0.00529046       0.00507837      -0.01115897
C        6.19396674       7.87785981       3.81796761       0.00000000      -0.00831939       0.01324927       0.00038367
C        4.93598743       9.99296994       3.79824420       0.00000000       0.00649378       0.00138826       0.00623426
Fe       3.04827492       4.87144735       4.62746808       0.00000000      -0.00594822       0.00026764      -0.01059287
O        1.74361273       4.85681660       6.01734892       1.00000000      -0.00446170       0.00263277      -0.00781071
O        2.54121190       3.77295244       6.09085203       1.00000000      -0.00563973       0.00494406       0.01748826
