51
Lattice="12.336457 0.0 0.0 -6.168228499999997 10.683685154694365 0.0 0.0 0.0 15.0" Properties=species:S:1:pos:R:3:initial_magmoms:R:1:forces:R:3 energy=-435.0736758050747 free_energy=-435.0736758050747 stress="-0.0018083590056069306 -0.0023040692011925433 -1.263845469482521e-05 -0.0023040692011925433 -0.0019435690919484463 -4.397185270469342e-06 -1.263845469482521e-05 -4.397185270469342e-06 2.522010624274682e-05" pbc="T T T"
C       -0.00415988      -0.00276513       3.87587048       0.00000000       0.00196634      -0.00378812      -0.00078387
C       -1.26213733       2.11967950       3.66076752       0.00000000      -0.00025057       0.00150007       0.00775826
C       -2.49366320       4.27117219       3.84511942       0.00000000      -0.00109736      -0.00811417      -0.00227909
C       -3.69264681       6.41776199       4.06137041       0.00000000       0.00551050       0.00327598       0.00182743
C       -4.92324233       8.55767572       4.08772275       0.00000000      -0.00594078      -0.00485588      -0.00500123
C        2.46613643      -0.01293425       3.77614774       0.00000000       0.00120764      -0.00714505       0.00040697
C        1.19038430       2.00547011       3.18230162       0.00000000      -0.00390868       0.00256639      -0.00123748
C       -0.20277601       4.26326248       3.03906603       0.00000000       0.00043507       0.00855072       0.01645907
C       -1.26837269       6.41986741       3.61154853       0.00000000      -0.00257028      -0.00447828       0.00200177
C       -2.44910551       8.54553328       3.90603700       0.00000000      -0.00031104      -0.00289653      -0.00213692
C        4.93501305       0.00486099       3.82134562       0.00000000      -0.00448586       0.00473086       0.00826319
C        3.69300064       2.08339600       3.38987265       0.00000000       0.00345302       0.00139061       0.01527667
S        1.26578264       6.48786441       2.47247152       0.00000000      -0.00741798      -0.00845145      -0.00846182
C        0.01653746       8.54559236       3.71119986       0.00000000      -0.00371461       0.00661126      -0.00039796
C        7.40123477       0.00168741       3.92951169       0.00000000      -0.00019216       0.00828684       0.00047178
C        6.14949318       2.16187309       3.85374820       0.00000000       0.00364533       0.00268747      -0.00537543
C        4.96454871       4.38092818       3.79281343       0.00000000      -0.00085341      -0.00000975      -0.00959625
O        3.79063132       6.47649475       3.97392365       0.00000000      -0.00525163      -0.00897119       0.00575131
C        2.49660065       8.52453041       3.84416753       0.00000000       0.01057159      -0.00611551      -0.00854208
C        9.86477346      -0.00463564       3.98071696       0.00000000      -0.00156204       0.00472222      -0.01674137
C        8.61961402       2.14089712       3.96306822       0.00000000       0.00242518      -0.00014004      -0.00047888
C        7.39234384       4.28860863       4.07157088       0.00000000      -0.00031791      -0.00422915      -0.00334724
C        6.18805848       6.44542384       4.18614664       0.00000000      -0.00472683      -0.00503745      -0.00014777
C        4.94132444       8.55113236       4.09257683       0.00000000       0.00299229       0.00356537      -0.00764705
C       -0.02326892       1.40107332       3.58032896       0.00000000      -0.00214410      -0.00145363       0.00729837
C       -1.30390091       3.53730271       3.54337272       0.00000000      -0.00175965      -0.00002123      -0.00355459
C       -2.47788222       5.69886008       3.87037622       0.00000000       0.00102001      -0.00658902      -0.00187104
C       -3.68483653       7.84112175       4.03767390       0.00000000      -0.00129042       0.00347561       0.00729156
C       -4.93092785       9.97616388       3.93021584       0.00000000       0.00005976      -0.00811273      -0.00170828
C        2.45483044       1.38069880       3.44112828       0.00000000       0.00025760       0.00073899       0.00984434
S        1.09166810       3.42982848       2.15535233       0.00000000      -0.00140185       0.00606092       0.00333791
C       -0.16024435       5.69223533       3.12368204       0.00000000      -0.00360633       0.00621614       0.00028578
C       -1.22527134       7.83713329       3.73250630       0.00000000      -0.00202249      -0.00531187       0.00554378
C       -2.45999440       9.97195022       3.85315583       0.00000000       0.00018265      -0.00343664       0.01262050
C        4.92288721       1.43661816       3.70317650       0.00000000       0.00514075       0.00112443      -0.00035622
P        3.71190209       3.72193122       2.74438199       0.00000000       0.00736664      -0.00038167      -0.00096910
C        1.25660381       7.89136413       3.50413351       0.00000000      -0.00096352       0.00489267      -0.00443499
C        0.00373207       9.97721037       3.86005360       0.00000000      -0.00488365       0.01277606      -0.00337330
C        7.38271563       1.43669709       3.94739554       0.00000000       0.00240131       0.00659979       0.00520055
C        6.15306368       3.59621966       3.93006939       0.00000000      -0.00362334      -0.00228447       0.00543972
C        4.98732059       5.77109887       3.99862977       0.00000000      -0.00478204      -0.00355768      -0.00721571
C        3.74664830       7.85409771       3.96938255       0.00000000       0.01021704      -0.00825220      -0.00486173
C        2.47067357       9.95839949       3.96193287       0.00000000       0.00162109       0.00028293       0.00012229
C        9.85911751       1.42550009       3.89782869       0.00000000      -0.00012553       0.00314524      -0.00602316
C        8.61750024       3.56380387       3.99339432       0.00000000       0.00038448      -0.00643096       0.00312936
C        7.41280667       5.70902198       4.14342257       0.00000000       0.00383280      -0.00074163       0.01573784
C        6.18833161       7.85879410       4.16501128       0.00000000      -0.00579171      -0.00282257       0.00138631
C        4.93119165       9.97766519       4.00817139       0.00000000      -0.00030912       0.00587705      -0.00652479
Fe       1.75096234       4.80836115       4.24699360       0.00000000       0.00282737       0.00227330      -0.00867698
O        2.69370233       4.91356731       5.91173853       1.00000000       0.00866411       0.00870543      -0.00946190
O        2.04270842       3.76047427       5.80095576       1.00000000      -0.00087769       0.00357252      -0.00424849
