50
Lattice="12.336457 0.0 0.0 -6.168228499999997 10.683685154694365 0.0 0.0 0.0 15.0" Properties=species:S:1:pos:R:3:forces:R:3 energy=-446.56196538380425 free_energy=-446.56196538380425 stress="0.002818025857216565 0.0005062040565576583 -1.4402163639596767e-05 0.0005062040565576583 -0.008072626266171825 -2.14919427893299e-05 -1.4402163639596767e-05 -2.14919427893299e-05 6.172543471830532e-06" pbc="T T T"
C       -0.00937007      -0.01790972       3.58384271      -0.00644597      -0.00118893      -0.00288642
C       -1.22644911       2.15058189       3.65327348      -0.00072395       0.00791685       0.00096551
C       -2.46255571       4.28494233       3.70534224      -0.00514393      -0.00416039       0.00398400
C       -3.70925671       6.39862794       3.71251769      -0.00240511       0.00837197       0.00075415
C       -4.95043118       8.51940605       3.63705159       0.00443113      -0.00387543       0.00351658
C        2.46791846      -0.04848352       3.64815317      -0.00451887       0.00208942      -0.00083924
C        1.23694678       2.05274505       3.81726570      -0.00216833      -0.00127229       0.00620942
C        0.00734741       4.28699920       3.91774431       0.00157495       0.00010599       0.00262335
C       -1.19221490       6.41167227       3.77280209       0.00188252      -0.00274417      -0.00061844
C       -2.46409701       8.52424568       3.64854335       0.00199527      -0.00189417       0.00349629
C        4.93279655      -0.00166981       3.61718855       0.00007905      -0.00982155       0.00020083
C        3.69149699       2.11542109       3.84283129       0.00701926       0.00903123       0.00015160
B        1.48618645       6.43000972       3.97693198       0.00674643      -0.00246053       0.00185209
C        0.00396298       8.56030683       3.64389318      -0.00437206       0.00052514       0.00330627
C        7.39016980       0.04086309       3.52567681       0.00543060       0.00829111      -0.00652017
C        6.15664283       2.14922347       3.65256194      -0.00445315       0.00397571      -0.00129361
C        4.88828950       4.24844523       3.89829607      -0.00019122      -0.00437476      -0.00494928
B        3.44220237       6.43129686       3.93939932       0.00472786      -0.00374150      -0.00395032
C        2.46102237       8.63560244       3.59054666      -0.00280240      -0.00425225      -0.01042224
C        9.87246698       0.03936419       3.50680328       0.00356206       0.00742029      -0.00054290
C        8.63293818       2.16522379       3.57280370      -0.00250117      -0.01241176       0.00631097
C        7.38143523       4.28045693       3.70376825       0.00867182       0.00357014      -0.00106668
C        6.10942008       6.39963427       3.77217798      -0.01175298      -0.00306753      -0.00516582
C        4.91820473       8.55213241       3.60858510       0.00411686      -0.00271395      -0.00468986
C       -0.01126850       1.40357980       3.66563783      -0.00523691       0.00127098       0.00302032
C       -1.22112541       3.57140819       3.74720823      -0.00181497       0.00542205       0.00340667
C       -2.45159098       5.70369888       3.73540682      -0.00457638      -0.00030823       0.00329719
C       -3.70691095       7.81614179       3.66753381       0.00579735       0.00493665       0.00623093
C       -4.94464961       9.93849002       3.61012478      -0.00556661      -0.00387137      -0.00186786
C        2.47140368       1.36031058       3.76988578       0.00502504       0.00637108       0.00265553
B        1.27268729       3.48387391       4.12855003      -0.00081433      -0.00074457      -0.00067531
C        0.07206115       5.70645037       3.89696316       0.00567418      -0.00089902       0.00386393
C       -1.22221731       7.82831428       3.69255515      -0.00095154      -0.00132989       0.00095335
C       -2.46300645       9.94248781       3.62882793      -0.00495839      -0.00556436       0.00492777
C        4.93464803       1.41871818       3.68673632       0.00123380      -0.00491237      -0.00122954
C        3.70486029       3.49608350       4.07196800      -0.00632335       0.00927923       0.00101566
C        1.25545028       7.90118196       3.69743320      -0.00660976      -0.00542172       0.00614621
C       -0.00281296       9.98830693       3.57516989       0.00692012       0.00114254      -0.00305859
C        7.39611101       1.45524704       3.56050191      -0.00676819       0.00419679       0.00081203
C        6.15088416       3.56255754       3.72778084       0.00505664       0.00533629      -0.00018779
C        4.84626434       5.69299538       3.89985530      -0.00605633      -0.00935071      -0.00201020
C        3.66608874       7.89942903       3.65977811       0.00271237      -0.00579584      -0.00176882
C        2.46268736      10.03983474       3.49822530       0.00465389       0.00370231      -0.01144922
C        9.87272343       1.45681502       3.55210680       0.00257038       0.00443031       0.00518924
C        8.63113518       3.58238633       3.65053496       0.00141824      -0.01518366       0.00388639
C        7.37156140       5.69887057       3.73915668      -0.00466943       0.00749763      -0.00560737
C        6.14193984       7.82001068       3.67598564       0.00187258      -0.00302092      -0.00153063
C        4.92608757       9.98035372       3.54157690      -0.00300455      -0.00071899      -0.00158153
Hf       2.58788944       4.84875095       5.55966311       0.00795174      -0.00271954      -0.00116124
O        2.67851914       4.78835861       7.35276606       0.00370575       0.01293667      -0.00370323
