51
Lattice="12.336457 0.0 0.0 -6.168228499999997 10.683685154694365 0.0 0.0 0.0 15.0" Properties=species:S:1:pos:R:3:initial_magmoms:R:1:forces:R:3 energy=-448.2682200393561 free_energy=-448.2682200393561 stress="-0.0024388893712992995 -0.001961098694886681 -6.1031525586083674e-05 -0.001961098694886681 -0.008854010957261585 -1.1506179854760946e-05 -6.1031525586083674e-05 -1.1506179854760946e-05 4.555029102242419e-06" pbc="T T T"
C       -0.01723173      -0.03934383       3.38772362       0.00000000      -0.00192760      -0.00465289       0.00408273
C       -1.25367506       2.10836719       3.53379976       0.00000000      -0.00379578      -0.00356337       0.00429041
C       -2.48373484       4.24050740       3.55233601       0.00000000      -0.00199568      -0.00544914       0.00162172
C       -3.71490453       6.37525749       3.43451019       0.00000000      -0.00690197       0.00300804      -0.00298883
C       -4.94376133       8.50627576       3.34262154       0.00000000       0.00129947      -0.00561125      -0.00131299
C        2.45697091      -0.08484259       3.40308227       0.00000000      -0.00745605      -0.00165492       0.00362712
C        1.22355855       2.03917063       3.61157470       0.00000000      -0.00631114       0.00316650       0.00327129
C        0.00195137       4.23516502       3.79881581       0.00000000       0.00554247       0.00500808      -0.00743061
C       -1.26355898       6.38179737       3.64642253       0.00000000       0.00299285      -0.00660962      -0.00442890
C       -2.46803701       8.49920086       3.44792476       0.00000000       0.00267438       0.00160335       0.00006779
C        4.92158774      -0.04018447       3.58132378       0.00000000       0.00047353       0.00431929       0.00604536
C        3.64724909       1.99485059       3.84187075       0.00000000      -0.00158731       0.00623021      -0.00772915
B        1.09699372       6.45862026       4.26490458       0.00000000       0.00497601      -0.00436824       0.00971756
C       -0.01416598       8.52845498       3.71597919       0.00000000       0.00355816       0.00037920      -0.00183245
C        7.38722752      -0.01298336       3.64718535       0.00000000       0.00002209       0.00065748      -0.00636966
C        6.13071904       2.12700208       3.69498891       0.00000000       0.00519712       0.00130150       0.00591404
C        4.91549627       4.33894421       3.87510334       0.00000000       0.00336852       0.00307937      -0.01226568
N        3.87643952       6.52468256       4.26985021       0.00000000      -0.00183311       0.00086780      -0.00322843
C        2.48777498       8.54246781       3.85520130       0.00000000      -0.00378264      -0.00387664       0.00178514
C        9.85499573      -0.01471648       3.54512055       0.00000000      -0.00691133      -0.00320159       0.00517329
C        8.60912763       2.11866472       3.56641200       0.00000000      -0.00492775       0.00055921      -0.00259514
C        7.36767437       4.25412432       3.57183200       0.00000000      -0.00237224       0.00319746      -0.00357140
C        6.16630024       6.41395088       3.53992576       0.00000000       0.00199502       0.00001395      -0.00257098
C        4.93680774       8.53192816       3.55317014       0.00000000       0.00552684      -0.00040809      -0.00855895
C       -0.02118308       1.38318924       3.48605797       0.00000000      -0.00483373      -0.00469012       0.01063329
C       -1.23956557       3.52502280       3.61823829       0.00000000       0.00421678      -0.00128167       0.00994031
C       -2.48937798       5.66518668       3.52341924       0.00000000      -0.00691678      -0.00465576      -0.00275859
C       -3.70572106       7.79393362       3.37978805       0.00000000       0.00098057       0.00269722       0.00317752
C       -4.95313301       9.91943944       3.33896705       0.00000000      -0.00449238      -0.00774736       0.00269909
C        2.43807259       1.30722697       3.58724622       0.00000000      -0.00616642       0.00028227       0.00827768
B        1.35421726       3.50892396       3.92206886       0.00000000      -0.00519571       0.00230227       0.00119289
C       -0.07049754       5.65176229       3.86285680       0.00000000       0.01231098       0.00697147       0.00287868
C       -1.23765073       7.79987828       3.60882055       0.00000000       0.00357068      -0.00414627      -0.00033880
C       -2.46846634       9.91504997       3.45800426       0.00000000      -0.00092336       0.00356247      -0.00844879
C        4.91261687       1.38215160       3.71049826       0.00000000       0.00223280       0.00449675       0.00447508
P        3.32395858       3.62951972       4.32309805       0.00000000      -0.00008075       0.00972995       0.00245565
C        1.23320770       7.86830531       3.93180310       0.00000000      -0.00107944      -0.00686564      -0.00626050
C       -0.01440911       9.95023173       3.63518092       0.00000000       0.00388073       0.00228007      -0.01651356
C        7.37000806       1.41420166       3.62469930       0.00000000       0.00042050       0.00022438      -0.00391459
C        6.11917301       3.56141492       3.70157283       0.00000000       0.00346169       0.00224111       0.00442958
C        4.96179138       5.76400453       3.86175761       0.00000000       0.00420634       0.00273246      -0.00028835
C        3.74545422       7.84258668       3.88770868       0.00000000       0.00509260       0.00587290       0.00424676
C        2.46466073       9.96340351       3.66799824       0.00000000      -0.00703614      -0.00415870       0.00160795
C        9.84717992       1.40767596       3.52505173       0.00000000      -0.00702571      -0.00231262       0.00253418
C        8.60877019       3.54067621       3.54694643       0.00000000      -0.00557087      -0.00035606       0.00401309
C        7.38283448       5.67336982       3.48705318       0.00000000      -0.00394299       0.00247375      -0.00259484
C        6.15970082       7.81845953       3.45010361       0.00000000       0.00573067      -0.00301399       0.00216253
C        4.91996445       9.94875547       3.46732761       0.00000000      -0.00186817      -0.00091230       0.00498064
Hf       2.60774906       5.52874366       5.71452791       0.00000000      -0.00189028      -0.00126000      -0.01961976
O        2.74427811       5.62553624       8.90628895       1.00000000       0.01431467       0.00327681      -0.00465505
O        2.70184448       5.58451543       7.60058101       1.00000000       0.00877984      -0.00173911       0.01497461
