50
Lattice="12.336457 0.0 0.0 -6.168228499999997 10.683685154694365 0.0 0.0 0.0 15.0" Properties=species:S:1:pos:R:3:forces:R:3 energy=-444.7197877491327 free_energy=-444.7197877491327 stress="-0.0020942700649512398 -0.002098807294462467 -1.762649717330396e-05 -0.002098807294462467 -0.008853026843979376 -3.006037963169328e-05 -1.762649717330396e-05 -3.006037963169328e-05 3.0061983003800386e-06" pbc="T T T"
C       -0.01450650      -0.02900691       3.42550831       0.00586814      -0.00394603       0.00281857
C       -1.24944913       2.12193111       3.56310008      -0.00631389      -0.00701193       0.00156879
C       -2.47776087       4.25434871       3.59850861       0.00060364       0.00017710      -0.00357290
C       -3.70835984       6.38926105       3.49370102      -0.00135074       0.00832828      -0.00860601
C       -4.93740764       8.51840316       3.39925387      -0.00475703       0.00521387      -0.00710244
C        2.46109525      -0.07422758       3.43759556       0.01146310       0.00026203      -0.00648662
C        1.22678586       2.04784195       3.61162548      -0.00753410       0.00135558       0.00105315
C        0.01004264       4.24865059       3.82231115      -0.00285309       0.00001872       0.00488404
C       -1.25757377       6.39537735       3.71401531      -0.00065432       0.00267286       0.01144053
C       -2.46162609       8.51277513       3.50754129      -0.00059549      -0.00503555      -0.00292119
C        4.92560070      -0.02453419       3.62667118      -0.00783677       0.00079114       0.00299919
C        3.64767621       2.01552345       3.85623853      -0.00042495       0.00115685       0.00452990
B        1.08424489       6.48043763       4.35692548       0.00613515      -0.00154923       0.00578899
C       -0.01046676       8.54438365       3.79335248       0.00087494       0.00183488      -0.00750574
C        7.39068725       0.00166543       3.70330546      -0.00333171      -0.00052814       0.00214234
C        6.13337481       2.14300838       3.73484679       0.00569287      -0.00834836       0.00674873
C        4.91705512       4.35265317       3.91290790      -0.00817403      -0.00260498      -0.00303516
N        3.88140480       6.53638601       4.32969385       0.00556033       0.00152301      -0.00392222
C        2.49199533       8.56019967       3.93976548       0.00096177       0.00306542      -0.00411119
C        9.85828290      -0.00151651       3.60031850      -0.00068414       0.00523507       0.00064637
C        8.61246347       2.13324884       3.61199016       0.00430455      -0.00432913      -0.00056976
C        7.37230617       4.26951086       3.62009403       0.00059329      -0.00841466       0.00573899
C        6.17360778       6.42945452       3.60351374       0.00065120      -0.00289477      -0.00791321
C        4.94250423       8.54557954       3.61693457      -0.00296655       0.00271258       0.00168727
C       -0.01854716       1.39432692       3.50592419      -0.00677284      -0.00543966       0.00326666
C       -1.23163200       3.53970387       3.65015855      -0.00262040      -0.00635484       0.00611650
C       -2.48257474       5.67879161       3.57964976      -0.00148286       0.00511629      -0.00167782
C       -3.69887874       7.80704283       3.43879826      -0.00612086       0.00844545       0.00676125
C       -4.94970956       9.93039546       3.38333601       0.01115048       0.00265643      -0.00837909
C        2.44195157       1.31916330       3.59962009      -0.00185632       0.00138128       0.00800225
B        1.36165527       3.51816204       3.89863539       0.00256152       0.00478604      -0.00242653
C       -0.06357408       5.66438718       3.92727085       0.00129873       0.00286189       0.00472967
C       -1.23236609       7.81380943       3.67887891       0.00108725       0.00043910      -0.00130925
C       -2.46315614       9.92854128       3.50442748       0.00256706      -0.00833238      -0.00167536
C        4.91470025       1.39954523       3.74413053      -0.00104540       0.00043998       0.00176380
P        3.31962394       3.65152891       4.33460590       0.00028699       0.00300310      -0.00781813
C        1.23579032       7.88596550       4.02494253       0.00306290       0.00020958       0.00121300
C       -0.01016683       9.96518207       3.69232878      -0.00864244       0.00394798       0.00512359
C        7.37299310       1.42932729       3.67101152       0.00833174      -0.00572257       0.00056760
C        6.12079714       3.57850898       3.74534391      -0.00541952      -0.00789218       0.00309388
C        4.96415156       5.78437804       3.92294221       0.00050211      -0.00016578      -0.00170668
C        3.75374000       7.85300601       3.96537407      -0.00047403      -0.00057625      -0.00188933
C        2.46815453       9.97588546       3.73651415      -0.00021177       0.00568401       0.00229748
C        9.85054092       1.42111301       3.56934376      -0.00312493      -0.00113734      -0.00367193
C        8.61309812       3.55540542       3.59364342       0.00348203      -0.00613231      -0.00150799
C        7.38861679       5.68875482       3.54370071       0.00325627      -0.00439933      -0.00639910
C        6.16601397       7.83262397       3.51161784      -0.00521295       0.00032813      -0.00986941
C        4.92303218       9.96071240       3.51982529       0.00092197       0.00374944       0.00775911
Hf       2.60502373       5.50401572       5.87732340       0.00427742      -0.00196183       0.00835257
O        2.90680100       5.19003873       7.60741396       0.00496567       0.01538114      -0.00701721
