50
Lattice="12.336457 0.0 0.0 -6.168228499999997 10.683685154694365 0.0 0.0 0.0 15.0" Properties=species:S:1:pos:R:3:forces:R:3 energy=-444.76722758336024 free_energy=-444.76722758336024 stress="0.00406540564408418 0.0012906968701383978 -1.535843134192935e-05 0.0012906968701383978 -0.005456638758871262 3.688586668543337e-05 -1.535843134192935e-05 3.688586668543337e-05 2.355721972511949e-05" pbc="T T T"
C        0.01213074      -0.00951660       3.53938485       0.00621042      -0.00086475      -0.01231694
C       -1.19516707       2.15927069       3.59684483       0.00095933       0.00531310       0.00590920
C       -2.41887648       4.27661325       3.60838389       0.00090552      -0.00795199      -0.00595853
C       -3.68344233       6.39486238       3.54740147      -0.00451658       0.01729761      -0.00013725
C       -4.93348247       8.52098865       3.56041599      -0.00322964       0.00004201       0.00394584
C        2.47829347      -0.06044736       3.44030377      -0.00314076      -0.00755576      -0.00234601
C        1.27797102       2.07708304       3.54243115      -0.00267735       0.00270239       0.00402788
C        0.12060347       4.30940921       3.78640190       0.00614842       0.01171605       0.00528869
C       -1.21192151       6.42451850       3.59626690      -0.00249720      -0.00258702       0.00204539
C       -2.45252991       8.52498803       3.47580446       0.00031397       0.00307851       0.00436980
C        4.94430758      -0.00811595       3.51634353      -0.00457622       0.00382381       0.00016340
C        3.68537282       2.08543522       3.63770880       0.00173954       0.00363505      -0.00747321
N        1.10187244       6.51620312       4.24695685       0.00936091      -0.01241601       0.00046689
C        0.00579002       8.55653034       3.67666614      -0.00274823       0.00071871      -0.00584145
C        7.41060150       0.02065029       3.63003333       0.00000373       0.00789025       0.00425918
C        6.16801856       2.14709433       3.60499998       0.00416744      -0.00119273       0.00274653
C        4.86483345       4.26335762       3.84656015      -0.00078455       0.00370544      -0.00676504
P        3.80536981       6.44408184       5.04783111       0.00766821       0.00424839       0.00758522
C        2.45706301       8.58986973       3.99395154      -0.00955337      -0.01092322       0.00500202
C        9.88254601       0.02281593       3.66431867       0.00215308       0.00258145       0.00320165
C        8.65353426       2.15356060       3.59287385      -0.00421604      -0.00718555       0.00550912
C        7.39793618       4.26790265       3.62595915       0.00385840      -0.00440923       0.00461782
C        6.19984088       6.40771706       3.81149824      -0.00054031      -0.00261793       0.00091029
C        4.95262381       8.57409700       3.86639715       0.00589378      -0.00028998       0.00334691
C        0.02541267       1.42261635       3.53522205      -0.00268072       0.00125248      -0.00170976
C       -1.15193437       3.58628003       3.65260824       0.01087802       0.00615377       0.00118518
C       -2.43731473       5.69503566       3.56308000      -0.00889479      -0.00241235       0.00078788
C       -3.69136988       7.81306290       3.50698455      -0.00236866       0.01700200       0.00159443
C       -4.93240368       9.93875730       3.49076415      -0.00034869      -0.00674945      -0.00014368
C        2.48411428       1.34731018       3.51271037      -0.00072864      -0.00205731      -0.00765221
B        1.52810445       3.55318373       3.77340515      -0.01018162       0.00415545      -0.00778802
C        0.01744059       5.76507567       3.83363099       0.00575261       0.00727311      -0.00703818
C       -1.21525050       7.83556460       3.56339429      -0.00101918      -0.00002850      -0.00434779
C       -2.44837374       9.94168999       3.45896497      -0.00341400      -0.00301933       0.00572120
C        4.93570707       1.42220563       3.57967380       0.00494180       0.00291132      -0.00082820
B        3.42492743       3.57441382       3.89634891      -0.00338262      -0.00000565      -0.00518672
C        1.20141413       7.85868761       3.98483715      -0.00878271      -0.01643475      -0.00153527
C        0.01003463       9.97946232       3.59315409      -0.00148843       0.00890709      -0.00236556
C        7.41032675       1.44366423       3.58991129      -0.00015008       0.00237760       0.00461700
C        6.13362633       3.56421834       3.67080254       0.00060872      -0.00130690       0.00263419
C        5.01403259       5.65816052       4.07587513      -0.00366385       0.00393781       0.00123227
C        3.71424784       7.95429153       4.19980271      -0.00056831       0.00170865       0.00185987
C        2.47141643       9.99593695       3.74234413      -0.00295450      -0.00288976       0.00440324
C        9.89508444       1.44813864       3.60118823      -0.00245478       0.00347791       0.00652826
C        8.65694644       3.57342121       3.59601621      -0.00009857      -0.01254158       0.00167873
C        7.41821780       5.68858031       3.63608029       0.00216948       0.00210304       0.00063578
C        6.17740349       7.83071864       3.76564029       0.00300672      -0.00417048       0.00824754
C        4.94835477       9.98639716       3.66900481       0.00774165       0.00106651      -0.00796990
Hf       1.89040080       4.91456573       5.68200590       0.00558348      -0.00432833      -0.00420859
O        1.80720643       4.63472146       7.43633949       0.00159520      -0.01514089      -0.01290910
