49
Lattice="12.336457 0.0 0.0 -6.168228499999997 10.683685154694365 0.0 0.0 0.0 15.0" Properties=species:S:1:pos:R:3:forces:R:3 energy=-441.7794911450756 free_energy=-441.7794911450756 stress="-0.006473906653688051 -0.0002826584880132267 -6.436114007021994e-06 -0.0002826584880132267 -0.0040086555436423974 -4.707952865323912e-06 -6.436114007021994e-06 -4.707952865323912e-06 -2.2289680930309307e-07" pbc="T T T"
C        0.00508280      -0.00090661       3.68921239       0.00413299      -0.00317661       0.01007955
C       -1.23202634       2.12225789       3.64956607      -0.00305870       0.00397291      -0.00159840
C       -2.46292957       4.25847990       3.49752102      -0.00926694      -0.00208379      -0.00488218
C       -3.69757792       6.40455898       3.46619586       0.00086955      -0.00190170       0.00282117
C       -4.92566890       8.54949831       3.56263940       0.00979827      -0.00020251       0.01597752
C        2.46762354      -0.01497620       3.72156920      -0.00934381      -0.00171055      -0.00793941
C        1.22823660       2.15587659       3.95544126       0.00454534      -0.00440303       0.00393202
C       -0.01462655       4.25588448       3.71106855       0.00563810       0.00286300      -0.01044716
C       -1.24960926       6.40829016       3.41820974      -0.00466987      -0.00745631      -0.01070148
C       -2.46587702       8.54489352       3.49109116      -0.00644969       0.00429225       0.00355931
C        4.94783609      -0.02663990       3.69607442      -0.00633851      -0.00474233      -0.01582141
C        3.71551524       1.99793324       4.16775167      -0.00474316       0.00317261      -0.01693360
C        1.18489777       6.40826890       3.64843141       0.00479365       0.00270110       0.01369194
C        0.00309587       8.53415975       3.51787318      -0.00021911      -0.00735180      -0.00671109
C        7.41247981      -0.02062289       3.64586001       0.00871874       0.00979070      -0.00426290
C        6.18839496       2.11584830       3.82751330      -0.00123112       0.00091273       0.01433808
C        5.07607115       4.32303117       4.13021355       0.00081250      -0.01053841       0.00973306
C        3.75248873       6.41854005       4.19420060      -0.00692397       0.00458791      -0.00047843
C        2.47962823       8.52740816       3.72716723       0.00073112      -0.00710266       0.00084057
C        9.87470416      -0.01664247       3.66277050      -0.00255003       0.00332299       0.00693546
C        8.64345750       2.11955907       3.61299408      -0.00038860       0.00491294      -0.01717467
C        7.42844804       4.26585074       3.63421651       0.01092573      -0.00308107       0.01033085
C        6.20452232       6.42557914       3.71199223      -0.00529273       0.00371684       0.00021845
C        4.94837390       8.53795275       3.73646137       0.00103882       0.00935034       0.00266781
C        0.00415422       1.42427808       3.75716176       0.00174930      -0.00310525       0.00373112
C       -1.24199614       3.53841219       3.57590369      -0.00575912       0.00692610      -0.00500025
C       -2.47145557       5.68833975       3.43892244      -0.00591493      -0.00776136      -0.00468337
C       -3.69793033       7.83344682       3.48197418       0.00466194      -0.00175745       0.00875990
C       -4.93112337       9.96641266       3.64239456       0.00250545      -0.00437227      -0.00141780
C        2.45759027       1.38530208       3.96313125      -0.00418944      -0.00755817       0.00364950
C        1.16044821       3.57875096       4.09829323       0.01043103       0.00139433      -0.00637621
C       -0.02258922       5.69559240       3.55597919       0.00579984       0.00313143      -0.00427056
C       -1.23178032       7.82985794       3.45230919      -0.00842990      -0.00443748      -0.00907961
C       -2.46292653       9.96069770       3.62734854      -0.01334414       0.00203291       0.00650926
C        4.96307391       1.38013368       3.90444575      -0.00438660      -0.00429117       0.00232920
P        3.63329431       3.60418841       4.74989801       0.00582921       0.01335320       0.00114902
C        1.24184691       7.81421870       3.60676369       0.00403419      -0.00629897      -0.00405007
C        0.00972096       9.94975857       3.60731097       0.00457787      -0.00180911       0.00025766
C        7.40969372       1.40554270       3.68261763       0.00270520       0.01204299      -0.00437464
C        6.21957686       3.54762799       3.85126907       0.01140311      -0.00501044       0.00932826
C        4.99065272       5.74096654       4.01588130      -0.01259747      -0.00474504      -0.00326867
C        3.71139932       7.80424094       3.89208271       0.00220810       0.00416167      -0.00331928
C        2.47650639       9.95147126       3.66245137       0.00297363      -0.00454296      -0.00275864
C        9.87226534       1.40514215       3.62302142      -0.00515028       0.00511648       0.00318721
C        8.64619786       3.54785466       3.55706862       0.00127066      -0.00378869      -0.00273567
C        7.41633531       5.69425304       3.58327862       0.00100085      -0.00113585       0.01017562
C        6.18337770       7.83943606       3.65446715       0.00342231       0.00844891       0.00363889
C        4.94265909       9.95729860       3.68287198      -0.00058993       0.00695868       0.00161046
Hf       2.08586054       5.34124219       5.21183851       0.00426054      -0.00279802      -0.00116639
