51
Lattice="12.336457 0.0 0.0 -6.168228499999997 10.683685154694365 0.0 0.0 0.0 15.0" Properties=species:S:1:pos:R:3:initial_magmoms:R:1:forces:R:3 energy=-453.2193091669899 free_energy=-453.2193091669899 stress="-0.005519380578729709 2.1230161834576937e-05 3.444882384338263e-05 2.1230161834576937e-05 -0.003031913627034303 -1.2741795217066432e-05 3.444882384338263e-05 -1.2741795217066432e-05 9.639993209792018e-06" pbc="T T T"
C        0.02237477      -0.01828049       3.60856777       0.00000000      -0.00098097       0.00153696       0.00339155
C       -1.21438878       2.10372857       3.57887192       0.00000000       0.00735478      -0.00173588       0.00710343
C       -2.44610488       4.24070856       3.43722798       0.00000000       0.00225996       0.00510559       0.00298846
C       -3.68682318       6.38591726       3.39516297       0.00000000       0.00185026      -0.00450986      -0.00335310
C       -4.91156479       8.53090366       3.48693060       0.00000000       0.00385093      -0.00231022      -0.00536347
C        2.48469470      -0.02331636       3.61140693       0.00000000       0.00271655      -0.00570339       0.00103589
C        1.24706730       2.13598843       3.91664042       0.00000000       0.00237497      -0.00091025       0.00791373
C        0.00535801       4.23261680       3.75025141       0.00000000      -0.00270734      -0.00685476       0.00374802
C       -1.23913368       6.39123392       3.38500659       0.00000000       0.00772179       0.00487778      -0.00212799
C       -2.45562181       8.53134951       3.37502260       0.00000000       0.00183721      -0.00477035       0.00439613
C        4.96088938      -0.03642725       3.55018502       0.00000000       0.00600521       0.00209551      -0.00381875
C        3.74483976       1.98162875       4.12418873       0.00000000      -0.01032491       0.00425039       0.00292334
C        1.16449045       6.42486965       3.73867720       0.00000000      -0.01044089       0.00200418      -0.00936107
C        0.01207532       8.52253163       3.42873782       0.00000000      -0.00016970       0.00147746      -0.00617542
C        7.42984350      -0.03810235       3.52358887       0.00000000       0.00202288      -0.00402113      -0.00367876
C        6.21017349       2.09550035       3.74838726       0.00000000      -0.00599665      -0.00429294      -0.00722969
C        5.09816064       4.28353673       4.19323426       0.00000000      -0.00051790      -0.00383543      -0.00700250
C        3.79813542       6.42252122       4.23856791       0.00000000      -0.00004900      -0.00203598       0.00327142
C        2.49670908       8.51113468       3.68784984       0.00000000       0.00172121      -0.00144123      -0.00679940
C        9.89315888      -0.03544556       3.56760621       0.00000000      -0.00124319      -0.00167823       0.01084439
C        8.66190331       2.10159886       3.50867636       0.00000000       0.00228895      -0.00194830      -0.00035451
C        7.44271069       4.24603157       3.58066429       0.00000000      -0.00456764       0.00621621      -0.00096874
C        6.21650924       6.40032677       3.69814609       0.00000000      -0.00551161       0.00956614       0.00010841
C        4.96733253       8.51906077       3.69037306       0.00000000      -0.00007086       0.00424654      -0.00364956
C        0.02086442       1.40519790       3.69015751       0.00000000       0.00724630       0.00187522       0.00249579
C       -1.22505145       3.52256466       3.54780614       0.00000000       0.00094504      -0.00315939      -0.00964368
C       -2.45874850       5.67048303       3.37701203       0.00000000       0.00913865       0.00529682       0.00505876
C       -3.68586737       7.81536676       3.39262646       0.00000000       0.00241369      -0.00736996       0.00818761
C       -4.91401566       9.95111394       3.55148980       0.00000000      -0.00127257      -0.00161364      -0.00324499
C        2.48229979       1.37278188       3.89376663       0.00000000      -0.00131584      -0.00086173      -0.00553918
C        1.17274214       3.53543942       4.12572957       0.00000000      -0.00046319      -0.00144798      -0.00274407
C       -0.01092463       5.68543170       3.60324634       0.00000000      -0.00411838      -0.00551645       0.00593607
C       -1.22236702       7.81457367       3.36333856       0.00000000       0.00261998       0.00231699      -0.00676617
C       -2.45029775       9.95056491       3.49184606       0.00000000       0.00728933      -0.00475904       0.01117632
C        4.98234196       1.36322841       3.79914655       0.00000000      -0.00768455       0.00141724       0.00472562
P        3.78695899       3.46789414       5.01313696       0.00000000      -0.01049720       0.00683959      -0.00796265
C        1.24811297       7.80614301       3.58698153       0.00000000      -0.00482749       0.00281837       0.00047448
C        0.02356872       9.93803533       3.47295792       0.00000000       0.00476106      -0.00171819       0.00797445
C        7.42842459       1.38761567       3.56811761       0.00000000      -0.00093585      -0.00458685       0.00454762
C        6.23810096       3.52658576       3.82608452       0.00000000      -0.00068628      -0.00335258      -0.00146666
C        5.00420777       5.71552110       4.04982113       0.00000000       0.00226680       0.00005013       0.00970170
C        3.73385968       7.78373875       3.87963028       0.00000000       0.00174756       0.00113321       0.00364438
C        2.49451828       9.93101284       3.57059167       0.00000000       0.00036545      -0.00258052      -0.00727120
C        9.89019041       1.38635746       3.52267728       0.00000000       0.00661758      -0.00308561       0.00789077
C        8.66184499       3.52976496       3.47700579       0.00000000      -0.00227454       0.00442840      -0.00947740
C        7.42845796       5.67434585       3.53816067       0.00000000      -0.00580123       0.00744199       0.00229268
C        6.19918550       7.81590781       3.61165931       0.00000000       0.00048251       0.00776942      -0.00606879
C        4.95992968       9.93846107       3.60592333       0.00000000      -0.00146010       0.00184975      -0.00297854
Hf       2.11103856       5.29172758       5.26289802       0.00000000       0.00860230      -0.00480243      -0.00241891
O        1.48692380       5.89867870       8.32726715       1.00000000      -0.00594022       0.00305520      -0.01397358
O        1.71859027       5.66861645       7.05644838       1.00000000      -0.00664284       0.00323322       0.01760782
