53
Lattice="12.336457 0.0 0.0 -6.168228499999997 10.683685154694365 0.0 0.0 0.0 15.0" Properties=species:S:1:pos:R:3:forces:R:3 energy=-462.1688229512519 free_energy=-462.1688229512519 stress="-0.0025317084944783976 -0.0007649722181507586 1.4397277533643385e-05 -0.0007649722181507586 -0.004207914494126296 -2.8537806676029768e-05 1.4397277533643385e-05 -2.8537806676029768e-05 1.5462739015215507e-05" pbc="T T T"
C        0.12105237       0.05752742       3.75677093       0.00215006      -0.00188128      -0.00634323
C       -1.12536867       2.18365926       3.58341315       0.00527571      -0.00828546       0.00352109
C       -2.36314498       4.32378999       3.54685155       0.00305998      -0.00369829       0.00496699
C       -3.58561229       6.46557440       3.71869325      -0.00121982       0.00076603       0.00162547
C       -4.81961101       8.59793015       3.86214802      -0.01158099       0.00860793       0.00494400
C        2.58507953       0.05003076       3.71965374       0.00241732      -0.00948469       0.00788169
C        1.35134354       2.16234091       3.56916572      -0.00748413      -0.00857696       0.00285290
C        0.10231302       4.28559501       3.32618265      -0.00251519       0.00068052       0.00207419
C       -1.14266948       6.48012531       3.45556137       0.00260633       0.00915342      -0.00396245
C       -2.35502660       8.60562659       3.67922250      -0.00251174      -0.00694929       0.00851673
C        5.05151084       0.05721888       3.76066579       0.00169117       0.01040679       0.00672263
C        3.81270615       2.19990191       3.79256878      -0.00014816      -0.00109446       0.00222503
C        2.55192451       4.29031912       3.83239341       0.00317496       0.00583674      -0.00174999
P        1.54778843       6.58569901       2.62220574       0.00752358      -0.00323187      -0.00212696
C        0.11421648       8.60157005       3.74118301       0.00010898       0.00240530      -0.00607381
C        7.51641595       0.06675510       3.83690068      -0.00452240      -0.00135470       0.00284668
C        6.28009127       2.19629983       3.80924392       0.01317279       0.00394341       0.01107903
C        5.05475750       4.33093956       4.08654936       0.00477839      -0.00367521      -0.00506831
S        3.92365764       6.53541089       5.35148010      -0.00086824      -0.01155010       0.01126629
C        2.61247874       8.64644767       4.12874892      -0.00387684      -0.00387921      -0.00881960
C        9.99187041       0.07209146       3.86135581       0.00819000       0.00442569      -0.00063205
C        8.74700861       2.19526662       3.71921101      -0.00304934       0.00802541       0.00614139
C        7.51598099       4.32968615       3.81329890      -0.00742752       0.00289400       0.00332074
C        6.30987426       6.46920684       4.11979234       0.00298468      -0.00205056      -0.00120640
C        5.08405192       8.63743406       4.14049241       0.00351021      -0.00028588       0.00261031
C        0.11610150       1.47138556       3.61589179      -0.00251546      -0.01058316      -0.00720452
C       -1.13876301       3.59783637       3.44613393       0.00211724      -0.01096359       0.00344002
C       -2.36139447       5.75396463       3.55601213       0.00452184       0.00293638       0.00239354
C       -3.58301602       7.88968585       3.74746015      -0.01459591       0.00365999       0.00232283
C       -4.81607668      10.02526079       3.77389369      -0.00360118       0.00482313      -0.00318087
C        2.58422992       1.47530616       3.69083043      -0.00385831      -0.00828266      -0.00223076
C        1.35530694       3.59829137       3.52190327      -0.00172533      -0.00296407       0.00071840
C        0.09577609       5.73772665       3.25857982      -0.00788951       0.00357037      -0.01156140
C       -1.11302977       7.89308300       3.59570224       0.00379568       0.00557120       0.00303287
C       -2.35016050      10.02595030       3.72414353       0.00599521      -0.00727722       0.00441860
C        5.04573397       1.48340781       3.79663524       0.01128596       0.01175019      -0.00148064
C        3.79732634       3.63335604       3.92357423       0.00078181      -0.00205304       0.00602136
C        1.38340902       7.87581113       3.87724204      -0.00686989      -0.00784890      -0.00775574
C        0.11747584      10.02737124       3.79625386      -0.00441826       0.00292681       0.00122875
C        7.51291758       1.48578115       3.78415111       0.00340260      -0.00020883       0.00008691
C        6.28415735       3.61966694       3.88935118       0.00075407       0.00013144      -0.00218042
C        5.14393643       5.71195163       4.41922896       0.00735168      -0.00299137       0.00156143
C        3.84441687       8.02145350       4.44209392       0.00025845      -0.00295753      -0.00945314
C        2.58936908      10.05727138       3.94873550       0.00151543       0.00064476      -0.00621061
C        9.98391555       1.48390094       3.71049379       0.00063956       0.00558249       0.00013420
C        8.74575644       3.61736991       3.68098072      -0.00749054       0.00695555      -0.00495028
C        7.52473557       5.75435418       3.86698389      -0.00011029      -0.00243891      -0.00092488
C        6.29849323       7.89609242       4.07952025       0.00022742      -0.00137809       0.00443367
C        5.06200698      10.04620332       3.90297326       0.00897345      -0.00050339       0.00085741
Hf       1.50153896       5.70794267       5.06879807      -0.00139814       0.00115012      -0.00634010
O        0.40225815       4.95563679       6.34951018      -0.00670036       0.00360819      -0.01753128
O       -0.49045663       4.26411957       7.16360983      -0.01510447       0.00604274       0.00749866
H       -0.26906345       4.58582726       8.06330718       0.00921746       0.00995015      -0.00375637
