52
Lattice="12.336457 0.0 0.0 -6.168228499999997 10.683685154694365 0.0 0.0 0.0 15.0" Properties=species:S:1:pos:R:3:initial_magmoms:R:1:forces:R:3 energy=-457.59162649666274 free_energy=-457.59162649666274 stress="-0.0022647958258419612 -0.0009025713637144568 -1.201424598285928e-05 -0.0009025713637144568 -0.003846403546495225 1.7146504735073504e-06 -1.201424598285928e-05 1.7146504735073504e-06 -4.1827211967124005e-06" pbc="T T T"
C        0.08879874       0.00934004       3.68831926       0.00000000      -0.00410250      -0.00354872      -0.00313325
C       -1.15877393       2.13462054       3.51471354       0.00000000       0.00207396      -0.00270448      -0.00615151
C       -2.39803876       4.27575943       3.47093562       0.00000000      -0.00634327       0.00598775       0.00626695
C       -3.61989336       6.41781961       3.64769006       0.00000000      -0.00047491       0.00627993       0.00428556
C       -4.85179596       8.55049345       3.80508467       0.00000000       0.00021189       0.00028735      -0.00953013
C        2.55235562       0.00192131       3.67145756       0.00000000       0.00033842       0.00652270       0.00029850
C        1.31801817       2.11452221       3.51593369       0.00000000       0.00386472       0.00620946       0.00319768
C        0.07040264       4.23903598       3.25730716       0.00000000      -0.00341877       0.00054412      -0.00038033
C       -1.17813213       6.43327124       3.34566659       0.00000000       0.00101914      -0.00414258      -0.00297732
C       -2.38888748       8.55866408       3.61513166       0.00000000      -0.00168055      -0.00268801      -0.00368477
C        5.01765604       0.01073065       3.71549571       0.00000000      -0.00045162      -0.00250385      -0.00080776
C        3.77747683       2.15281636       3.75875824       0.00000000       0.00264419       0.00099798       0.00218246
C        2.51345013       4.24050665       3.80209478       0.00000000       0.00548431       0.00372011       0.00046066
P        1.51124659       6.54025300       2.51939553       0.00000000      -0.00214429      -0.01247834      -0.00714751
C        0.07788407       8.55479890       3.66394015       0.00000000      -0.00304038      -0.00076478      -0.00312132
C        7.48302773       0.01829611       3.77821016       0.00000000       0.00333814      -0.00170079       0.00027946
C        6.24642091       2.14979493       3.77193047       0.00000000       0.00012505       0.00018231       0.00496487
C        5.02034477       4.28565605       4.05812273       0.00000000      -0.00475023      -0.00333693      -0.00466216
S        3.90695548       6.51013791       5.32577065       0.00000000       0.00652559      -0.01113324      -0.00199740
C        2.58214755       8.59587656       4.05396402       0.00000000       0.00095461       0.00364402      -0.00484798
C        9.95964754       0.02293578       3.78793523       0.00000000      -0.00695335       0.00359271       0.00464260
C        8.71288067       2.14777181       3.66082882       0.00000000       0.00082558      -0.00482846      -0.00080815
C        7.48116443       4.28228432       3.76183895       0.00000000       0.00354928      -0.00353730       0.00687852
C        6.27930482       6.42229610       4.07256354       0.00000000       0.00068641      -0.00506792      -0.01001912
C        5.05306629       8.58964175       4.06937594       0.00000000      -0.00156548       0.00451104       0.00825825
C        0.08311544       1.42315196       3.54892593       0.00000000       0.00537701      -0.00270960       0.00039699
C       -1.17183666       3.54944768       3.37758717       0.00000000      -0.00677914       0.00218520      -0.00520260
C       -2.39663522       5.70660775       3.46775824       0.00000000      -0.00368628       0.00606192      -0.00220989
C       -3.61632151       7.84227671       3.68480466       0.00000000       0.00005510       0.00275019       0.00151908
C       -4.84853163       9.97769741       3.71594314       0.00000000       0.00065674       0.00172425      -0.00469925
C        2.55054834       1.42754610       3.64540271       0.00000000       0.00194081       0.00733406       0.00918661
C        1.32284718       3.55198974       3.47415703       0.00000000       0.00149212       0.00616647       0.00142516
C        0.05602331       5.68866614       3.13785138       0.00000000       0.00561507       0.00262627      -0.00423487
C       -1.14667747       7.84760761       3.50750952       0.00000000      -0.00413119      -0.00626481       0.00082137
C       -2.38283932       9.97826201       3.67590043       0.00000000      -0.00222850      -0.00106330      -0.00704425
C        5.01162746       1.43721756       3.76107007       0.00000000       0.00083542      -0.00170113      -0.00440094
C        3.75994333       3.58707019       3.89501067       0.00000000      -0.00083149      -0.00361146       0.00702068
C        1.35102833       7.82395667       3.79123989       0.00000000      -0.00233764       0.00386512       0.00583787
C        0.08322465       9.97916191       3.73705716       0.00000000       0.00136907       0.00001641      -0.00128644
C        7.47912562       1.43815852       3.73496592       0.00000000       0.00058406      -0.00333620      -0.00297342
C        6.24946622       3.57324698       3.85296733       0.00000000      -0.00173251       0.00152387      -0.00233416
C        5.11453867       5.66830390       4.38596142       0.00000000      -0.00085452      -0.00551162      -0.00377964
C        3.81405313       7.97413279       4.37379545       0.00000000       0.00146133       0.00774772       0.00783973
C        2.55719297      10.00668218       3.87757149       0.00000000       0.00015389       0.00087072      -0.00347095
C        9.94994992       1.43542828       3.64203792       0.00000000       0.00082390       0.00015967       0.00904506
C        8.71021158       3.56981552       3.61727261       0.00000000       0.00083989      -0.00383120       0.00555008
C        7.49151902       5.70695053       3.81165747       0.00000000       0.00530052      -0.00220127       0.00155450
C        6.26752905       7.84869410       4.02129426       0.00000000       0.00136124      -0.00135410       0.00305169
C        5.03005147       9.99749314       3.82839664       0.00000000      -0.00989163       0.00374307       0.00232366
Hf       1.47455833       5.75455786       4.97108341       0.00000000       0.00718946       0.00091358       0.00674097
O       -0.99307726       5.03098737       6.72024503       1.00000000       0.00002580       0.00356075      -0.00351213
O        0.11131702       5.34973131       6.12963821       1.00000000       0.00067555      -0.00370861       0.00038830
