52
Lattice="12.336457 0.0 0.0 -6.168228499999997 10.683685154694365 0.0 0.0 0.0 15.0" Properties=species:S:1:pos:R:3:forces:R:3 energy=-457.8071100144736 free_energy=-457.8071100144736 stress="-0.005486926015726055 -5.127342295157524e-05 4.554764137165202e-05 -5.127342295157524e-05 -0.002930785783128736 2.8267361826208845e-05 4.554764137165202e-05 2.8267361826208845e-05 6.909518413130179e-06" pbc="T T T"
C        0.04851351      -0.04130988       3.68666189      -0.00424938      -0.00603380       0.00796477
C       -1.18904926       2.07951486       3.64987847       0.00120167      -0.00465788       0.00326976
C       -2.42252397       4.21571403       3.49680475       0.00295808       0.00445976      -0.00097563
C       -3.66241143       6.36064232       3.45859744       0.00305537       0.00328582       0.00724398
C       -4.88563537       8.50634864       3.55968423       0.00010366       0.00444992       0.00343742
C        2.51028950      -0.04895925       3.70472949       0.00632078       0.00686987      -0.00170836
C        1.27290641       2.11251390       3.99552780       0.00045386       0.00190925      -0.00333567
C        0.03067030       4.20733271       3.79241490      -0.00225329      -0.00144609       0.00532623
C       -1.21477692       6.36602185       3.43473853       0.00548288       0.00693064      -0.00568452
C       -2.43018478       8.50606355       3.45136441       0.00243092      -0.00079870       0.00345883
C        4.98572619      -0.06173355       3.63589096       0.00517246       0.00343550      -0.00258877
C        3.77079756       1.95638984       4.22398485       0.00430296       0.00878635       0.00095890
C        1.19667965       6.39479370       3.73246702      -0.01087766       0.00233509       0.00434991
C        0.03782994       8.49848154       3.47891683       0.00045021       0.00205045       0.00358276
C        7.45429660      -0.06167884       3.58837901       0.00204258      -0.00561673       0.00720958
C        6.23427355       2.07084232       3.82858745       0.00221732      -0.00536359      -0.00413932
C        5.12407087       4.25947710       4.27848053      -0.00285063      -0.00656853      -0.00117162
C        3.82403928       6.40079261       4.28509472       0.00142711      -0.00087612      -0.00670090
C        2.52308781       8.48678999       3.72720476      -0.00280091       0.00302850       0.00325098
C        9.91811559      -0.05839731       3.63775174       0.00381245      -0.00334128      -0.00485164
C        8.68596279       2.07760320       3.57661315       0.00105776      -0.00516007       0.01246955
C        7.46587702       4.22111948       3.64651157      -0.00299832       0.00380544       0.00815321
C        6.24169368       6.37547993       3.76307950      -0.00496728       0.00442814       0.00596188
C        4.99320861       8.49677949       3.74818583      -0.00255775      -0.00250473       0.00492494
C        0.04695533       1.38190962       3.76878621      -0.00017798      -0.00634222      -0.00229258
C       -1.20072663       3.49758795       3.60421784       0.00161328      -0.00221553       0.00099608
C       -2.43471005       5.64540416       3.43629205       0.00740794       0.00813605      -0.00189018
C       -3.66037655       7.79013428       3.46466694       0.00068097       0.00041939       0.00496210
C       -4.88817810       9.92662882       3.63427324       0.00252645       0.00489203      -0.00655206
C        2.50795674       1.34824944       3.98823954       0.00444916       0.01010663      -0.00397444
C        1.19852401       3.51563544       4.17833693       0.00274554      -0.00004670       0.00078768
C        0.01481705       5.65831700       3.63176556      -0.00483974      -0.00264691      -0.00565138
C       -1.19697387       7.78967898       3.42210698       0.00324462       0.00496874      -0.00225914
C       -2.42510626       9.92444242       3.58218638       0.00633256       0.00233081      -0.00782064
C        5.00669358       1.33763414       3.88972108       0.00241360       0.00405360       0.00050511
P        3.83075971       3.43731652       5.13085198      -0.00688316       0.00461620      -0.00516389
C        1.27578467       7.78090508       3.61403502      -0.00280939       0.00004747      -0.00266329
C        0.04818497       9.91378006       3.54142872       0.00197457      -0.00085593       0.00304738
C        7.45223724       1.36379507       3.64011048       0.00167217      -0.00900592      -0.00002068
C        6.26258482       3.50227536       3.90276605      -0.00142064      -0.00591111       0.00130530
C        5.03109399       5.69060111       4.11825819      -0.00226691      -0.00553437       0.00134989
C        3.75963070       7.76178605       3.92520537      -0.00235954      -0.00009692      -0.00095978
C        2.51952663       9.90813692       3.62892023       0.00378662       0.00045069      -0.01140894
C        9.91502849       1.36295746       3.59555834       0.00325775      -0.00379600      -0.00344000
C        8.68528873       3.50529957       3.54135543      -0.00084232       0.00151394      -0.00765835
C        7.45292126       5.64924364       3.60205531      -0.00415546       0.00764011       0.00649822
C        6.22477588       7.79177601       3.67566831      -0.00304280       0.00439157      -0.00398037
C        4.98577349       9.91657099       3.67490658      -0.00318063      -0.00656683      -0.00728933
Hf       2.13624531       5.28624011       5.26249015      -0.00147804      -0.00957005       0.00255097
O        1.66169491       5.84648933       6.97446456      -0.00935664      -0.01634322       0.00180163
O        1.25322343       6.31812537       8.22963788      -0.00167400      -0.00437587       0.00693289
H        1.92109744       5.93232891       8.83315162      -0.00655286       0.00633311      -0.00811844
