50
Lattice="12.336457 0.0 0.0 -6.168228499999997 10.683685154694365 0.0 0.0 0.0 15.0" Properties=species:S:1:pos:R:3:forces:R:3 energy=-438.93247479962895 free_energy=-438.93247479962895 stress="-0.0007286020913808414 0.004248990095697686 -2.6894520850505612e-05 0.004248990095697686 -0.0005543323033071413 1.4927376748998382e-05 -2.6894520850505612e-05 1.4927376748998382e-05 1.6325654803132383e-06" pbc="T T T"
C        0.04459238       0.01886388       3.78376526      -0.00795304      -0.00756268       0.00646031
C       -1.15232521       2.17360168       4.08706724       0.00208997      -0.00487841      -0.00162689
C       -2.43127159       4.28418358       4.31613218      -0.00514356      -0.00142681      -0.00765289
C       -3.69010425       6.41746563       4.10849821       0.00034765       0.00242372       0.00059791
C       -4.92914736       8.53721249       3.84806275       0.00434654       0.00303846      -0.00036304
C        2.49949902      -0.02554082       3.71077739       0.00047302       0.00403069      -0.00163158
C        1.30442109       2.10396576       3.45423940       0.00313977      -0.00558791      -0.00338655
C       -0.02512428       4.37620067       4.74161612       0.00776694       0.00221658      -0.00292631
C       -1.27773909       6.47558143       4.42309780       0.00071427       0.00256158      -0.00760408
C       -2.46588710       8.56620913       4.08375851      -0.00206750      -0.00435817      -0.00117576
C        4.97848065      -0.01394465       3.85185682      -0.00153722      -0.00569422       0.00741248
C        3.79693498       1.99152321       3.17500768      -0.00020013       0.00507382       0.00346522
N        1.14543528       6.43539589       4.15645732       0.00172377       0.01084281       0.00261745
C        0.01505583       8.54644764       4.15256718       0.00742816       0.00407322       0.00486949
C        7.44849720      -0.01026608       3.99743207       0.00521916      -0.00179434       0.00308447
C        6.25342722       2.10504872       3.64245495      -0.00307556       0.00141200       0.00449542
C        5.19372191       4.25109278       3.04686832       0.00201071       0.00387415      -0.01115332
S        3.62767734       6.36179852       2.71466652      -0.00887391       0.01049567       0.00372260
C        2.47953888       8.52333717       3.88249491       0.00446137       0.00271730      -0.00192474
C        9.91853333       0.00458938       3.94990047      -0.00887493      -0.00313034       0.00273852
C        8.70175543       2.13676004       4.04240934       0.00065885      -0.00615754      -0.00370292
C        7.47899988       4.26205204       3.85441887       0.00194440       0.00315469       0.00507717
C        6.23821033       6.40291485       3.58990251       0.00073337       0.00176502       0.00347852
C        4.95300005       8.54564249       3.67279030      -0.00226706      -0.00137266       0.00125053
C        0.09301977       1.47858156       3.77361019       0.00795991      -0.00927805       0.00775238
C       -1.19716788       3.57497083       4.39983247       0.00263697       0.00246302       0.00156881
C       -2.46965531       5.71496311       4.33358518      -0.00448504       0.00364545      -0.00474416
C       -3.69630298       7.84055987       4.02886277       0.00070654      -0.00168724      -0.00888750
C       -4.90982333       9.97108651       3.78286469      -0.00108577       0.00169913       0.00421694
C        2.50167289       1.39482161       3.42761696       0.00366812       0.00154812       0.00378252
S        0.46210481       4.66353848       1.45864773      -0.00998222       0.00651384      -0.00332372
C       -0.03944200       5.81490809       4.47855375       0.00209022       0.00073644      -0.01153116
C       -1.24182639       7.87462888       4.24866819       0.00163271       0.00554029       0.00145749
C       -2.44199471       9.97500601       3.88072297      -0.00347408      -0.00462933       0.00360682
C        5.01488292       1.38516979       3.56189690      -0.00220119      -0.00538849      -0.00820130
S        3.88467028       3.42982117       2.21537445      -0.00546281      -0.00436567      -0.00156922
C        1.22663754       7.80384523       4.05929399       0.00714146       0.00308957      -0.00521975
C        0.03836912       9.96684348       4.01735765       0.00644890      -0.00170391       0.00005817
C        7.46054341       1.41611935       3.91561663       0.00066150      -0.00258084      -0.00506105
C        6.30006325       3.52091609       3.51902292       0.00119934       0.00554741      -0.00044666
C        5.13522257       5.64100045       3.14733615      -0.00491206       0.00495193       0.00129327
C        3.69422122       7.88470920       3.53131254       0.00011309      -0.00059273       0.00188039
C        2.51008188       9.95971797       3.98455805       0.00021845      -0.00500678       0.01388168
C        9.94419369       1.43991031       4.05096155       0.00111059      -0.00514814       0.00424642
C        8.69488486       3.55930591       4.09166288      -0.00030675      -0.00470064      -0.01166095
C        7.45021569       5.68975762       3.87050140       0.00449145       0.00302465      -0.00502019
C        6.18483094       7.82659873       3.68817465       0.00349924       0.00375756       0.00254820
C        4.97641900       9.98310367       3.82577935      -0.01353734      -0.00543335       0.01007521
Hf       1.76310693       4.48762747       3.24581936       0.00006656      -0.00173800      -0.00133063
O        1.10341091       3.89468520       5.19843554      -0.00126281      -0.00598087       0.00450595
