52
Lattice="12.336457 0.0 0.0 -6.168228499999997 10.683685154694365 0.0 0.0 0.0 15.0" Properties=species:S:1:pos:R:3:forces:R:3 energy=-446.500435732464 free_energy=-446.500435732464 stress="-0.0025245271973640187 0.004110673465971339 -1.4628281914416954e-05 0.004110673465971339 -0.0009225261444830667 2.4591113034335478e-05 -1.4628281914416954e-05 2.4591113034335478e-05 -2.090688668442214e-06" pbc="T T T"
C       -0.03357077       0.02498557       3.96369935      -0.00478033      -0.00211584       0.00520956
C       -1.25241025       2.16770868       4.20575732      -0.00341498      -0.00108016       0.00505903
C       -2.52806362       4.30203048       4.27145125      -0.00095388      -0.00280935      -0.00304806
C       -3.76860487       6.43131456       4.05396318       0.00373999       0.00403930      -0.00145176
C       -5.00488674       8.55241237       3.88146013       0.00062722      -0.00476838      -0.00119306
C        2.42421845      -0.00358970       3.82225022      -0.00068139      -0.00806901      -0.00078903
C        1.24803672       2.12778637       3.91213993       0.00298816       0.00644141       0.00555343
C       -0.12635650       4.37902409       4.54637061       0.01363408      -0.00141119      -0.00626864
C       -1.35429941       6.48362464       4.38406525      -0.00270931       0.00161000      -0.00102025
C       -2.53886507       8.57541402       4.07562828      -0.00263843      -0.00177967       0.00228248
C        4.90227815       0.00276019       3.87971820       0.00429247       0.00076103      -0.00226042
C        3.70487301       2.02395884       3.29048770      -0.00080694       0.00889946      -0.00276473
N        1.07323964       6.46918321       4.36951546       0.00221759      -0.00291145      -0.00826972
C       -0.06355934       8.56347860       4.19227190      -0.00224794      -0.00087701       0.00183792
C        7.36767160       0.00274578       4.04903766       0.00652156       0.01011065      -0.00526120
C        6.17540481       2.11817751       3.62989706      -0.00306651       0.00163828       0.00252437
C        5.12381976       4.26703442       2.98877723       0.00076861       0.00356198       0.00034028
S        3.54493530       6.41015413       2.73444636       0.00369714      -0.00231142      -0.00312247
C        2.40812212       8.53585903       3.99843251      -0.00116516      -0.00017859      -0.00035569
C        9.83723862       0.00939163       4.06917315      -0.00320823       0.00221751      -0.00267027
C        8.61567082       2.14735381       4.05813321       0.00034225      -0.00206401       0.00324065
C        7.39939727       4.27462024       3.79499496       0.00058311      -0.00087282       0.00098955
C        6.16324718       6.42106987       3.55294141      -0.00202345      -0.00174723       0.00355239
C        4.87744329       8.55684627       3.76776411       0.00385664       0.00167276      -0.00883676
C        0.00940029       1.47641504       4.03706147      -0.00129213      -0.00193049       0.00871667
C       -1.28000586       3.60117847       4.38538545       0.00534088       0.00329325      -0.00833505
C       -2.54969509       5.72967824       4.26858323      -0.00030211      -0.00142988      -0.00000070
C       -3.77002863       7.85305711       4.00944608       0.00099561       0.00040653      -0.00075362
C       -4.98607912       9.98607769       3.89723471      -0.00312091      -0.00717263       0.00634647
C        2.43230088       1.43188243       3.66777751      -0.00262890      -0.00270848      -0.00356384
S        1.00405715       4.50173720       1.80099281      -0.00634709      -0.00345087      -0.00091262
C       -0.11725174       5.79274579       4.48213167      -0.00024080       0.00583266      -0.00396524
C       -1.31633928       7.88035424       4.24002102      -0.00478350       0.00175740      -0.00424574
C       -2.51517794       9.98755915       3.91503202       0.00356665      -0.00373254       0.01367897
C        4.93575591       1.40227902       3.59143220      -0.00404384       0.00678221       0.01098756
S        3.76673517       3.42532778       2.25151678       0.00642799      -0.00169351      -0.00056740
C        1.15088127       7.81904121       4.18777914      -0.00228456      -0.00167970      -0.00328974
C       -0.04014866       9.97989198       4.05048047       0.00666327       0.00248895       0.00058742
C        7.37891131       1.42909496       3.92851018       0.00232506       0.00664852       0.00050981
C        6.22252254       3.53337573       3.46439477      -0.00149836       0.00086464      -0.00115262
C        5.06534771       5.66291355       3.10229950      -0.00409110       0.00324795      -0.00545379
C        3.62290269       7.89745489       3.63088448       0.00174264       0.00244267      -0.00114256
C        2.42954907       9.96851108       4.08252468       0.00045799       0.00294998      -0.00354231
C        9.85341699       1.44379345       4.13649947      -0.00305434      -0.00016617       0.00170742
C        8.61089607       3.57333910       4.05893577      -0.00373905      -0.00492080       0.00751708
C        7.37517055       5.70329067       3.81077571       0.00090139       0.00173347       0.00472639
C        6.10946386       7.84159641       3.71776946       0.00266875      -0.00313215      -0.00991299
C        4.89788089       9.98967973       3.96572754      -0.00544471       0.00219979      -0.00415165
Hf       1.93904333       4.43047141       3.95425507      -0.01148108       0.00326974       0.01143796
O        3.47294963       3.99309993       5.23991046       0.00236237       0.00357286      -0.00300966
O        2.41187693       4.53489792       6.15609999      -0.00115569      -0.01696829       0.00363582
H        2.34466943       3.81940554       6.81442787       0.00648331      -0.00646137       0.00087040
