52
Lattice="12.336457 0.0 0.0 -6.168228499999997 10.683685154694365 0.0 0.0 0.0 15.0" Properties=species:S:1:pos:R:3:forces:R:3 energy=-440.14614492123155 free_energy=-440.14614492123155 stress="-0.0008186443001744082 -0.0038414883032164586 -1.7538029019225882e-05 -0.0038414883032164586 -0.0014422006134168915 5.485793149039431e-05 -1.7538029019225882e-05 5.485793149039431e-05 2.6964014778799872e-05" pbc="T T T"
C        0.00405087      -0.01827333       3.76011702      -0.00221059       0.00084034       0.00134720
C       -1.24836120       2.11708498       3.73494131      -0.00147586      -0.00338330       0.00489906
C       -2.46072643       4.26465370       3.74693958       0.00171038      -0.00015115      -0.00467748
C       -3.67415489       6.40346969       3.77256435      -0.00023665       0.00298321      -0.00392449
C       -4.91012043       8.54245453       3.80261797      -0.00098873       0.00168477      -0.00621334
C        2.46646513       0.00157494       3.74222046       0.00873155       0.00104448      -0.00001351
C        1.18424116       2.10664202       3.73113804       0.00033210       0.00093536       0.00382592
C       -0.01782541       4.19722519       3.89023978       0.00559116      -0.00344691      -0.00824507
C       -1.18893548       6.36809242       3.85758166      -0.00316412      -0.00229464      -0.00760777
C       -2.44142988       8.53018917       3.80520618      -0.00527110      -0.00554722       0.00362045
C        4.93206731      -0.00359593       3.69586138       0.00818936       0.00134004      -0.00786051
C        3.67112015       2.08793678       3.36996633      -0.00104108       0.00808407       0.00457481
B        1.30328305       6.38462523       4.16744116       0.00658639      -0.00370663       0.00693035
C        0.01425552       8.54194984       3.88060169       0.00029320       0.00687898      -0.00583178
C        7.39539373       0.00579236       3.74158159       0.00184049       0.00337169      -0.00533354
C        6.14907905       2.14736737       3.52502632      -0.00263169      -0.00628357      -0.00021006
C        4.98681801       4.33301510       3.42155414      -0.00222642       0.00145104      -0.00175390
C        3.73502706       6.41265927       4.06498537      -0.01075892      -0.01204632       0.00193851
C        2.47745258       8.56221944       3.94702975       0.00504476       0.00690490      -0.00103605
C        9.86726415      -0.00639865       3.76700059      -0.00897922       0.00072639       0.00460913
C        8.62463128       2.13563381       3.67293878      -0.00534977       0.00240938       0.00620558
C        7.41342364       4.28119705       3.65494190      -0.01031019       0.00175055       0.00039217
C        6.19395012       6.42355819       3.76204832       0.00549884      -0.00292832       0.00382308
C        4.95125822       8.53960345       3.84014948       0.00447567      -0.00233573       0.00569810
C       -0.01099155       1.40947569       3.73444592      -0.00136289      -0.00081709       0.00171203
C       -1.23731097       3.52976679       3.77280634       0.00460225      -0.00407893      -0.00007657
C       -2.44064554       5.68167322       3.78506588      -0.00350264       0.00113413      -0.00414751
C       -3.67577430       7.82655163       3.79764629      -0.00732540      -0.00126398       0.00403097
C       -4.92620044       9.96589426       3.78454046       0.00265467       0.00286384       0.00282983
C        2.43712009       1.43070239       3.63440057       0.00248865       0.00691748       0.00798884
O        1.14512869       3.45918077       3.99435868       0.00494473      -0.00048346      -0.00537335
C        0.02948645       5.60909648       3.93981869      -0.00261496      -0.00222683      -0.00028096
C       -1.20365435       7.80605124       3.85277715      -0.00403640      -0.00125894      -0.00575987
C       -2.46064380       9.96370859       3.75366284       0.00949134      -0.00336834       0.00395229
C        4.91495507       1.42974575       3.52586647      -0.00206720       0.00134922       0.00121943
S        3.60258430       3.66666038       2.67389072       0.00387873       0.00955430       0.00118306
C        1.25826222       7.86305077       3.99894511       0.00314959       0.01018646       0.00240234
C        0.00010450       9.97240392       3.77404799       0.00619676       0.00868729       0.00377757
C        7.38147093       1.43289162       3.64143728      -0.00118382      -0.00253484       0.00019899
C        6.16979932       3.57426007       3.52453768      -0.00825216      -0.00743707       0.00229960
C        4.93494817       5.73259429       3.73798381       0.00176632      -0.00037149      -0.00224578
C        3.70976244       7.81197296       3.94948177       0.00340889      -0.00438201       0.00815778
C        2.46719316       9.97937734       3.81651626      -0.00462002       0.00591907      -0.00548255
C        9.86233843       1.41733628       3.71607671      -0.00494287      -0.00108546       0.00658547
C        8.63748364       3.55908113       3.68480488      -0.00639074       0.00543009      -0.00076099
C        7.42208854       5.70211949       3.72408234       0.00444984       0.00305237      -0.00684482
C        6.19048708       7.84036277       3.81188402       0.00531301      -0.00287594       0.00792699
C        4.93632061       9.95741073       3.78981317      -0.00554568       0.00142543       0.00314652
Hg       2.60718375       5.50228946       5.64990906      -0.00509885      -0.00471304      -0.01531140
O        2.45089934       4.57831168       7.50963406       0.01320178      -0.00541580      -0.00780603
O        2.41783488       5.72429419       8.43937646      -0.00666267      -0.00032483       0.00034203
H        3.26691627       5.55433752       8.88839849       0.00441020      -0.01216304       0.00117921
