50
Lattice="12.336457 0.0 0.0 -6.168228499999997 10.683685154694365 0.0 0.0 0.0 15.0" Properties=species:S:1:pos:R:3:forces:R:3 energy=-426.6328778198027 free_energy=-426.6328778198027 stress="-0.0025534027873493647 -0.0023932365866833724 1.611630285922636e-05 -0.0023932365866833724 -0.005047761758211153 3.1677375666071095e-05 1.611630285922636e-05 3.1677375666071095e-05 -1.8118472354121073e-05" pbc="T T T"
C        0.00275389      -0.03820812       3.49849655       0.00484453      -0.01251325       0.00154512
C       -1.23914318       2.11046477       3.39702769       0.00640603      -0.00023760       0.00120801
C       -2.47372419       4.25065243       3.60843524      -0.00361717       0.01259335      -0.00963288
C       -3.68627363       6.39004374       3.70865389      -0.00781063       0.00158458      -0.00344378
C       -4.91386286       8.52124633       3.63495494       0.00241293       0.00127824       0.00468931
C        2.47944038      -0.05666164       3.54702622      -0.00039174      -0.00084364       0.00234127
C        1.23972815       2.03730774       3.20743448       0.00001877      -0.00728985      -0.01493582
C       -0.05662789       4.27877495       3.30438659       0.00482937      -0.00407498      -0.00129756
C       -1.22302582       6.37856880       3.74318473       0.00116950       0.00325496      -0.00167704
C       -2.44238468       8.51106790       3.71027553      -0.00435297       0.00403724      -0.00865996
C        4.94032660      -0.02499696       3.74318678       0.00388572       0.00266199      -0.00277725
C        3.66558507       2.05676481       3.78054485       0.00076716      -0.00677469      -0.00489822
B        1.18060481       6.40339494       4.21158729      -0.00752122       0.00007493      -0.01465040
C        0.01669362       8.53021273       3.85574175       0.00463897      -0.00665217      -0.00667702
C        7.40631562      -0.01055593       3.78471051      -0.00250243       0.00487914      -0.00530239
C        6.15064483       2.13549294       3.84986448       0.00241225       0.01039945      -0.00015159
C        4.99572105       4.33894965       4.07441427      -0.01128777       0.00540263      -0.00273639
N        3.77077549       6.44410140       4.14751765      -0.00557880      -0.01009093       0.00699162
C        2.49630686       8.53680988       3.91685670       0.00473532      -0.00442273      -0.00200729
C        9.87525445      -0.01832790       3.65192778      -0.00755810       0.00912155       0.00571621
C        8.63075222       2.12223454       3.67287299       0.00433003       0.00496397      -0.00187692
C        7.40690381       4.26749025       3.78970663      -0.00350967      -0.01240193       0.00094505
C        6.19568466       6.42262434       3.81868881       0.00908527       0.00337523       0.00458238
C        4.95558434       8.52682562       3.74879377      -0.00247527       0.00551987       0.00074014
C       -0.00359614       1.38868057       3.34637401       0.00598765      -0.01225265       0.00667823
C       -1.24925779       3.52892237       3.42218461      -0.00165174       0.00369431      -0.00575671
C       -2.46110940       5.67327324       3.68290703      -0.00414221       0.01265783      -0.00358956
C       -3.67933708       7.80900819       3.67899548      -0.00431047       0.00169129       0.00737069
C       -4.92812298       9.93385369       3.53919399       0.00605238      -0.00561872       0.00060363
C        2.46462435       1.35955988       3.48374832      -0.00377010      -0.00432799       0.00092715
S        1.28197743       3.59881545       2.46896573       0.01406811       0.00856404      -0.00621653
C       -0.00295179       5.63647468       3.69990933       0.00013023      -0.00517189       0.00156356
C       -1.20890304       7.80161533       3.79525628      -0.00216283       0.00202552       0.00616720
C       -2.44909528       9.93286115       3.67051510      -0.00018256       0.00494730       0.00414432
C        4.92325147       1.41265409       3.80313312       0.00646016       0.00376784      -0.00251480
S        3.47559385       3.65373156       4.35936841      -0.01214901      -0.00975597       0.00339695
C        1.26526285       7.85529333       3.97671996       0.00707019      -0.00680621       0.00051722
C        0.00866805       9.95803494       3.79716692       0.00119925      -0.00352820      -0.00032094
C        7.38820327       1.42006705       3.76745618       0.00337042       0.00919285       0.00933131
C        6.16020592       3.56659971       3.90358349      -0.01039399       0.00500289       0.00201028
C        4.95306022       5.76159316       4.01615852       0.00220373       0.00633230       0.00522091
C        3.73979350       7.78841068       3.93768976       0.00182036      -0.01026540       0.00397883
C        2.48278524       9.95641594       3.78498481      -0.00441854       0.00073789      -0.00289176
C        9.87057748       1.40769079       3.56617072       0.00227993       0.00748093      -0.00392702
C        8.63060243       3.54390068       3.68533130       0.00263614       0.00080214      -0.00243342
C        7.41241813       5.68706377       3.76481821       0.00109294      -0.01258577       0.00335450
C        6.18972084       7.82958529       3.72005340       0.00165161       0.00682751       0.00028791
C        4.93750889       9.94296686       3.62360493      -0.00593930       0.00735735       0.01049102
Hg       2.18753221       5.82988923       6.06164041      -0.00250618      -0.00647843       0.01782463
O        1.88678942       5.61928292       8.05396740       0.00267378      -0.00813611      -0.00425221
