50
Lattice="12.336457 0.0 0.0 -6.168228499999997 10.683685154694365 0.0 0.0 0.0 15.0" Properties=species:S:1:pos:R:3:forces:R:3 energy=-434.31498351369845 free_energy=-434.31498351369845 stress="0.0007077666806842107 -0.0007560470482404353 2.01890553387869e-06 -0.0007560470482404353 0.0020644633526540838 7.85759292167288e-07 2.01890553387869e-06 7.85759292167288e-07 4.111839901336183e-06" pbc="T T T"
C        0.01411703       0.01067270       3.66428504      -0.00944896       0.00545990       0.00197846
C       -1.23618055       2.13454502       3.64056233       0.00685729      -0.00107338       0.00506248
C       -2.46685351       4.27624456       3.62652912       0.01033733       0.00225079      -0.00279555
C       -3.69259707       6.41703381       3.63076211       0.00379220      -0.00107863      -0.00541605
C       -4.91789093       8.56133694       3.65519883       0.00074880      -0.00497634      -0.00650396
C        2.48464036       0.05270202       3.67798272       0.00595481      -0.00440292       0.00189263
C        1.22658727       2.20159885       3.73029856       0.00527730      -0.00298937      -0.00343685
C        0.01534621       4.22121105       3.75602337      -0.00520458      -0.00380457      -0.00275619
C       -1.20520369       6.39617389       3.71517405      -0.00592210      -0.00308915       0.00482816
C       -2.45178249       8.55390050       3.67783221       0.00894624      -0.00075521       0.00027205
C        4.93856634       0.01009550       3.69545846       0.00977218       0.00809550       0.00005759
C        3.73887309       2.15782284       3.68992982      -0.00465896       0.00167031       0.00541197
B        1.29484711       6.39496654       4.04201533       0.00270535      -0.00671716       0.00213019
C        0.01306195       8.55280683       3.78431796      -0.00617239       0.00268247       0.00765723
C        7.41020459       0.00665077       3.72028259      -0.00020979      -0.00355923      -0.00754001
C        6.17328002       2.14518588       3.65958901      -0.00804815      -0.00014359       0.00537704
C        4.95016768       4.25329193       3.71241537      -0.00374026      -0.00341797       0.00272147
C        3.71761051       6.40346118       4.03790316       0.00095943       0.00588797       0.00548139
C        2.48466423       8.56092141       3.87152443       0.00232810       0.00421318       0.00008092
C        9.87937048       0.00116413       3.69460569      -0.00066189      -0.00517210       0.00027169
C        8.63728492       2.14201288       3.63514754       0.00237471       0.00319428       0.00023474
C        7.40124514       4.28642264       3.62402306      -0.00295962       0.01188869      -0.00176025
C        6.15609870       6.40517945       3.66614273      -0.00819799      -0.00173290      -0.00150036
C        4.94940613       8.54218165       3.73530134       0.00622081      -0.00163429       0.00536091
C        0.00646634       1.43493741       3.66546143       0.00433444       0.00365782      -0.00269699
C       -1.24731811       3.54727035       3.65208618       0.00399959      -0.00351007       0.00533385
C       -2.46147326       5.70128357       3.64334211       0.00200710      -0.00187294      -0.00198450
C       -3.68827330       7.84471557       3.64982751       0.00694151      -0.00254500      -0.01182724
C       -4.91440297       9.99358032       3.66511923      -0.00686012       0.00045068       0.00035022
C        2.49528345       1.48961515       3.70070138       0.00202790      -0.00379114       0.00002421
N        1.16894863       3.53731907       3.84485104      -0.00889962      -0.00570516      -0.01679148
C        0.01180665       5.65890025       3.80134756      -0.01019274      -0.00492008      -0.00598871
C       -1.21590141       7.83420191       3.72280185      -0.00209243      -0.00477092       0.01866196
C       -2.46015805       9.99215909       3.68254249       0.01531821       0.00198280       0.00315186
C        4.93929673       1.44200929       3.68057153      -0.00717362       0.00446772       0.00109862
O        3.78135353       3.53595146       3.68892315      -0.00062023      -0.00337931       0.00525499
C        1.25909418       7.87475923       3.89825878      -0.00176735       0.00915518      -0.00436315
C        0.00756999       9.98071456       3.73239778       0.00126092       0.00162235      -0.00697077
C        7.40016195       1.43406002       3.66491210      -0.00416895      -0.00250237      -0.00600419
C        6.16228257       3.56933807       3.65485507      -0.00218471       0.00142940       0.01051494
C        4.89460197       5.68427421       3.76254731      -0.00944066      -0.00349181      -0.00534880
C        3.71129513       7.80114997       3.87800628       0.00574404       0.00484660       0.00327158
C        2.48039815       9.97987711       3.75795677      -0.00011595       0.00061088       0.00329469
C        9.86937485       1.42300385       3.64329565       0.00662368      -0.00349957       0.00584205
C        8.63153470       3.56774680       3.61519823       0.00414291       0.01186592      -0.00302974
C        7.39559347       5.70646520       3.62498435      -0.00427049       0.01018987      -0.00587780
C        6.17828678       7.83503163       3.67594477       0.00050978      -0.00700998       0.00228645
C        4.94555978       9.96745052       3.69178009      -0.00356635      -0.00368902      -0.00041866
Hg       2.55961314       5.45935924       5.58477547      -0.00476202      -0.00043460      -0.00514807
O        1.95551952       4.55304777       7.30332172       0.00215529       0.00004652       0.00025495
