51
Lattice="12.336457 0.0 0.0 -6.168228499999997 10.683685154694365 0.0 0.0 0.0 15.0" Properties=species:S:1:pos:R:3:initial_magmoms:R:1:forces:R:3 energy=-438.47098915163116 free_energy=-438.47098915163116 stress="0.0011728564797537878 -0.0010024436501097319 1.7556301401080715e-05 -0.0010024436501097319 0.0023222620758522623 8.109592724497593e-06 1.7556301401080715e-05 8.109592724497593e-06 1.827771054836254e-05" pbc="T T T"
C        0.00175486       0.04725044       3.61864274       0.00000000       0.00546427      -0.00252548       0.00262162
C       -1.24647406       2.17445091       3.59480754       0.00000000       0.00519546      -0.00416669      -0.00917289
C       -2.47954346       4.32047951       3.56532143       0.00000000      -0.00641201      -0.00016453      -0.00121546
C       -3.70646212       6.45934549       3.56558409       0.00000000      -0.00483604      -0.00704610       0.00864207
C       -4.93085383       8.60001113       3.59620197       0.00000000       0.00904758      -0.00038231       0.00714322
C        2.46520227       0.09424106       3.61993264       0.00000000      -0.00284052      -0.00187821       0.00544506
C        1.19386318       2.19296370       3.64764626       0.00000000       0.00395765       0.00188062       0.00525185
C       -0.03287050       4.26453503       3.68048937       0.00000000       0.00265378       0.00100621       0.00165209
C       -1.22308659       6.43192931       3.66055195       0.00000000      -0.00328479      -0.00054131       0.00232277
C       -2.46577463       8.59455726       3.62391157       0.00000000      -0.00205399      -0.00082750      -0.00207238
C        4.92195840       0.05480020       3.65502128       0.00000000       0.00277065      -0.00408091       0.01168832
C        3.72326619       2.20156199       3.67310129       0.00000000      -0.00941174      -0.00377629      -0.00831035
B        1.24292291       6.44045477       4.06753557       0.00000000       0.00992800       0.01304043       0.00298062
C       -0.00447514       8.59645573       3.76359195       0.00000000       0.00660195      -0.00622256       0.00699593
C        7.39536348       0.04911001       3.69838781       0.00000000       0.00606923      -0.01064299       0.00276629
C        6.15843607       2.18674220       3.63492814       0.00000000       0.00206197       0.00710076      -0.00795516
C        4.94042731       4.29243172       3.71924792       0.00000000      -0.00516270       0.00790452       0.00598956
C        3.73554297       6.45604776       4.06887534       0.00000000      -0.01256279       0.01249220       0.00004973
C        2.46869293       8.60263951       3.87711042       0.00000000      -0.00349867      -0.00022310      -0.00621879
C        9.86613475       0.04198275       3.67794239       0.00000000      -0.00901580       0.00060495      -0.00607557
C        8.62601254       2.18380954       3.60034033       0.00000000      -0.00486117       0.00536426       0.00729139
C        7.38764148       4.32750100       3.58280572       0.00000000       0.00408229      -0.00214907      -0.00166258
C        6.14964342       6.44861517       3.63628452       0.00000000       0.00840502      -0.00510507      -0.01268030
C        4.93907919       8.58510466       3.71786575       0.00000000       0.00039284       0.00476743      -0.00137199
C       -0.00084879       1.47850463       3.61088654       0.00000000       0.00846383      -0.00481358      -0.00634393
C       -1.24909101       3.58900146       3.58601212       0.00000000      -0.00169045      -0.00225310       0.00687227
C       -2.47244478       5.74057816       3.57905797       0.00000000      -0.00747869       0.00050797      -0.00877792
C       -3.70097786       7.88556349       3.58380867       0.00000000       0.00087712      -0.00736605       0.00713889
C       -4.92837958      10.03602837       3.60753875       0.00000000       0.00358287      -0.00120232       0.00614154
C        2.46144584       1.54330707       3.64522307       0.00000000      -0.00642076      -0.00448433       0.00368432
O        1.14837997       3.56352438       3.75174763       0.00000000       0.00612698      -0.00188876       0.00057498
C       -0.00975980       5.67394861       3.75691733       0.00000000       0.00749001       0.00541562      -0.00352797
C       -1.23041761       7.86957921       3.68398811       0.00000000       0.00028419      -0.00027533      -0.00469967
C       -2.47742859      10.03524108       3.63304237       0.00000000      -0.00236160       0.00051441      -0.00464979
C        4.91763564       1.48855057       3.64867134       0.00000000      -0.00284410       0.00475225      -0.00352828
O        3.77252128       3.57356778       3.77668868       0.00000000      -0.00582516      -0.00167630      -0.00593468
C        1.23746411       7.91634829       3.90802388       0.00000000       0.00440857      -0.00234563      -0.00735231
C       -0.00960548      10.02492625       3.70429739       0.00000000       0.00820866      -0.00803776      -0.00500293
C        7.38712902       1.47599648       3.63588637       0.00000000       0.00020360      -0.00418299       0.00039538
C        6.15002196       3.60847639       3.63164782       0.00000000       0.00205321       0.00776736      -0.00396812
C        4.89406960       5.72681528       3.77230116       0.00000000      -0.00307959       0.01111513       0.01500941
C        3.70349368       7.84681298       3.88887291       0.00000000      -0.00540907       0.01324504      -0.00299152
C        2.46606299      10.02135874       3.74920377       0.00000000      -0.00079726      -0.00919149      -0.00393275
C        9.86450098       1.46731887       3.61410649       0.00000000      -0.00397819       0.00175643      -0.00517335
C        8.62135673       3.61053412       3.56687674       0.00000000      -0.00311754       0.00291132       0.00648616
C        7.38526698       5.74805381       3.57545379       0.00000000       0.00723122      -0.00910678       0.00094543
C        6.16735332       7.87755895       3.63819918       0.00000000       0.00863496      -0.00051740       0.00907375
C        4.93374144      10.00908719       3.66641461       0.00000000      -0.00247921       0.00667632       0.00127754
Hg       2.48395148       5.48976133       5.54514710       0.00000000      -0.01495301       0.00722864       0.00022805
O        2.63512395       4.28820287       8.36408025       1.00000000      -0.00511635      -0.01116410      -0.01042348
O        2.49542932       3.72817557       7.24123297       1.00000000       0.00529531       0.00218617       0.00437391
