50
Lattice="12.336457 0.0 0.0 -6.168228499999997 10.683685154694365 0.0 0.0 0.0 15.0" Properties=species:S:1:pos:R:3:forces:R:3 energy=-431.97866834650733 free_energy=-431.97866834650733 stress="-0.001009661287837221 0.00088501974615827 5.6172484257208055e-06 0.00088501974615827 0.007081812819941223 -4.472079326060906e-08 5.6172484257208055e-06 -4.472079326060906e-08 6.941668328585683e-06" pbc="T T T"
C        0.02507004      -0.00182265       3.72507155      -0.00088453       0.00603677       0.00046804
C       -1.20786197       2.12692618       3.57553216      -0.00189521       0.00655699       0.00284182
C       -2.42939784       4.26798455       3.53811882       0.00153413      -0.00787677      -0.00377830
C       -3.66260781       6.40670028       3.64883586       0.00959408       0.00044387       0.00326375
C       -4.90954865       8.55249379       3.76186241      -0.00384247      -0.00033393      -0.00593957
C        2.48083557       0.05194717       3.76718817       0.00569149      -0.00359985       0.00013951
C        1.22771695       2.16250667       3.67528252       0.00681644      -0.00824300      -0.00837750
C        0.01156734       4.26868394       3.44991884       0.00282312       0.00671518      -0.00328159
C       -1.19790414       6.39589852       3.51551404      -0.00522311      -0.00570100      -0.00378273
C       -2.44304444       8.55478853       3.66310532       0.00185597       0.00051238       0.00661113
C        4.95614865       0.00970238       3.75117998      -0.00267409      -0.00621457      -0.00748962
C        3.73058768       2.19699591       4.01533600      -0.00099835      -0.00321883      -0.00739427
O        1.18317367       6.42773295       3.46731388       0.00358464       0.01260670       0.00547963
C        0.01687834       8.52197167       3.64297924       0.00116581       0.00068806      -0.00644170
C        7.42953097      -0.03819583       3.68267966      -0.00261152       0.00592533       0.00648434
C        6.21530962       2.10825797       3.78414595      -0.00700292      -0.00101745      -0.00249436
C        5.03629947       4.22153182       4.09451917      -0.00704602      -0.00278841      -0.00397391
B        3.80957677       6.36744169       4.35785222       0.00128775       0.00829646      -0.00304267
C        2.46277293       8.47844312       3.78817354       0.00023275      -0.00107213       0.01002091
C        9.88814739      -0.03825135       3.69342297      -0.00711805      -0.00957720       0.00114857
C        8.66948409       2.10954824       3.62246155       0.00458522       0.00137074      -0.00079949
C        7.46061140       4.25368948       3.71310576       0.00962774       0.00514713       0.00141185
C        6.23377661       6.39671722       3.90151766      -0.00064728      -0.00111766       0.01011863
C        4.94752653       8.51916991       3.88562821      -0.00399097      -0.00140133       0.00083564
C        0.02514375       1.43199784       3.65147616      -0.00003359       0.00624753      -0.00213089
C       -1.19473673       3.56013292       3.49958314       0.00252642       0.00528614      -0.00899887
C       -2.43047582       5.68725736       3.55296483      -0.00026860      -0.01215865       0.00516338
C       -3.67693548       7.83913895       3.68788337       0.00172170       0.00269887      -0.00903058
C       -4.90899400       9.98960374       3.74909491       0.00071008       0.00299334       0.00104732
C        2.46661373       1.48871038       3.83417169       0.00672162      -0.00836781       0.00811380
O        1.18493209       3.53199103       3.49880115      -0.00390977      -0.00666264       0.01676940
C        0.01054810       5.68867417       3.45137211       0.00242545       0.01094476      -0.00450640
C       -1.21836407       7.82785389       3.59614561      -0.00030390      -0.00423960       0.00423331
C       -2.45354406       9.99464788       3.73429870       0.00153008      -0.00364127       0.00522233
C        4.96140577       1.43377768       3.85130574      -0.00718955      -0.00711608      -0.00406673
C        3.84841861       3.54135989       4.33776729      -0.00820162      -0.00149612       0.00080051
C        1.21664005       7.78817827       3.65307999       0.00438061       0.00838548      -0.00300597
C        0.02266435       9.95472172       3.69549789      -0.00085524       0.00131625      -0.00446439
C        7.44176805       1.39048440       3.68378298      -0.00056612       0.00753320      -0.00540003
C        6.24755175       3.52420693       3.83952868       0.00346319       0.00118746       0.00813350
C        5.06115743       5.65539415       4.11712742      -0.00551631      -0.00102616       0.00023748
C        3.70175456       7.80749237       3.99786538       0.00078350      -0.00073885      -0.00240958
C        2.48193095       9.91344555       3.70527449      -0.00859342      -0.00606630       0.00682107
C        9.90387613       1.39973456       3.61616948       0.00049773      -0.00488982       0.00069589
C        8.68070206       3.54081242       3.60883707       0.00544293      -0.00028980      -0.00290352
C        7.46050342       5.68498799       3.73937065       0.00907003       0.00667794       0.00813134
C        6.19847858       7.82767094       3.85970650      -0.00602128      -0.00218351       0.00158957
C        4.95742679       9.94864762       3.75877691      -0.00302491      -0.00267941      -0.00628436
Hg       2.58034048       4.85414124       5.38940221      -0.00216200       0.01162268      -0.00379866
O        0.91439742       5.49582674       6.29630341       0.00250835      -0.00547510      -0.00198704
