49
Lattice="12.336457 0.0 0.0 -6.168228499999997 10.683685154694365 0.0 0.0 0.0 15.0" Properties=species:S:1:pos:R:3:forces:R:3 energy=-428.6851802525933 free_energy=-428.6851802525933 stress="0.0009547902017751215 -0.0009143689569814122 -5.3088442554599025e-06 -0.0009143689569814122 0.0023835317287428785 -3.5314826891451266e-06 -5.3088442554599025e-06 -3.5314826891451266e-06 2.7820049445250743e-07" pbc="T T T"
C        0.00792029      -0.01024237       3.65056113      -0.00047464       0.01470237       0.00230041
C       -1.24052615       2.11685894       3.62862082      -0.00691745       0.00331266      -0.00588628
C       -2.47510064       4.26389182       3.60595983       0.00522104      -0.00279781      -0.00356392
C       -3.70178131       6.40295085       3.60307176       0.00917575      -0.01045143       0.00881648
C       -4.92522733       8.54367259       3.62951003       0.00375860      -0.00729716       0.00901474
C        2.47094407       0.03849248       3.64415636      -0.00073688      -0.00223973       0.00814639
C        1.19954850       2.13868081       3.67361232       0.00207762      -0.00181992      -0.00475620
C       -0.02804562       4.20907132       3.70782541       0.00278957      -0.00224153       0.00313286
C       -1.21807039       6.37601000       3.68732350      -0.00918509       0.00495009       0.00294202
C       -2.46094233       8.53849602       3.64285739      -0.00340458       0.00155709       0.00395934
C        4.92792231      -0.00154963       3.67272063      -0.00596408      -0.00318813       0.00286728
C        3.72873064       2.14659744       3.70508054      -0.00111951      -0.00440847      -0.00460533
B        1.24286383       6.38312093       4.13559744       0.00339531      -0.00087137       0.01196906
C       -0.00009583       8.53866904       3.77524819      -0.00431303      -0.00008086       0.00862327
C        7.40125907      -0.00840329       3.71397332      -0.00409314      -0.00768504       0.00555354
C        6.16417775       2.13005516       3.67191794      -0.00040317      -0.00110819      -0.00536119
C        4.94736423       4.23468554       3.77839698      -0.00712338       0.00822234      -0.00563134
C        3.73893974       6.39957577       4.11933665      -0.00034673      -0.00351019       0.00707707
C        2.47215004       8.54289224       3.89477035       0.00602147       0.00123960       0.00003691
C        9.87121191      -0.01576941       3.70178038      -0.00216273       0.00328985       0.00194267
C        8.63139281       2.12693777       3.63974173       0.00402871       0.00084238       0.00050223
C        7.39338004       4.27066565       3.63510513       0.00407949       0.00011224      -0.00134484
C        6.15620060       6.39136563       3.68518520       0.00767332      -0.00094046      -0.00394689
C        4.94463938       8.52856943       3.74983984      -0.00217942       0.00317503       0.00501423
C        0.00509776       1.42108822       3.64387286      -0.00414869       0.01312795      -0.01035748
C       -1.24459058       3.53189153       3.62010716      -0.00171901      -0.00202110       0.00179204
C       -2.46828396       5.68407582       3.61218124       0.00223289      -0.00718535       0.00077890
C       -3.69603913       7.82924418       3.61442569       0.00554153      -0.01027818      -0.00063458
C       -4.92221809       9.97940246       3.63771504      -0.00157213       0.00046494       0.00036029
C        2.46701349       1.48839079       3.67068398      -0.00004044      -0.00629352       0.00532498
O        1.15402772       3.51013128       3.74722599       0.00480931      -0.00175023      -0.00042259
C       -0.00318715       5.61889018       3.79166799      -0.00390522       0.00353580      -0.01008865
C       -1.22570610       7.81281072       3.70168166      -0.00752098       0.00514504       0.00543549
C       -2.47188127       9.97918804       3.65046718      -0.00375290      -0.00050571       0.00615716
C        4.92347112       1.43257942       3.67776354      -0.00171204      -0.00580974      -0.00665088
O        3.77895811       3.51686270       3.80968105      -0.00360895       0.00222253      -0.01464684
C        1.23997627       7.85637901       3.92888717       0.00310215       0.00822008       0.00392006
C       -0.00386934       9.96801383       3.71435212      -0.00844759      -0.00457619       0.00682318
C        7.39281735       1.41909430       3.66669241       0.00319874      -0.00509192      -0.00249897
C        6.15670682       3.55133984       3.68306933      -0.00232011       0.00498417       0.00101709
C        4.89968050       5.66882504       3.83292441       0.00130690       0.00949920      -0.00846489
C        3.70709069       7.78952963       3.92301981       0.00067636      -0.00295155      -0.00627740
C        2.47118323       9.96319190       3.76360511       0.00066369      -0.00058492       0.00205560
C        9.86986533       1.41016011       3.64732354      -0.00175854       0.00070193      -0.01074723
C        8.62641189       3.55378470       3.61477939       0.00597842       0.00160308      -0.00931748
C        7.39095206       5.69087903       3.62439613       0.00871000      -0.00351598      -0.00391869
C        6.17339211       7.82067069       3.67796937      -0.00002419      -0.00226815       0.00644511
C        4.93944935       9.95205158       3.69521818      -0.00111970       0.00917746       0.00005861
Hg       2.46821952       5.44477938       5.65281633       0.00563346       0.00138698      -0.00294535
