50
Lattice="12.336457 0.0 0.0 -6.168228499999997 10.683685154694365 0.0 0.0 0.0 15.0" Properties=species:S:1:pos:R:3:forces:R:3 energy=-423.6864205316676 free_energy=-423.6864205316676 stress="-0.002045748361287403 0.0023597882530739865 9.816998304440233e-06 0.0023597882530739865 -0.006932096715221588 1.874108906976068e-05 9.816998304440233e-06 1.874108906976068e-05 4.780701198032502e-06" pbc="T T T"
C        0.00145165      -0.02022538       3.72332882       0.00028671      -0.00805693      -0.00029953
C       -1.20958574       2.14378714       3.64164831      -0.00785669      -0.00472259      -0.00228792
C       -2.46343540       4.27436465       3.86664249      -0.00267878       0.00287275      -0.00492961
C       -3.70727455       6.39529753       3.94197829      -0.00400064       0.00539240      -0.00875675
C       -4.95354201       8.51568334       3.87811397       0.00118772      -0.00044284       0.00030180
C        2.46722241      -0.04813810       3.62837214      -0.00179882      -0.00765625       0.00901377
C        1.23909984       2.02870401       3.22392657      -0.00248741      -0.00171851      -0.00522398
C       -0.05882613       4.32079060       3.57907505      -0.00079574       0.00211913      -0.00297531
C       -1.22440199       6.40581941       4.02205630       0.00065713      -0.00077449      -0.00211167
C       -2.47436985       8.52908594       3.95224562       0.00043261      -0.00136107      -0.00161062
C        4.93151541      -0.01484233       3.73563952       0.00601524      -0.00365217       0.00011011
C        3.73365976       1.99393849       3.04753952       0.00269948      -0.00405757       0.00535005
B        1.36863121       6.40532382       4.11007369       0.00036869       0.00600202       0.00340628
C       -0.01217429       8.56868422       4.04217300       0.00040113       0.00165523       0.00590379
C        7.39163760       0.03108414       3.86882781       0.00919110       0.00122366       0.00416224
C        6.18185222       2.11882875       3.49303018       0.00867128      -0.00018667       0.00620661
C        5.06443935       4.25872254       3.11942868       0.00687765       0.00627039      -0.00395509
P        3.31600523       6.19887788       3.87693168      -0.01681106      -0.00126981       0.00846862
C        2.44640145       8.63633505       4.04949768      -0.00075122       0.00306712       0.00498068
C        9.88289524       0.02626009       3.85587440       0.00153290       0.00108955       0.00625182
C        8.64914652       2.14586070       3.76117001      -0.00244094       0.00187645       0.00001892
C        7.41774690       4.26394906       3.71959654       0.00537920      -0.00028606       0.00238808
C        6.14721125       6.37748225       3.76859555      -0.00177216       0.00213058       0.00401891
C        4.92074543       8.54030034       3.91611140      -0.00151728      -0.00191845      -0.00221329
C        0.01337993       1.40780342       3.54255347      -0.00327840      -0.00729546      -0.00477098
C       -1.23449870       3.55918259       3.70955743      -0.00337644      -0.00082279      -0.00442586
C       -2.46477692       5.69274470       3.96602531      -0.00393760       0.00412245      -0.00305516
C       -3.71267251       7.81574823       3.94018168      -0.00103156       0.00349779       0.00341511
C       -4.94126404       9.93974451       3.75980178      -0.00055227      -0.00668593       0.00043501
C        2.48092688       1.34191873       3.27321566      -0.00214663      -0.00992456      -0.00500738
S        1.24187091       3.66222194       2.69123478      -0.00025806       0.01232189      -0.01470365
C        0.01541027       5.68749960       3.92235915       0.00329678       0.00180262       0.00052353
C       -1.24196808       7.83250399       4.03969920       0.00005324      -0.00114045       0.00370517
C       -2.46929661       9.94580252       3.78823236       0.00160558      -0.00281171       0.00586562
C        4.94534377       1.38926707       3.43460832       0.00619097      -0.00000541       0.01090217
S        3.89556479       3.45949732       2.12118303      -0.00086363      -0.00117176      -0.01219937
C        1.23198780       7.91881437       4.08859931      -0.00101319       0.00547486       0.00819214
C       -0.00766807       9.99181988       3.90846026       0.00805118       0.00160506       0.00665718
C        7.40079446       1.43944734       3.71927990       0.00573686      -0.00002135       0.00672960
C        6.21773782       3.53238885       3.44018462       0.00945181       0.00154252      -0.00649066
C        4.94736508       5.60932736       3.51978620      -0.00847467       0.00820217      -0.00906204
C        3.66000069       7.90661069       4.00097518      -0.00473238       0.00029692      -0.00176277
C        2.46550119      10.04000168       3.95369289       0.00564655       0.00166321       0.00622056
C        9.89490934       1.44406473       3.76428136      -0.00783841      -0.00018128       0.00530536
C        8.64664840       3.55973537       3.80112947       0.00174854       0.00010213      -0.00605776
C        7.39496557       5.68356363       3.81831411      -0.00170318       0.00039944       0.00341633
C        6.14509295       7.80271556       3.87599069       0.00228689       0.00175911      -0.00567221
C        4.93475003       9.97278194       3.85281320      -0.00025430      -0.00279791       0.00004637
Hg       2.42019029       5.74896193       6.13767191      -0.00564228       0.00305846      -0.00314325
O        2.19810610       5.29063301       8.13477803       0.00024447      -0.01058587      -0.01128095
