49
Lattice="12.336457 0.0 0.0 -6.168228499999997 10.683685154694365 0.0 0.0 0.0 15.0" Properties=species:S:1:pos:R:3:forces:R:3 energy=-425.7860442786085 free_energy=-425.7860442786085 stress="0.006480005214178172 -0.0009259240867603639 9.063189388437432e-06 -0.0009259240867603639 -0.0072036019671420795 -6.650708675721399e-06 9.063189388437432e-06 -6.650708675721399e-06 8.954858320605264e-06" pbc="T T T"
C       -0.00041355      -0.04005033       3.77322893      -0.01415975      -0.00380387      -0.00647231
C       -1.21394234       2.13617008       3.62739486      -0.00349925       0.00974651       0.00351786
C       -2.43903315       4.26172998       3.65901568      -0.00441090       0.00440275       0.01439882
C       -3.69204029       6.37128291       3.81903626       0.01026381       0.00627679      -0.00269305
C       -4.93897379       8.49218242       3.88421511      -0.00100609      -0.00811714      -0.00410073
C        2.47180396      -0.10223142       3.69774361      -0.00344964      -0.00863207      -0.00132099
C        1.25060879       2.02817275       3.53050923       0.00036720      -0.00942193      -0.00310314
C        0.07579294       4.27408064       3.58311339       0.00805168       0.00626182       0.00368137
C       -1.17027260       6.37576921       3.80972394       0.00458016      -0.01106642      -0.00647455
C       -2.44699915       8.49039067       3.81298007       0.01382953      -0.00146812      -0.00007101
C        4.93956589      -0.03482544       3.61725344       0.00649158       0.00097697      -0.00642798
C        3.66417319       2.01617809       3.31707834      -0.00090506       0.01319433       0.01134467
B        1.49204616       6.37458600       4.05096317      -0.00302134      -0.00144510       0.00378825
C        0.02256276       8.53834933       3.81729231      -0.00873280      -0.00304744      -0.00221514
C        7.39632090       0.02747384       3.66478733       0.00361984       0.01133697       0.01129492
C        6.14708836       2.14229470       3.48729130      -0.01146467       0.00355695      -0.00426472
C        4.89498097       4.31462791       3.52583267       0.01516421      -0.00187559       0.00769401
B        3.45618636       6.37727980       4.10004700       0.00366979       0.00021590      -0.00596536
C        2.47163367       8.61758245       3.88609708      -0.00101253      -0.00174502       0.00071375
C        9.87811598       0.02739116       3.74665939       0.00125313      -0.00974761      -0.00053836
C        8.63546631       2.14884970       3.60646182       0.00256330      -0.00328464      -0.00465607
C        7.38471876       4.26393035       3.65120427      -0.00045465       0.00545435      -0.00015977
C        6.12949094       6.38207628       3.89073614      -0.00468239      -0.00082597      -0.00133278
C        4.92455398       8.54039433       3.92598855       0.00225128      -0.00069925      -0.00049458
C        0.00433461       1.38570995       3.65305847      -0.00698351      -0.00180704      -0.00372905
C       -1.18603313       3.55783658       3.60044435      -0.00116304       0.01383301      -0.00445237
C       -2.43356076       5.67519052       3.75954325       0.00538857       0.00173923       0.00432063
C       -3.69231388       7.78675554       3.85744949       0.01281026       0.00318863      -0.00136750
C       -4.94004069       9.90538398       3.80636793      -0.01282790      -0.00888736      -0.00329690
C        2.46005572       1.29377144       3.52006310       0.00238666      -0.00754857      -0.01453539
B        1.40459857       3.51718894       3.41321076       0.01051735       0.00054478       0.01501821
C        0.09415730       5.66722409       3.79342078       0.00510301       0.00175842       0.00265379
C       -1.20295305       7.79755320       3.82883715       0.00132082      -0.01611253      -0.00596366
C       -2.44979365       9.90513519       3.71543742       0.00741905       0.00051712      -0.00034305
C        4.92523647       1.39229403       3.45314678      -0.00407492       0.00433526      -0.00217449
P        3.31785018       3.69671180       2.95429730      -0.00816372      -0.00867253      -0.00032649
C        1.27104355       7.88221830       3.91126848      -0.00704049       0.00454376       0.00113985
C        0.00631503       9.96888066       3.69719765       0.00428380       0.00415165       0.01398517
C        7.38928078       1.44526215       3.57583220      -0.00679834       0.01054683      -0.00277742
C        6.13385942       3.56442461       3.53031980      -0.00540690       0.00546418      -0.00584493
C        4.86234324       5.68421315       3.84967284      -0.00281655      -0.00385407       0.00065420
C        3.67266355       7.88797538       3.97257430       0.00383071       0.00192048       0.00650522
C        2.46881328      10.03075553       3.76080156       0.00097064      -0.00006363       0.00554947
C        9.87952046       1.44386587       3.65700878       0.00481542      -0.00757899      -0.00724889
C        8.64000756       3.56505700       3.62667238      -0.00132925      -0.00161594       0.00400564
C        7.38526810       5.67563537       3.79360711       0.00236589       0.00732043       0.00761067
C        6.15540054       7.80207983       3.93046158      -0.00345165      -0.00314528      -0.00459208
C        4.93331344       9.96848546       3.82702005      -0.00646482      -0.00648412      -0.00637932
Hg       2.44459166       5.65525513       5.98235215      -0.00999753       0.00966314      -0.00455441
