50
Lattice="12.336457 0.0 0.0 -6.168228499999997 10.683685154694365 0.0 0.0 0.0 15.0" Properties=species:S:1:pos:R:3:forces:R:3 energy=-438.63349278840076 free_energy=-438.63349278840076 stress="-0.003983441930811011 0.0014917244118477144 -1.912659215290684e-06 0.0014917244118477144 -0.002349930652629178 -1.7078560696791285e-05 -1.912659215290684e-06 -1.7078560696791285e-05 -4.373261641801736e-06" pbc="T T T"
C       -0.00214902       0.00147589       3.66387100       0.00483768      -0.00874652      -0.00179189
C       -1.23271480       2.13657536       3.76378391      -0.01168438      -0.00174288      -0.00590092
C       -2.46132294       4.27362405       3.74884105      -0.01066177       0.00517033       0.00227831
C       -3.69657852       6.41019173       3.63449160      -0.00368379       0.01324007       0.00095158
C       -4.94915209       8.54356367       3.55836996       0.00272946       0.00268927      -0.00193177
C        2.46188398       0.00489634       3.72691510      -0.00395558      -0.00222533      -0.00758636
C        1.23078444       2.13845631       3.83884795      -0.00520891       0.00331684      -0.00253577
C       -0.00868841       4.27683298       3.92961245       0.00800274      -0.00056457       0.00243933
C       -1.24455008       6.42091264       3.81837180       0.00520877      -0.00259409      -0.00320745
C       -2.48041245       8.55291392       3.71101205      -0.00477345      -0.00098721      -0.00757029
C        4.93372820      -0.00127387       3.77219999      -0.00407757      -0.00089060       0.00169354
C        3.70823241       2.14337934       3.81813049      -0.00065497       0.00312584       0.00057373
B        2.48420533       4.32390402       4.17654759       0.00565715      -0.01822116      -0.00185738
C        1.18400224       6.44710381       4.21244844       0.00782715      -0.00715700      -0.00441618
C       -0.00939366       8.54594391       3.82325229       0.00326761      -0.00489578       0.00156102
C        7.40298429      -0.00376638       3.78565032       0.00097995       0.00105238      -0.00063852
C        6.18368962       2.12264671       3.76744737       0.01185409       0.00454640      -0.01011677
C        4.97002417       4.25294364       3.63461266      -0.00471657       0.00377276      -0.00555940
S        3.53970864       6.29621824       2.69217210       0.00214569      -0.00551230      -0.01534238
C        2.46280780       8.54847446       3.68683635       0.00350852      -0.00474686       0.00040630
C        9.87230309      -0.00197001       3.68948291      -0.00892891       0.00330989       0.00275095
C        8.64459223       2.13302949       3.74970374      -0.00099975      -0.00357887      -0.01009756
C        7.42289051       4.26843056       3.65728621       0.00137199      -0.00548307       0.00135801
C        6.17678441       6.40317800       3.42281916       0.00492606       0.00150887       0.00172079
C        4.92622653       8.54500957       3.44161979       0.00152614       0.00173078       0.01369810
C       -0.00263518       1.42224723       3.75679569      -0.00706881      -0.00548427      -0.00275618
C       -1.23722958       3.56160615       3.80795299      -0.00739450       0.00327785       0.00662756
C       -2.46388125       5.70096113       3.73074750      -0.00586489       0.00996915       0.00353695
C       -3.70800449       7.83578056       3.62544834      -0.00536090       0.00907081       0.00578004
C       -4.93983455       9.97259916       3.64461505       0.00558372      -0.00691963      -0.00552408
C        2.46658495       1.42937064       3.80816198      -0.00604942       0.00178787      -0.00070670
C        1.19974715       3.55911796       3.96119849       0.01030569       0.00527334       0.00553125
C        0.00635393       5.71537558       3.98262239       0.00655137      -0.00588014       0.00224050
C       -1.24646820       7.84046514       3.78767970      -0.00030397      -0.00281097       0.00517546
C       -2.47363710       9.97482756       3.73265072      -0.00823760      -0.00321126       0.00774977
C        4.94471473       1.41722521       3.78379779       0.00685582       0.00300533      -0.00514085
C        3.74541119       3.56738558       3.83185685      -0.00273182       0.00252340       0.00059421
C        1.23066528       7.81078241       3.89335100       0.00647857      -0.00198420       0.00376588
C       -0.00134960       9.96843272       3.78825990      -0.00023958      -0.00179564       0.00592734
C        7.41225233       1.41565874       3.77261891       0.00800994       0.00011922      -0.00154946
C        6.20450744       3.54401891       3.69376759      -0.00061619       0.00309810      -0.01157510
C        4.99436802       5.63819069       3.33634604       0.00701212      -0.00490745      -0.00708887
C        3.66712661       7.89254574       3.35154525       0.00061581      -0.00031363       0.00586692
C        2.46900417       9.97175102       3.73354547      -0.00297558       0.00064167       0.00991947
C        9.87416197       1.42303399       3.73551551      -0.01008737      -0.00163360       0.00985067
C        8.65032252       3.55715531       3.71869463      -0.00348788      -0.00786349       0.00326424
C        7.41597862       5.69181284       3.57309139       0.00496306      -0.00033297       0.00220719
C        6.15681948       7.82910000       3.43093599       0.00267390       0.00406061       0.00550157
C        4.93214438       9.97138636       3.60328659      -0.00306275       0.00489307       0.00090307
Hg       2.50127041       5.68118092       5.90184721      -0.00006613       0.01929964      -0.00097988
