50
Lattice="12.336457 0.0 0.0 -6.168228499999997 10.683685154694365 0.0 0.0 0.0 15.0" Properties=species:S:1:pos:R:3:forces:R:3 energy=-432.51360718689784 free_energy=-432.51360718689784 stress="0.001597894766919472 -0.001232439307458335 -2.1951601537513337e-05 -0.001232439307458335 0.0027854561430944074 -3.199270933691214e-06 -2.1951601537513337e-05 -3.199270933691214e-06 2.0441707969970954e-05" pbc="T T T"
C        0.02633338       0.01761446       3.71725511      -0.00889498       0.00117037      -0.00252377
C       -1.22327651       2.14403267       3.68753400       0.00235543      -0.00424140      -0.00208192
C       -2.45813905       4.28974906       3.63283467       0.00598015       0.00119158       0.00340019
C       -3.68397698       6.42873405       3.61978487       0.00207272       0.00062295       0.00871499
C       -4.90704245       8.57007036       3.67086400       0.00256906       0.00235628       0.00933616
C        2.48879913       0.06655840       3.68295835       0.00792820       0.00167187      -0.00290789
C        1.21751722       2.16760852       3.71006421       0.00076124       0.00565575      -0.00757376
C       -0.00666862       4.23071567       3.69663518      -0.00702325       0.00234107      -0.01016931
C       -1.19612588       6.39929876       3.67098656      -0.00598298       0.00232814      -0.00671716
C       -2.44130340       8.56413265       3.65569394      -0.00167315      -0.00217987       0.00535413
C        4.94537826       0.02612552       3.68968585       0.00408706      -0.00504104       0.00314403
C        3.74495427       2.17572590       3.71067090      -0.00528788       0.00135503      -0.00058420
B        1.27702091       6.40963013       3.99771759       0.01593218      -0.00365412       0.00176912
C        0.02114626       8.56509015       3.76303065      -0.00623083      -0.00202691      -0.00377734
C        7.41910657       0.01940590       3.74026168      -0.00529744       0.00059663       0.00734113
C        6.18020872       2.15942984       3.68824110      -0.00732250      -0.00947567       0.00067614
C        4.96042019       4.26669044       3.76523057       0.00383423      -0.00741235      -0.00281241
C        3.74722805       6.42209269       4.11196435       0.00676392       0.00168135      -0.00571698
C        2.49378353       8.57236563       3.91025138      -0.00071001       0.00852403       0.00186556
C        9.89034415       0.01339528       3.75926323      -0.00497269      -0.00291449      -0.00147770
C        8.64824601       2.15470417       3.67807285       0.00475786       0.00041857       0.00027132
C        7.40941738       4.29856829       3.65215108       0.00230730       0.00608800      -0.00122076
C        6.16960009       6.41841881       3.70652897      -0.00027606       0.00142309       0.00218379
C        4.96210669       8.55419309       3.80451456       0.00160177      -0.00404621      -0.00337047
C        0.02328805       1.44810011       3.70734992       0.00200550       0.00231743      -0.00395746
C       -1.22666760       3.55876108       3.66095671      -0.00191053      -0.00597439      -0.00491654
C       -2.44961871       5.70985694       3.62235071       0.00020029      -0.00011533       0.00225000
C       -3.67731760       7.85535083       3.63613367       0.00089189      -0.00168356       0.01124984
C       -4.90402395      10.00605293       3.68920721      -0.00062050       0.00601230      -0.00243681
C        2.48509697       1.51486882       3.70278559      -0.00014689       0.00398043      -0.00380681
O        1.17347696       3.53510674       3.69091481      -0.00584609       0.00498562      -0.00692579
C        0.01977705       5.64093405       3.73592391      -0.00638442       0.00443186       0.00190059
C       -1.20425068       7.83777946       3.69129685      -0.00788769      -0.00020801       0.00037557
C       -2.45372003      10.00576626       3.67305213       0.00698689      -0.00333918       0.00148923
C        4.93933384       1.46141544       3.69351787      -0.00932869      -0.00657862       0.00385548
O        3.78925859       3.55205684       3.74353989      -0.00079711      -0.00036918       0.00304166
C        1.26505389       7.88437698       3.88635063      -0.00082413       0.00789643       0.00414604
C        0.01451201       9.99490736       3.72544689      -0.00093715      -0.00367340       0.01173948
C        7.40912454       1.44728806       3.69499083      -0.00109419      -0.00176458       0.00427120
C        6.17039174       3.58168080       3.69680884       0.00277758      -0.00726088      -0.00546558
C        4.91434249       5.70025432       3.82694661       0.00379737      -0.00621761      -0.00036664
C        3.72501578       7.81593177       3.94951364       0.00084263       0.00138655      -0.00839338
C        2.49016235       9.99219520       3.80234159      -0.00594489       0.00619910       0.00359441
C        9.88762875       1.43882663       3.70331210       0.00344109      -0.00487304      -0.00432239
C        8.64296396       3.58097496       3.64250077       0.00549710       0.00599092       0.00322510
C        7.40710963       5.71818448       3.64071193      -0.00009541       0.00730364       0.00666107
C        6.19056210       7.84759511       3.72081597       0.00227978      -0.00010414      -0.00287714
C        4.95792250       9.97962823       3.75903988      -0.00806121      -0.00550305       0.00219863
Hg       2.51062381       5.40311404       5.50569327       0.00337928      -0.00237004       0.00443007
O        1.56048850       4.17797063       6.78383800       0.01050017       0.00309810      -0.01408269
