52
Lattice="12.336457 0.0 0.0 -6.168228499999997 10.683685154694365 0.0 0.0 0.0 15.0" Properties=species:S:1:pos:R:3:initial_magmoms:R:1:forces:R:3 energy=-445.89433578391726 free_energy=-445.89433578391726 stress="-0.004614763628103899 0.006115620748086678 4.508125398298453e-06 0.006115620748086678 -0.0008168942170125208 -1.0892021914220267e-05 4.508125398298453e-06 -1.0892021914220267e-05 -1.0696539676479706e-05" pbc="T T T"
C       -0.05054730      -0.00707492       3.64917426       0.00000000       0.00129306      -0.00079141      -0.00439741
C       -1.25421643       2.14343319       3.68422312       0.00000000       0.00369371      -0.00946803       0.00099026
C       -2.47452292       4.26966657       3.61458888       0.00000000       0.00035850       0.00140430       0.00569852
C       -3.74526449       6.39768578       3.53111748       0.00000000       0.00470624       0.00234651       0.00294857
C       -5.01294030       8.52878698       3.54001165       0.00000000      -0.00211197      -0.00260527      -0.00404792
C        2.40800566       0.00122277       3.65506434       0.00000000      -0.00217933      -0.00018054      -0.00360036
C        1.20507746       2.17294439       3.73496269       0.00000000       0.00904139       0.00756552       0.00183750
C       -0.00373548       4.32610535       3.74933741       0.00000000      -0.00472914      -0.00327791      -0.00768571
C       -1.29507999       6.42535993       3.64946886       0.00000000      -0.00461748      -0.00012219       0.00875414
C       -2.53785896       8.54563366       3.60992013       0.00000000      -0.00461862      -0.00084123      -0.00736498
C        4.88736174      -0.01204067       3.66288686       0.00000000       0.00173103      -0.00524598       0.00322597
C        3.68477697       2.11650109       3.70207947       0.00000000      -0.00624337       0.00366716      -0.00074190
B        2.55406571       4.33768727       4.09159168       0.00000000      -0.01180580      -0.01273268      -0.00515628
O        1.00843367       6.51388976       4.10382066       0.00000000       0.00234383      -0.00083667      -0.01352568
C       -0.07958662       8.54589671       3.70249969       0.00000000       0.00185140      -0.00168502       0.00953970
C        7.36525096      -0.02670441       3.71738198       0.00000000       0.00595636      -0.00083097       0.00763697
C        6.16949136       2.08817959       3.62881564       0.00000000      -0.00071007      -0.00116624       0.00528462
C        4.97979273       4.19410311       3.53390023       0.00000000      -0.00548286       0.00038523      -0.00073571
S        3.37447867       6.12930192       3.08374239       0.00000000      -0.00429345       0.01301796      -0.00223175
C        2.37544954       8.50807542       3.72795918       0.00000000       0.00258273       0.00733936      -0.00390709
C        9.82992768      -0.02350008       3.70191337       0.00000000      -0.00253352      -0.00099823       0.00266760
C        8.62606966       2.11590769       3.65847447       0.00000000       0.00596080      -0.00131634      -0.01377361
C        7.41197158       4.24449741       3.52943877       0.00000000       0.00783922       0.00145370      -0.00188809
C        6.12944282       6.37655598       3.40911100       0.00000000       0.00462026      -0.00432718       0.00040560
C        4.84629180       8.49692160       3.53860500       0.00000000      -0.00453337      -0.00053583      -0.00510999
C       -0.03326942       1.42747717       3.69124709       0.00000000       0.01151800       0.00142001       0.00325169
C       -1.24136127       3.57958607       3.67401937       0.00000000      -0.00260767      -0.00657118       0.00137542
C       -2.50771829       5.68987980       3.58800613       0.00000000      -0.00089288       0.00034934       0.00171055
C       -3.77148006       7.82486701       3.55238659       0.00000000      -0.00127385      -0.00134324      -0.00480812
C       -4.99500662       9.96193802       3.61471373       0.00000000      -0.00078632      -0.00312524      -0.00762352
C        2.42552267       1.42827956       3.71474728       0.00000000      -0.00043656       0.00115837      -0.00053844
C        1.21342576       3.61180194       3.80782775       0.00000000       0.00266824       0.00703799       0.00384303
C       -0.08261803       5.75103880       3.78634209       0.00000000      -0.00438752      -0.00252140       0.00882985
C       -1.31507564       7.84192128       3.64935416       0.00000000      -0.00316059       0.00072607      -0.00185516
C       -2.52983104       9.97187593       3.64156713       0.00000000      -0.00303561      -0.00077849      -0.00119053
C        4.92028525       1.39576776       3.65694470       0.00000000      -0.00642576      -0.00104775       0.00975390
C        3.76203366       3.52139777       3.72237814       0.00000000      -0.01367483       0.00692245      -0.01100110
C        1.10892598       7.85166375       3.79332297       0.00000000       0.00503655       0.00453385       0.00589879
C       -0.04733535       9.96672466       3.68961689       0.00000000       0.00620704      -0.00382396      -0.00267439
C        7.39382241       1.39264420       3.67054446       0.00000000       0.00539554      -0.00063076       0.00394786
C        6.20946833       3.50116638       3.55187928       0.00000000       0.00150182       0.00166531       0.00761120
C        4.97146886       5.58629907       3.35981620       0.00000000      -0.00378491       0.00080891       0.01933889
C        3.59262188       7.82421275       3.52544518       0.00000000      -0.00452301      -0.00033740      -0.00893485
C        2.41768501       9.94052799       3.73995938       0.00000000       0.00254589       0.00195650      -0.00643751
C        9.85074332       1.41131791       3.68819039       0.00000000       0.00083446      -0.00499032      -0.00104713
C        8.63776335       3.53983952       3.59740750       0.00000000       0.00518222       0.00098259      -0.00060938
C        7.37923504       5.66909077       3.48056484       0.00000000       0.00851295       0.00106947      -0.00143959
C        6.09239836       7.80251075       3.46992792       0.00000000      -0.00329630      -0.00214313       0.01081117
C        4.88058354       9.94517781       3.64082267       0.00000000      -0.00398894       0.00071387      -0.00151097
Hg       2.57612658       4.96276765       6.23251066       0.00000000       0.01082851       0.00325305      -0.01403275
O        2.99275387       5.87381190       8.91869221       1.00000000       0.01056033       0.00570479       0.00220204
O        4.16763600       6.20374464       9.15901018       1.00000000      -0.01663632      -0.00120775       0.01030606
