50
Lattice="12.336457 0.0 0.0 -6.168228499999997 10.683685154694365 0.0 0.0 0.0 15.0" Properties=species:S:1:pos:R:3:forces:R:3 energy=-423.3642866069117 free_energy=-423.3642866069117 stress="0.0006238830674744183 -0.0018026444822970074 -9.41824462698488e-06 -0.0018026444822970074 -0.01129756636583094 -2.62647144098498e-05 -9.41824462698488e-06 -2.62647144098498e-05 2.063410299420224e-06" pbc="T T T"
C       -0.00859459      -0.03711644       3.92570530       0.00613385       0.00123965       0.00045904
C       -1.24623046       2.12073878       4.00640343      -0.00693380       0.01040223      -0.00456729
C       -2.48552573       4.25288787       3.77554030      -0.00514443      -0.01134348       0.00247951
C       -3.71450424       6.37313134       3.65387900       0.01381546      -0.00068657       0.00410417
C       -4.94907672       8.49264453       3.77538601      -0.00701783      -0.00390804      -0.00095396
C        2.46188537      -0.09558184       3.77627307       0.01195302      -0.00027939      -0.01039185
C        1.25475670       2.03123744       4.08268088      -0.00646417      -0.00299334      -0.00572696
C       -0.03754560       4.26832878       4.01315397      -0.00425221       0.00943493       0.00274884
C       -1.21449940       6.36832767       3.58259307      -0.00476408       0.01015880       0.00030695
C       -2.45580458       8.48267643       3.61638725      -0.00737898       0.00506139      -0.00794213
C        4.92310436      -0.04449624       3.57425868      -0.00306383      -0.00825150       0.00350079
C        3.64895046       2.00904436       3.47022956       0.00218500      -0.00401322       0.00890887
S        1.58671200       6.23139723       3.16864463      -0.01083617      -0.01032800      -0.00013231
C        0.01254552       8.51816020       3.52291548       0.00816553       0.00200717      -0.00035138
C        7.37667026       0.01731206       3.63867177      -0.00567708      -0.00158255      -0.00126255
C        6.12944256       2.13108164       3.47641773       0.00546912      -0.00367298      -0.00505915
C        4.93780751       4.30196516       3.32734991       0.00235610       0.00497778       0.00997413
B        3.56022197       6.40722769       3.92342696      -0.00843414       0.00940985       0.00593810
C        2.46861263       8.61568690       3.69637636       0.00427035       0.00208349      -0.00370915
C        9.86192263       0.02266974       3.84636087      -0.00255222      -0.00111690      -0.00782875
C        8.61028285       2.13752204       3.73298495       0.00666793      -0.00894935      -0.00039566
C        7.37520793       4.25657529       3.58414548       0.01144511       0.00330411       0.00178482
C        6.13102087       6.38384719       3.68444830      -0.00627842      -0.00418350      -0.00383368
C        4.91749074       8.54249365       3.84341219      -0.00466088       0.00011699      -0.00503359
C       -0.00563152       1.39013470       4.03612812      -0.00997946       0.00577479       0.00350328
C       -1.25943435       3.53720258       3.96032477      -0.00643597       0.00790785       0.00490539
C       -2.47181587       5.66663067       3.66257352       0.00602944      -0.00997246       0.00456760
C       -3.70644194       7.78712997       3.67768999      -0.00295136       0.00089615       0.00195229
C       -4.95039968       9.90787047       3.84320474       0.01304747      -0.00135846       0.00489101
C        2.45738941       1.31771395       3.80878976       0.00044652      -0.00278381       0.00103159
P        1.43059508       3.63281641       4.76514894      -0.00744028      -0.01247443       0.01042640
C       -0.01522411       5.61411800       3.64333831      -0.00454800       0.00906037      -0.00367204
C       -1.21658475       7.78493787       3.53659532      -0.00350806       0.01222018      -0.00177615
C       -2.46614103       9.90409519       3.64537767       0.00198783      -0.00223359      -0.00476014
C        4.90708851       1.38960638       3.49018729       0.00102086      -0.01090143      -0.00028903
S        3.43064813       3.59932122       2.84735573       0.01058962      -0.00018539       0.00036691
C        1.27367903       7.90287777       3.50197837       0.00969238      -0.00241593       0.00074673
C       -0.00527884       9.95567964       3.57393842      -0.00303707      -0.00156540      -0.00968161
C        7.36577104       1.43874436       3.61436910       0.00581756      -0.00380164       0.00303031
C        6.13494859       3.54615077       3.44020329       0.00774942       0.00338920       0.00566593
C        4.88819105       5.67395038       3.59825481      -0.01409964       0.00700577      -0.00169283
C        3.66830285       7.90136374       3.81343262      -0.00034785       0.00386352      -0.00954385
C        2.45218235      10.03042407       3.73501399      -0.00583680      -0.00034499       0.00511615
C        9.85415793       1.43493296       3.87413043       0.00285375      -0.00116304      -0.00514636
C        8.61158248       3.55082814       3.69963813       0.00196281      -0.01237657      -0.00133788
C        7.37741774       5.67225608       3.63844205       0.00944319       0.00480833       0.00550079
C        6.14825551       7.80166829       3.79434650      -0.01116699      -0.00696136       0.01062970
C        4.92291658       9.97489952       3.88242652       0.00186980       0.00079687       0.00141879
Hg       3.02823175       5.98485693       6.04823324      -0.00660569       0.00845606      -0.01475600
O        2.84861592       5.80968108       8.06360163       0.01444329       0.00747183       0.00588624
