51
Lattice="12.336457 0.0 0.0 -6.168228499999997 10.683685154694365 0.0 0.0 0.0 15.0" Properties=species:S:1:pos:R:3:initial_magmoms:R:1:forces:R:3 energy=-437.76959391933434 free_energy=-437.76959391933434 stress="-0.002786610481764938 -0.0036646726827274773 1.0012983749113542e-05 -0.0036646726827274773 -0.002285220196746037 -3.115714674919103e-05 1.0012983749113542e-05 -3.115714674919103e-05 -3.333753281343686e-05" pbc="T T T"
C        0.00033777       0.02738051       3.72271044       0.00000000       0.00002259       0.00471138      -0.00325638
C       -1.25416403       2.15475065       3.68447976       0.00000000       0.00611139      -0.00686655       0.00156244
C       -2.46488248       4.29880244       3.66270192       0.00000000       0.00361678       0.00128880       0.00778670
C       -3.67753557       6.44312878       3.67764585       0.00000000       0.00152071       0.00958945      -0.00684654
C       -4.91090684       8.58642071       3.73346637       0.00000000      -0.01372468       0.00222428      -0.00411299
C        2.47065288       0.03799932       3.68223004       0.00000000      -0.00581048      -0.00271241       0.00126913
C        1.20115645       2.19229810       3.69904243       0.00000000      -0.00435759       0.00403907      -0.00511202
C        0.01097171       4.23285454       3.82797666       0.00000000       0.00286425       0.00016172      -0.00365294
C       -1.20448725       6.41735003       3.80273316       0.00000000       0.00423952       0.00143322      -0.00287189
C       -2.44582709       8.57295294       3.73780012       0.00000000       0.00331324      -0.00196183      -0.00620043
C        4.93277737       0.03548411       3.62744483       0.00000000       0.00008744       0.00472956      -0.00377808
C        3.66914399       2.11840338       3.29919278       0.00000000      -0.00996380      -0.00895237      -0.00669029
B        1.26618298       6.42686697       4.17588838       0.00000000      -0.00497386       0.00224725       0.00114871
C        0.00871380       8.58482095       3.84582793       0.00000000       0.00034300      -0.00241252      -0.00191136
C        7.39511193       0.04107856       3.68994353       0.00000000      -0.00403642      -0.00333596       0.01125153
C        6.14935888       2.18112836       3.43938658       0.00000000      -0.00109949       0.00927224      -0.00134539
C        4.98871323       4.37075957       3.31562128       0.00000000       0.00429024       0.00856294      -0.01068643
C        3.75456626       6.44794662       3.99724343       0.00000000       0.01069606       0.00095284      -0.00799551
C        2.47583445       8.59623300       3.92520216       0.00000000      -0.00650036      -0.00316765       0.00636772
C        9.86347920       0.02998717       3.72885237       0.00000000       0.00294414       0.00065454       0.01101399
C        8.62074011       2.17120291       3.60421560       0.00000000      -0.00154676      -0.00127843      -0.00940542
C        7.41166304       4.31897883       3.54717741       0.00000000       0.00199302       0.00204877      -0.00280204
C        6.19631887       6.46602817       3.66596753       0.00000000       0.00800420      -0.01222016      -0.01135052
C        4.95197983       8.58130438       3.79897136       0.00000000      -0.00168559      -0.00381830       0.00110629
C       -0.01818879       1.44843646       3.69821441       0.00000000       0.00417573       0.00069095       0.00538425
C       -1.24996347       3.56522126       3.70706405       0.00000000       0.00441947      -0.00529508      -0.00835939
C       -2.45201621       5.72233925       3.70036377       0.00000000       0.00170141       0.00461507       0.00552341
C       -3.67916313       7.86748510       3.71750013       0.00000000      -0.00593090       0.00900767       0.00782627
C       -4.92689121      10.00553669       3.73074265       0.00000000      -0.00577925       0.00198560       0.01182236
C        2.45428227       1.45880579       3.57593692       0.00000000      -0.01380137      -0.00587115      -0.01502864
N        1.16413002       3.52392720       3.88562945       0.00000000      -0.00205733       0.00090505       0.00603836
C        0.00497903       5.67292316       3.90973543       0.00000000       0.00200724      -0.00118473      -0.00839639
C       -1.21162251       7.85511970       3.79977348       0.00000000       0.00686046      -0.00014657       0.00771795
C       -2.45933708      10.00337650       3.68546650       0.00000000       0.00145072       0.00018181       0.01783183
C        4.92077920       1.46396427       3.44847227       0.00000000      -0.00257503       0.00679809      -0.00512804
S        3.58702995       3.70169428       2.60593073       0.00000000       0.00443250      -0.00331618       0.01294517
C        1.25192645       7.90710947       3.98912252       0.00000000      -0.00446843      -0.00212358       0.00202534
C       -0.00073044      10.01133145       3.72303087       0.00000000      -0.00338511      -0.00500043      -0.00414509
C        7.37995241       1.46740690       3.57298025       0.00000000      -0.00193916      -0.00303230      -0.01142899
C        6.16842302       3.61025120       3.41772137       0.00000000      -0.00184158       0.00938340       0.02036399
C        4.93826001       5.77139128       3.64227708       0.00000000       0.01097881      -0.00337024       0.00034231
C        3.71149238       7.84528622       3.91604057       0.00000000      -0.00572109      -0.00211979       0.00241174
C        2.46505909      10.01223614       3.78071777       0.00000000      -0.00126027      -0.00401121      -0.00078202
C        9.85072158       1.44970953       3.66614365       0.00000000       0.00176309       0.00163485      -0.00591450
C        8.63243905       3.59480378       3.59352134       0.00000000       0.00035477       0.00145558       0.00660046
C        7.41947756       5.74180117       3.61457371       0.00000000       0.00672279      -0.00596417       0.01980274
C        6.19013976       7.88225582       3.74363732       0.00000000      -0.00527547      -0.01300195      -0.00297827
C        4.93374187       9.99780204       3.75606499       0.00000000       0.00221949      -0.00028257      -0.01443567
Hg       2.59268599       5.40113379       5.51360730       0.00000000       0.02866177      -0.00864474      -0.04691400
O        1.93570288       4.37791097       8.17942087       1.00000000      -0.00129192       0.00050135      -0.00103757
O        2.94324547       4.14395230       7.42464320       1.00000000      -0.01676887       0.02101539       0.04442412
