52
Lattice="12.336457 0.0 0.0 -6.168228499999997 10.683685154694365 0.0 0.0 0.0 15.0" Properties=species:S:1:pos:R:3:forces:R:3 energy=-444.78029144244493 free_energy=-444.78029144244493 stress="-0.0002566202449790025 -0.0007519570529064588 2.2609026704923964e-05 -0.0007519570529064588 0.0016243404044497033 6.46948301074298e-05 2.2609026704923964e-05 6.46948301074298e-05 -2.0536499854718832e-05" pbc="T T T"
C        0.00958247       0.01646488       3.71565987      -0.00275747       0.00050052      -0.00696208
C       -1.24157877       2.13726034       3.68116381       0.00126842       0.00363893      -0.00631063
C       -2.47275313       4.27995243       3.63555958      -0.00270990      -0.00185723      -0.00482756
C       -3.69823851       6.42278178       3.62976690       0.00218269       0.00139835       0.00488690
C       -4.92203051       8.56834784       3.68089990       0.00091027      -0.01688833      -0.00472355
C        2.47991402       0.05803695       3.73645216      -0.00319027      -0.00126765      -0.00879555
C        1.21917869       2.20443944       3.81818465      -0.00175755       0.00106948      -0.00197142
C        0.00158801       4.22315806       3.80942033      -0.00233014      -0.00049213       0.01572107
C       -1.21837549       6.40213868       3.73046996       0.00381148      -0.00245083       0.00056950
C       -2.45775773       8.56010839       3.70151843       0.00278702       0.00345027      -0.00677737
C        4.93375958       0.01516084       3.73182535       0.00982541      -0.00568051       0.00186395
C        3.73493573       2.15967978       3.75673046      -0.00014443       0.00378779      -0.00547811
B        1.26436286       6.40199398       4.09124062       0.01087938      -0.00357577       0.01285519
C        0.00591351       8.55808778       3.80672864      -0.00165520       0.00376854       0.00601692
C        7.40575783       0.00822892       3.74307991       0.00137028       0.00962639      -0.00307513
C        6.17029448       2.14742861       3.68762820      -0.00811538      -0.00238231      -0.00266151
C        4.95062390       4.25557870       3.73645276       0.00293023       0.00672543       0.00345875
C        3.73152319       6.41189343       4.07639263      -0.00267087       0.00940614      -0.00345022
C        2.47883771       8.56254903       3.90067768      -0.00284741       0.00610786      -0.00723155
C        9.87415150       0.00389797       3.73006433      -0.00087967      -0.00281775      -0.00798638
C        8.63274362       2.14515862       3.65584249       0.00226640      -0.00739845      -0.00309697
C        7.39754805       4.29042225       3.63052073      -0.00138832       0.00695652      -0.00687384
C        6.15673714       6.41215799       3.67476113      -0.00772293      -0.00175042       0.00206081
C        4.94684277       8.54872499       3.76540218       0.00954978       0.00259278      -0.00287736
C        0.00159738       1.44017933       3.72420821      -0.00103161       0.00275463      -0.00264636
C       -1.25472379       3.54904883       3.67793891      -0.00045648       0.00325036      -0.00443522
C       -2.46942908       5.70565349       3.64589666       0.00039582      -0.00178644       0.00977225
C       -3.69361054       7.85074673       3.66203053       0.00669126      -0.00425223       0.00284644
C       -4.91898593      10.00029208       3.71375318      -0.00469888      -0.01370998      -0.00446858
C        2.48956662       1.49449832       3.77801576      -0.00103926       0.00435005      -0.00261594
N        1.15019043       3.53879296       3.96767569      -0.00233536      -0.00077143      -0.00157001
C       -0.00794261       5.66251358       3.84036858       0.00463851      -0.00185413       0.00981982
C       -1.22385283       7.83991405       3.74242412      -0.00124414       0.00103406       0.01716772
C       -2.46505759       9.99823384       3.72399826       0.00438201       0.00279651      -0.00223871
C        4.93604784       1.44576114       3.72538885      -0.00416762      -0.00693979      -0.00596872
O        3.78156763       3.53626326       3.75707163       0.00290241       0.00709945      -0.00845820
C        1.25069311       7.87949320       3.93087579      -0.00312256       0.00319384       0.00448897
C        0.00219788       9.98442757       3.75439868       0.00916943       0.00336749       0.01291227
C        7.39650381       1.43584595       3.68647883      -0.00401011       0.00324311       0.00160644
C        6.16093702       3.57118738       3.67112015      -0.00078907       0.00085651      -0.00048384
C        4.89981281       5.68836421       3.78535783      -0.00334518       0.00437894       0.00640317
C        3.70964988       7.80632656       3.90927259       0.00626235       0.00919328       0.00020814
C        2.47546655       9.98087676       3.78546897      -0.00384271       0.00732686       0.00083101
C        9.86424908       1.42566634       3.67577757       0.00545589      -0.00418009      -0.00150907
C        8.62701214       3.57141242       3.62542574      -0.00200369      -0.00447262      -0.00487685
C        7.39245434       5.71106009       3.62509030      -0.00487343       0.00892187       0.00486412
C        6.17543890       7.84190883       3.69675983       0.00026071      -0.00867758       0.00061448
C        4.94126354       9.97285212       3.73108407       0.00003055       0.00172579      -0.00058734
Hg       2.52594046       5.43323183       5.54430143      -0.00111868       0.00101291      -0.00821655
O        2.50882072       4.33088648       7.32305008      -0.00706499      -0.00841112       0.00786343
O        2.32120477       5.37474589       8.35070184      -0.00615403      -0.00802596       0.00328449
H        3.19198268       5.28807694       8.78029991       0.00149703      -0.01389190       0.00105880
