51
Lattice="12.336457 0.0 0.0 -6.168228499999997 10.683685154694365 0.0 0.0 0.0 15.0" Properties=species:S:1:pos:R:3:initial_magmoms:R:1:forces:R:3 energy=-438.51879181313285 free_energy=-438.51879181313285 stress="-0.003195592420190593 -0.0032752160829309413 5.1106793208725646e-05 -0.0032752160829309413 -0.0006831454492443821 -5.667335947792974e-06 5.1106793208725646e-05 -5.667335947792974e-06 3.901007690686738e-05" pbc="T T T"
C        0.03617172       0.04413667       3.56953180       0.00000000       0.00752708       0.00747229      -0.00308957
C       -1.22120701       2.16299960       3.46600386       0.00000000      -0.00410454       0.00367110       0.00227497
C       -2.43444929       4.31882087       3.43303044       0.00000000      -0.00148893      -0.00362558      -0.00194112
C       -3.64090881       6.46863109       3.47651976       0.00000000      -0.00400018      -0.00412081      -0.00175935
C       -4.87295135       8.61344331       3.54646778       0.00000000       0.00540850       0.00276074       0.00490110
C        2.49814714       0.07847046       3.64045087       0.00000000      -0.00140584      -0.00577233      -0.00608206
C        1.21759749       2.17291747       3.58872317       0.00000000       0.00134910      -0.00901599       0.00199880
C       -0.00204422       4.25753235       3.48281383       0.00000000       0.00108414      -0.00688325      -0.00013875
C       -1.17193452       6.43370423       3.56251268       0.00000000      -0.00944074       0.00136818       0.00162439
C       -2.41148696       8.60261927       3.59212644       0.00000000       0.00018698       0.00056581       0.00437751
C        4.96416296       0.06507166       3.73858890       0.00000000      -0.00055008      -0.00741957      -0.00286008
C        3.69796532       2.20564375       3.92190656       0.00000000       0.00341189      -0.00334711       0.00175101
B        1.25306050       6.42266186       4.03350984       0.00000000      -0.00690488       0.00473048      -0.00795835
C        0.04071182       8.59712140       3.77753932       0.00000000       0.00733156       0.00370721       0.00599312
C        7.43156924       0.05319801       3.73659225       0.00000000      -0.00013129       0.00046677      -0.00285490
C        6.19049975       2.19716288       3.74723760       0.00000000       0.00987764       0.00068308       0.00005791
C        5.04423199       4.36324849       3.91172233       0.00000000       0.00481288       0.00042141       0.00651000
C        3.84081823       6.49173735       4.08929359       0.00000000      -0.00313509      -0.00598351      -0.00007024
C        2.51024851       8.60244892       3.90237410       0.00000000      -0.00180836       0.00490168      -0.00512446
C        9.89803349       0.03878647       3.64802885       0.00000000      -0.00108612       0.00556421       0.00080181
C        8.65634822       2.18138021       3.55750421       0.00000000      -0.00238950       0.00776047       0.00147398
C        7.45375952       4.33326814       3.55787900       0.00000000       0.00569235      -0.00172119       0.00275436
C        6.24813778       6.49140426       3.62377491       0.00000000       0.01210146      -0.00066318       0.00066983
C        4.99107509       8.59711347       3.71421577       0.00000000       0.00055357       0.00395316      -0.00277021
C        0.01582105       1.46512788       3.52271873       0.00000000      -0.00244760       0.00120762       0.00767929
C       -1.21433827       3.57954949       3.41595337       0.00000000       0.00019336      -0.00083562       0.00496473
C       -2.41535540       5.74121015       3.45948009       0.00000000      -0.00940750      -0.00170727       0.00268067
C       -3.64174889       7.89582709       3.51962128       0.00000000       0.00096458      -0.00518859       0.00376255
C       -4.88899023      10.03768388       3.57426153       0.00000000       0.00154543       0.00035595       0.00145430
C        2.46843365       1.51035616       3.72742183       0.00000000       0.00349174      -0.00896455      -0.00001502
O        1.18197727       3.53834702       3.48140133       0.00000000      -0.00466099      -0.01590892      -0.00925980
C        0.03185918       5.66619372       3.63170737       0.00000000      -0.00867916      -0.00031942      -0.00264943
C       -1.17685443       7.87125056       3.64567935       0.00000000       0.00272047       0.00431898       0.00715332
C       -2.43089077      10.03576412       3.66265776       0.00000000      -0.00396298      -0.00127589      -0.00222319
C        4.94548477       1.49885991       3.81565931       0.00000000       0.00649677      -0.00216219       0.00540761
B        3.80468972       3.65374226       4.23986375       0.00000000      -0.01312794       0.00943694       0.00487437
C        1.28130958       7.90429575       3.92452187       0.00000000       0.00400715       0.00314379      -0.00437975
C        0.02990736      10.02980422       3.75534513       0.00000000       0.00209203       0.00154581      -0.00484558
C        7.42363800       1.47691302       3.66919076       0.00000000       0.00384621       0.00034695       0.00768672
C        6.22345369       3.62485471       3.72658631       0.00000000       0.00826650      -0.00210031      -0.00325000
C        5.02427065       5.79690517       3.85145013       0.00000000       0.00745466       0.00232843      -0.00028120
C        3.75750361       7.86712011       3.91468999       0.00000000      -0.00356892      -0.00141413      -0.00093942
C        2.50156181      10.01920921       3.76397183       0.00000000      -0.00081411       0.00478299      -0.00320582
C        9.89109615       1.46130421       3.53898768       0.00000000      -0.00383607       0.00753519       0.00936849
C        8.66810561       3.60910829       3.49348846       0.00000000       0.00181165       0.00295681      -0.00734042
C        7.46442870       5.76201026       3.52311352       0.00000000       0.00545430      -0.00477922       0.00940868
C        6.23153398       7.90606899       3.60833833       0.00000000       0.00550998       0.00444741       0.00018778
C        4.97113716      10.01094292       3.63461779       0.00000000       0.00535871       0.01030876      -0.00624735
Hg       2.53357984       5.14446129       5.22986247       0.00000000      -0.01083967      -0.01319350      -0.00703810
O        1.67727062       3.82079991       8.32883007       1.00000000      -0.00724207       0.00219678      -0.01220674
O        1.23040272       3.52961126       7.20730517       1.00000000      -0.01351814       0.00346317      -0.00128640
