49
Lattice="12.336457 0.0 0.0 -6.168228499999997 10.683685154694365 0.0 0.0 0.0 15.0" Properties=species:S:1:pos:R:3:forces:R:3 energy=-419.4572902484514 free_energy=-419.4572902484514 stress="-0.0020385250544268504 -0.0017520278398931652 -2.0510457535178698e-05 -0.0017520278398931652 -0.010510357094736189 -2.269193578650516e-06 -2.0510457535178698e-05 -2.269193578650516e-06 3.332525956034995e-06" pbc="T T T"
C       -0.01106981      -0.03483916       3.92188567      -0.00216954      -0.00530437       0.00142225
C       -1.24937773       2.12097256       3.96033103      -0.00200543       0.00708448       0.00082845
C       -2.48738716       4.25251787       3.70588444      -0.00118390       0.00286392       0.00070787
C       -3.71242508       6.38016447       3.62888643       0.00549423       0.00254694       0.00252747
C       -4.94650014       8.50178342       3.78167813      -0.00737883       0.00155641      -0.00158869
C        2.45885777      -0.08457264       3.76574499       0.00356998      -0.00024300       0.01347577
C        1.24748323       2.04038066       4.06900851      -0.00066332      -0.00885953       0.00662485
C       -0.04439148       4.27603735       3.88021403      -0.00937814      -0.00498510      -0.00298717
C       -1.23491358       6.37856610       3.47853118      -0.00640705      -0.00662300       0.00858642
C       -2.46220424       8.49339510       3.58003350       0.00354636       0.00348491       0.00267206
C        4.92017641      -0.03800777       3.57738793      -0.00261001       0.00227369      -0.00990891
C        3.65155886       2.02204464       3.50416719       0.00568566      -0.00217361      -0.00857427
S        1.50120468       6.26242431       3.00474685      -0.00077686       0.00172401       0.00271633
C        0.00170950       8.52466609       3.49176616      -0.00208903      -0.00019724      -0.00516633
C        7.37670096       0.00880366       3.64835262       0.00378943       0.00329925      -0.00234320
C        6.13263957       2.13015070       3.49696771      -0.00767163      -0.00166598      -0.00040677
C        4.94548797       4.30663752       3.42521894      -0.00276811      -0.01129632       0.00486997
B        3.66183179       6.40696507       4.21958205      -0.00172966       0.00910026      -0.00693342
C        2.45742193       8.59201101       3.74179976       0.00695397      -0.00616694       0.00406737
C        9.85672728       0.01212543       3.85644447       0.00252272       0.00075228       0.00154158
C        8.61123896       2.13106797       3.71415877       0.00535222       0.00262422       0.00603165
C        7.38157540       4.25746994       3.59401661       0.00465673      -0.00575849       0.00252194
C        6.15544174       6.39089796       3.75803842      -0.00265431      -0.00184399       0.00266028
C        4.91854095       8.53695175       3.90347486      -0.00233678       0.00580734      -0.00221728
C       -0.01025136       1.39399345       4.01303138      -0.00335640      -0.00256614      -0.00147916
C       -1.26158651       3.53765036       3.87099664      -0.00979532       0.00734926       0.00457089
C       -2.47876435       5.66899856       3.59311295      -0.00147088      -0.00371607      -0.00115601
C       -3.70855987       7.79545581       3.65701622       0.00047484       0.00691759       0.00409415
C       -4.95117091       9.91614123       3.83783492      -0.00062227       0.00039691       0.00324486
C        2.45405562       1.32954294       3.81207469       0.00614174      -0.00625396       0.00001053
P        1.39801887       3.66714481       4.69853872       0.01546734       0.01162322      -0.00063015
C       -0.04198202       5.62061624       3.48521910      -0.01022646      -0.00017700      -0.00039865
C       -1.22560107       7.79515958       3.47378830      -0.00107106      -0.00701018      -0.00060503
C       -2.47048671       9.91433366       3.63168347      -0.00029455       0.00406251      -0.00120960
C        4.90726436       1.39687716       3.51307832      -0.00487066      -0.00556099      -0.00869986
S        3.44330992       3.63280919       2.92527276       0.00132777       0.00884009      -0.00062998
C        1.26102534       7.89878429       3.47329865      -0.00504187      -0.00116000      -0.00649815
C       -0.00983332       9.95694510       3.57302019      -0.00129083       0.00324407      -0.00166575
C        7.36762932       1.43180184       3.61849335      -0.00012059       0.00705134      -0.00471559
C        6.14099938       3.54561320       3.48060686      -0.00233154      -0.00389102       0.00121240
C        4.92108846       5.67096398       3.74930999      -0.00156545      -0.00134797      -0.00617141
C        3.66474303       7.87907977       3.91866199       0.00725277       0.00304300      -0.00230028
C        2.44682276      10.01267183       3.76029789       0.00489989      -0.00623406       0.00024713
C        9.85237064       1.42742628       3.85210746       0.00466739       0.00335809       0.00259069
C        8.61370893       3.54664765       3.66941419       0.00684005      -0.00002210       0.00497660
C        7.38883525       5.67558019       3.65551975       0.00614908      -0.00357832       0.00094788
C        6.15351900       7.80728042       3.84604219      -0.00894185       0.00213016       0.00261431
C        4.92142915       9.96931403       3.90033045      -0.00149108      -0.00062039      -0.00654338
Hg       2.97048161       5.81910351       6.23764887       0.00952123      -0.00387820      -0.00293468
