50
Lattice="12.336457 0.0 0.0 -6.168228499999997 10.683685154694365 0.0 0.0 0.0 15.0" Properties=species:S:1:pos:R:3:forces:R:3 energy=-430.1310133843707 free_energy=-430.1310133843707 stress="-0.0009307491382303181 -0.003950135165547218 1.164087004224144e-05 -0.003950135165547218 0.0007156853589274525 1.8735161457159348e-05 1.164087004224144e-05 1.8735161457159348e-05 -3.4943841573057526e-06" pbc="T T T"
C       -0.00515301      -0.00691210       3.75131373      -0.00886959       0.00063297       0.00454005
C       -1.26509139       2.11718839       3.76548314       0.00574733      -0.01104560      -0.00030937
C       -2.48690146       4.26609228       3.76707462       0.01666531       0.00218269      -0.00496110
C       -3.69575733       6.40979551       3.74932076      -0.00632575      -0.00810958       0.00340887
C       -4.92056962       8.55333022       3.76314823      -0.00292347       0.00967289       0.00221660
C        2.45441542       0.02110642       3.72853916       0.00072976      -0.00239675       0.00571428
C        1.17494470       2.12744211       3.74173904       0.00577205      -0.00111205       0.00807039
C       -0.04851322       4.19950198       3.95270963      -0.00505997       0.00497615      -0.00130192
C       -1.21999067       6.37468284       3.88467698       0.00230114      -0.00235943       0.00084245
C       -2.45543312       8.54247267       3.79025471       0.01277404      -0.01259313      -0.00135862
C        4.92300452       0.00284795       3.65796868       0.00245978       0.00206443       0.00736957
C        3.65954035       2.12657013       3.36116581       0.00582560      -0.00832749      -0.00995897
B        1.19380894       6.41101761       4.31823230      -0.00370241       0.01076212      -0.00515452
C        0.00515943       8.54098984       3.86916563       0.00360293      -0.00462954      -0.00756715
C        7.38923765      -0.00363734       3.70178403      -0.00293795      -0.00026173      -0.01798288
C        6.14147485       2.14576001       3.49190981      -0.00254868       0.00613702       0.01771094
C        4.94336010       4.33549368       3.33932369       0.00545480       0.00394353      -0.01723864
N        3.74183430       6.43052850       3.66584512       0.00818969       0.00621199       0.00282069
C        2.47823990       8.53289362       3.84891219      -0.00725342       0.00822142      -0.00304679
C        9.85577665      -0.01260700       3.72889265       0.00290701      -0.00878999      -0.00030964
C        8.60984334       2.13122648       3.66588203       0.00043816       0.00958108      -0.00041522
C        7.38921951       4.28029765       3.61772807      -0.00443274       0.00228417       0.00285948
C        6.18074993       6.43570133       3.66402430      -0.00426616       0.00967141      -0.00533646
C        4.94454976       8.54012136       3.74521255      -0.01236528      -0.00514461      -0.01431053
C       -0.02325444       1.42016831       3.75655343       0.00653650      -0.00383473       0.00482457
C       -1.26077733       3.53191370       3.82393298       0.00742461      -0.00910085      -0.00491343
C       -2.46817478       5.68541214       3.79062851       0.00352127      -0.00072483       0.00175266
C       -3.68849123       7.83487951       3.77220120       0.00132901      -0.00423856       0.00360092
C       -4.93378409       9.98056189       3.76393946      -0.00855870       0.00965923       0.00324346
C        2.42578159       1.45051187       3.62877070       0.00647083      -0.00471615      -0.00380864
O        1.14135757       3.49279447       3.96980084      -0.01496438      -0.00216311       0.00353881
C       -0.01914476       5.60960420       4.01122720      -0.00072560       0.00686774       0.00639523
C       -1.21851013       7.81233549       3.85607538       0.01140830      -0.01051611       0.00755446
C       -2.47293782       9.97545674       3.73042572       0.00556062      -0.00693108      -0.00251670
C        4.90726558       1.43298205       3.48781246       0.00383302       0.00387821       0.01103970
P        3.57606041       3.65667312       2.52814670      -0.00050765      -0.00544086       0.00589204
C        1.25272883       7.85106332       3.99280051      -0.00064701       0.00820221       0.00389988
C       -0.01122466       9.97156894       3.73764843      -0.00089294      -0.00409425      -0.00327475
C        7.37561003       1.42449830       3.61477575      -0.00278575       0.00531692      -0.00579554
C        6.14616444       3.57953436       3.47525164      -0.00268974       0.00155334       0.00719897
C        4.92535789       5.77122024       3.53939664       0.00306370       0.00489720      -0.00659744
C        3.72249821       7.78890133       3.75670290      -0.01356716       0.00285909       0.00689079
C        2.46160812       9.95674299       3.75158832      -0.00156652       0.00320279      -0.00229114
C        9.84750067       1.41468000       3.71617657       0.00087265      -0.00633477       0.00404096
C        8.61275190       3.55917414       3.67895603       0.00736797       0.01402077       0.00245388
C        7.40329888       5.70506995       3.67674785      -0.01175033      -0.00026685      -0.00721711
C        6.18446982       7.84653048       3.73412730      -0.00562466       0.00930747      -0.01240231
C        4.92693875       9.96032077       3.74862789      -0.00296297      -0.01084851       0.00179366
Hg       2.38676583       5.57099513       5.92162996       0.00291386      -0.00138724       0.01297358
O        3.00385585       5.01762321       7.76356015      -0.00524115      -0.01073901      -0.00457801
