51
Lattice="12.336457 0.0 0.0 -6.168228499999997 10.683685154694365 0.0 0.0 0.0 15.0" Properties=species:S:1:pos:R:3:initial_magmoms:R:1:forces:R:3 energy=-429.22095019948955 free_energy=-429.22095019948955 stress="-0.0008236722099101464 -0.0016820111611528447 3.4617054276480734e-05 -0.0016820111611528447 -0.010268084101289798 -2.8541822870364863e-06 3.4617054276480734e-05 -2.8541822870364863e-06 -8.642456206159354e-06" pbc="T T T"
C       -0.07223484      -0.05700930       3.86566674       0.00000000       0.00102273       0.00013075       0.01502320
C       -1.31169230       2.09728315       3.94432534       0.00000000      -0.00768339       0.00499447      -0.00346555
C       -2.55188500       4.22907556       3.70876314       0.00000000       0.00417574       0.00663895      -0.00987515
C       -3.77599048       6.35504072       3.59259646       0.00000000      -0.00447459      -0.00134708      -0.00485536
C       -5.01001589       8.47751073       3.71807372       0.00000000      -0.00310149      -0.00518312      -0.00574790
C        2.39894008      -0.10864045       3.72432458       0.00000000      -0.00065130      -0.00144899      -0.00294373
C        1.18845637       2.01577995       4.05447713       0.00000000      -0.00059765      -0.00185818      -0.00201619
C       -0.10925184       4.25305798       3.93230327       0.00000000       0.00471088      -0.00234899      -0.00814891
C       -1.29173844       6.35076731       3.48596705       0.00000000       0.00467828      -0.00314243      -0.00217706
C       -2.52308812       8.46786377       3.53669529       0.00000000       0.00291045      -0.01145616       0.00323321
C        4.85920701      -0.06370975       3.50458476       0.00000000      -0.00708622       0.00594544       0.01263504
C        3.58685139       1.99551954       3.44075652       0.00000000       0.00415444       0.00440154      -0.00558405
S        1.46036421       6.21348488       3.02227999       0.00000000       0.00288114      -0.00547450       0.00135343
C       -0.05786121       8.49703898       3.42959798       0.00000000       0.00027565       0.00865874       0.00112787
C        7.31498739      -0.01250521       3.56264952       0.00000000       0.00098649      -0.00267837      -0.01143130
C        6.06871582       2.10672317       3.41716322       0.00000000       0.00263920      -0.00065541      -0.00353615
C        4.88067014       4.28161316       3.30016754       0.00000000       0.00552930       0.00108009       0.00752999
B        3.55825401       6.37761847       4.05353985       0.00000000       0.00345676      -0.00209270       0.01011868
C        2.39915925       8.57469247       3.63633936       0.00000000       0.00011803       0.00140438      -0.00009304
C        9.79642979      -0.00770019       3.77337155       0.00000000       0.00292522       0.00240611       0.00663643
C        8.54874800       2.10919480       3.66234010       0.00000000      -0.00868956      -0.00043372       0.00363951
C        7.31636687       4.23326138       3.53143065       0.00000000       0.00553940       0.00297900      -0.01012547
C        6.08297849       6.36629265       3.64965686       0.00000000       0.00146076       0.00154231      -0.00103962
C        4.85514805       8.51641296       3.79898745       0.00000000      -0.00121857      -0.00234349       0.00234960
C       -0.07062516       1.37037108       3.98586394       0.00000000      -0.00600578       0.00404717      -0.00128254
C       -1.32736880       3.51492028       3.89274441       0.00000000       0.00160363       0.00552570      -0.00460027
C       -2.54010064       5.64436274       3.58981569       0.00000000      -0.00033391       0.00509193       0.00026703
C       -3.77052796       7.77075105       3.61176237       0.00000000      -0.00286115      -0.00507836      -0.00370195
C       -5.01244898       9.89221285       3.78585878       0.00000000      -0.00069279      -0.00408138       0.00099357
C        2.39401804       1.30534170       3.77815982       0.00000000       0.00230830       0.00306808      -0.00893099
P        1.34384340       3.62953872       4.71988625       0.00000000      -0.00034444       0.00090649      -0.00362210
C       -0.09720756       5.59308895       3.52673092       0.00000000       0.00312445      -0.00349768      -0.00471290
C       -1.28635963       7.76722773       3.44120971       0.00000000       0.00809419      -0.00386679       0.00776697
C       -2.53145095       9.88945481       3.57759800       0.00000000      -0.00296582      -0.00785266      -0.00392774
C        4.84417532       1.37073891       3.43709276       0.00000000       0.00252377       0.00452169      -0.00143582
S        3.37264241       3.59232038       2.82967470       0.00000000       0.00061696      -0.00536499       0.00251396
C        1.20097761       7.87341324       3.40730925       0.00000000      -0.00311211       0.00051953       0.00559914
C       -0.07025404       9.93191727       3.49274099       0.00000000      -0.00591705       0.00990437       0.00181221
C        7.30509642       1.41056243       3.54479245       0.00000000      -0.00329653      -0.00596605      -0.00433029
C        6.07713308       3.52194675       3.38945886       0.00000000       0.00578907       0.00129423       0.00352070
C        4.84455757       5.65009523       3.60126261       0.00000000       0.00555294      -0.00029673       0.01075498
C        3.60264287       7.86194431       3.79751130       0.00000000      -0.00178286      -0.00229574       0.00226915
C        2.38726845       9.99476479       3.66172944       0.00000000       0.00334519       0.00118248       0.00878260
C        9.79127818       1.40637299       3.80127197       0.00000000      -0.00971110       0.00234938       0.01035327
C        8.54915034       3.52412295       3.63633739       0.00000000       0.00319914       0.00247063       0.00162158
C        7.32246998       5.65090528       3.58831010       0.00000000      -0.00190898       0.00162157      -0.00632382
C        6.08848174       7.78352076       3.75129153       0.00000000      -0.00270132      -0.00241163       0.00158121
C        4.86011170       9.94933282       3.81734581       0.00000000       0.00349737      -0.00076752      -0.00154549
Hg       3.04661313       5.79884264       6.14030278       0.00000000      -0.00221611      -0.00083126      -0.01951680
O        3.82131180       6.21493758       8.91513682       1.00000000      -0.00439284      -0.00069017      -0.00425305
O        5.01997353       6.53081606       9.01386333       1.00000000      -0.00537394       0.00077907       0.01773996
