53
Lattice="12.336457 0.0 0.0 -6.168228499999997 10.683685154694365 0.0 0.0 0.0 15.0" Properties=species:S:1:pos:R:3:forces:R:3 energy=-450.21356198865345 free_energy=-450.21356198865345 stress="-0.005080878299208514 0.004519468941102921 -5.052921592864466e-06 0.004519468941102921 -0.0014048076573266826 -7.203818766208915e-07 -5.052921592864466e-06 -7.203818766208915e-07 2.1622213945312398e-05" pbc="T T T"
C       -0.00369375       0.00295676       3.72302152       0.00285962      -0.00016707      -0.01053625
C       -1.21590673       2.15113899       3.79034567       0.00231861      -0.00187657       0.00700362
C       -2.43739289       4.28162743       3.76063678      -0.00624256       0.00293027      -0.00629937
C       -3.69582835       6.41203779       3.66801649      -0.00086805      -0.00403045       0.00041863
C       -4.95822874       8.54366018       3.62336646       0.00503011       0.00386589       0.00117517
C        2.45815267       0.01179824       3.75885714      -0.00618105       0.00913777       0.00591622
C        1.23985797       2.16484712       3.86986950       0.01014303       0.00466273       0.00242863
C        0.02425295       4.32882703       3.89396887       0.00233224       0.00351867      -0.00153925
C       -1.24498112       6.43393896       3.77176509       0.00097566       0.00186083      -0.00316060
C       -2.48344809       8.55727378       3.70714115      -0.00314572      -0.00278906      -0.00087446
C        4.93515543       0.00217558       3.76926097      -0.00608987      -0.00349867      -0.00076373
C        3.72505394       2.13274763       3.85276942       0.00191779      -0.00225407       0.00240257
B        2.55060077       4.26150944       4.26727755      -0.00273582      -0.00205854      -0.00766680
O        1.09034361       6.51521085       4.07479471       0.01026440      -0.01381250      -0.00652494
C       -0.02401905       8.55492095       3.74589866       0.00356994      -0.00260162       0.00374854
C        7.40972350      -0.01186218       3.77930457       0.00565347      -0.00277906       0.00780899
C        6.20671922       2.11012363       3.78780617      -0.00378161       0.00843127       0.00452108
C        5.01197584       4.22765150       3.71447438      -0.00921025      -0.00644285       0.00112065
S        3.50612837       6.20749174       2.93544977      -0.00381553       0.00027556      -0.01023769
C        2.42882261       8.52234013       3.68420391      -0.00946290       0.00208327       0.00050128
C        9.87341612      -0.00942830       3.73768930       0.00258744       0.00027031       0.00578723
C        8.66446548       2.13052987       3.77248543      -0.00709771      -0.00401864       0.00261498
C        7.44883472       4.26275703       3.70192964       0.00210383      -0.00412850      -0.00030813
C        6.18267384       6.39575035       3.52389221       0.00912972      -0.00764736      -0.00944238
C        4.90699019       8.52331473       3.54441715       0.00092256       0.00811478       0.00275826
C        0.00626560       1.43226142       3.79336977       0.00914919      -0.00061186       0.00066774
C       -1.20577630       3.58745927       3.80953457      -0.00108170       0.00538142      -0.00919734
C       -2.46162861       5.70144173       3.73270902      -0.00297211       0.00243697      -0.00260699
C       -3.71765863       7.83843851       3.65814858       0.00082260      -0.00553808       0.01189370
C       -4.94451279       9.97500596       3.69875473       0.00089696       0.00462447      -0.00826724
C        2.47000755       1.43802936       3.84419872       0.00539457       0.00526130      -0.00252716
C        1.23158454       3.59477048       3.97519364       0.00504874       0.00433321      -0.00485358
C       -0.03387515       5.75424363       3.89015865       0.00036374      -0.00071923       0.00188999
C       -1.26100607       7.85133749       3.73837775       0.00209120       0.00186056      -0.00160840
C       -2.47827274       9.98391716       3.74086216      -0.01252041       0.00055379       0.00283085
C        4.95977568       1.41353586       3.80073887      -0.00154984       0.00050993      -0.00327117
C        3.78918215       3.54306989       3.89044245      -0.01033413      -0.00518630      -0.00151818
C        1.16842251       7.85951112       3.77435687      -0.00206288      -0.01062340       0.00455105
C        0.00066257       9.97900359       3.75808203       0.00221924      -0.00114590       0.00270806
C        7.43234860       1.41025091       3.78403474      -0.00649254      -0.00162772       0.00310140
C        6.23911782       3.52840193       3.74171410      -0.00311213       0.00547836      -0.00447754
C        5.01621697       5.61510331       3.46457527       0.00006698      -0.00596896       0.00835926
C        3.65862359       7.85455354       3.45522773      -0.00583668       0.01460160       0.00859772
C        2.46324658       9.95329374       3.75052409       0.00516073       0.00053343       0.00753968
C        9.89014817       1.42343697       3.77061529      -0.00359195      -0.00137189       0.00094579
C        8.67414807       3.55490492       3.74622046      -0.00391926      -0.00352009       0.00014583
C        7.42537524       5.68661478       3.63356576       0.00530505      -0.00833814       0.00495812
C        6.14900717       7.82069338       3.53165933       0.00515013       0.00193243       0.00324443
C        4.92874319       9.96337909       3.67562386       0.00266473       0.00565911      -0.00370764
Hg       2.63044705       5.26175069       6.17016457       0.00911923       0.00776090      -0.00314923
O        2.64543738       6.25398941       8.01693484       0.00855924      -0.00440585      -0.00402989
O        2.37449922       5.17567244       8.97965945      -0.00421644      -0.00344412      -0.00679481
H        3.25278303       5.13346617       9.40530377      -0.00549961       0.00452770       0.00372326
