52
Lattice="12.336457 0.0 0.0 -6.168228499999997 10.683685154694365 0.0 0.0 0.0 15.0" Properties=species:S:1:pos:R:3:forces:R:3 energy=-442.21163176810177 free_energy=-442.21163176810177 stress="-0.002398004242865524 -0.0035872453846406455 -1.8058692668565997e-05 -0.0035872453846406455 -0.0025685133130385106 6.379054368937473e-05 -1.8058692668565997e-05 6.379054368937473e-05 2.3490100208254516e-05" pbc="T T T"
C        0.00066759      -0.01277222       3.76501671      -0.00024250       0.00603656      -0.00518917
C       -1.25150527       2.11684137       3.73511061      -0.00109615       0.00073726       0.00788995
C       -2.46194172       4.26069979       3.74944504      -0.00012838      -0.00024791      -0.00599271
C       -3.67594302       6.40391616       3.77402853       0.00276171       0.00159094      -0.01509181
C       -4.91158685       8.54609042       3.80081125      -0.00010980       0.00276526       0.00184528
C        2.47092425      -0.00312265       3.73209209      -0.00366863      -0.00994217       0.01284276
C        1.20267581       2.15250740       3.73983558       0.00556545      -0.00285917       0.00195753
C        0.01807431       4.19466193       3.87696406      -0.00296860       0.00288706      -0.00729328
C       -1.19817042       6.37873995       3.86410497       0.00657042      -0.01190825       0.00182042
C       -2.44439317       8.53328108       3.80162483       0.00934348      -0.00114011      -0.00080375
C        4.93408894      -0.00378501       3.68500210      -0.00505943       0.00079964      -0.00060020
C        3.67107256       2.07887164       3.36672862      -0.00687506       0.00844510       0.00810467
B        1.28695453       6.38762048       4.19158194       0.00025581       0.01924200       0.00136983
C        0.01206364       8.54562580       3.88608967      -0.00656377      -0.00766409       0.00557497
C        7.39585849       0.00436865       3.74229997       0.00363047      -0.00541304      -0.00001929
C        6.14972210       2.14528475       3.52367027      -0.00068821      -0.00207890      -0.00275100
C        4.98830648       4.33317712       3.42415231       0.00182623       0.00545347      -0.00261383
C        3.74109560       6.41061382       4.07240919      -0.00180622       0.01049162       0.00268050
C        2.47723765       8.56073425       3.96246895      -0.00285850      -0.00437599      -0.00561368
C        9.86496411      -0.00731592       3.77040879       0.00324803       0.00080216       0.00082023
C        8.62243945       2.13371002       3.67318942       0.00118876       0.01048686       0.00331519
C        7.41254822       4.28053630       3.65624118       0.00057325      -0.00449439      -0.00060413
C        6.19502774       6.42514813       3.76270313       0.00021747      -0.00234109       0.00525705
C        4.95100446       8.54176415       3.84885094      -0.00113838       0.00187992       0.00476173
C       -0.01695364       1.40858757       3.74024891       0.00239430       0.00466050       0.01101583
C       -1.24619500       3.52736665       3.77165384      -0.00353970       0.00001682      -0.00571380
C       -2.44870815       5.68407906       3.78685695       0.00211382      -0.00498241       0.00367784
C       -3.67862179       7.82823470       3.79591963       0.00629452       0.00692644       0.00313730
C       -4.92688983       9.96483321       3.78224346      -0.00644008       0.00123276       0.00272719
C        2.45415192       1.41703029       3.62373285       0.00218224      -0.01055628       0.00089970
N        1.16915605       3.48447214       3.91539192      -0.00592093      -0.00118962      -0.00902497
C        0.01557444       5.63484135       3.95181824       0.01416243       0.00299591      -0.00672845
C       -1.20849021       7.81621425       3.85552498       0.00181364      -0.01415553      -0.00002282
C       -2.45817601       9.96339668       3.74308766      -0.00142477      -0.00275634       0.00318263
C        4.92221488       1.42591261       3.51859600      -0.00652211       0.00296496       0.00115992
S        3.58845398       3.67348917       2.70518012      -0.00482591       0.01719769      -0.00334735
C        1.25619413       7.86838735       4.01551574      -0.00502394       0.00296424      -0.00175938
C        0.00097188       9.97302548       3.77257088      -0.00335381      -0.00630876      -0.00192288
C        7.38081349       1.43089470       3.64065590       0.00433269       0.00210898      -0.00193895
C        6.16878315       3.57316062       3.52512953      -0.00090908      -0.00140885       0.00304362
C        4.93702313       5.73214411       3.74059567      -0.00510829       0.00764810      -0.00248703
C        3.70991940       7.80939316       3.96488556      -0.00391031       0.00564477      -0.00385328
C        2.46616784       9.97696162       3.82311686       0.00537399      -0.00838209      -0.00077517
C        9.85303783       1.41237854       3.71525617      -0.00271291       0.00399592       0.01732053
C        8.63431582       3.55685420       3.68723036       0.00177422       0.00598536      -0.00845154
C        7.42023515       5.70207102       3.72447396       0.00225936      -0.00559178      -0.00584056
C        6.18932368       7.84193465       3.81559283      -0.00014523      -0.00131373      -0.00125411
C        4.93394913       9.95847131       3.79432391       0.00373209       0.00234029       0.01030548
Hg       2.60647481       5.45158173       5.61767102      -0.01079935      -0.00674896      -0.00501325
O        2.46104643       4.52098456       7.47968530       0.00823015      -0.00497159      -0.01072647
O        2.41515874       5.66842498       8.40556870       0.00653620      -0.01557297      -0.00438622
H        3.27123163       5.51245545       8.84648253      -0.00254066      -0.00189659       0.00510892
