50
Lattice="12.336457 0.0 0.0 -6.168228499999997 10.683685154694365 0.0 0.0 0.0 15.0" Properties=species:S:1:pos:R:3:forces:R:3 energy=-429.7811760232695 free_energy=-429.7811760232695 stress="-0.001326002158840887 -0.004065512281963815 -2.039642778467168e-05 -0.004065512281963815 -0.0013302971123985313 1.0282949449092549e-05 -2.039642778467168e-05 1.0282949449092549e-05 2.3387751220198113e-05" pbc="T T T"
C        0.01493736       0.00068037       3.80399702      -0.00741743       0.00856726      -0.00404541
C       -1.24073869       2.13269786       3.77447474      -0.00202405       0.00178874      -0.00239131
C       -2.45423128       4.28209684       3.73438416       0.00400929       0.00322905      -0.00853397
C       -3.66439664       6.42363678       3.73447684       0.00497603      -0.00268570       0.00597143
C       -4.89871295       8.56310487       3.79963247       0.00662411       0.00103483       0.00712589
C        2.47781176       0.02378838       3.74393992       0.00224899       0.00637592      -0.00277946
C        1.19371158       2.12617340       3.73406766       0.00126383       0.00349003      -0.00575490
C       -0.01277331       4.21525158       3.84460610      -0.00639405      -0.00254922      -0.00363844
C       -1.18121794       6.38676473       3.80444194      -0.00495399       0.00253506      -0.00615078
C       -2.43141993       8.55056279       3.77579603       0.00142564      -0.00209858       0.00114175
C        4.94258810       0.01780491       3.67315732      -0.00382247      -0.00581751      -0.00700675
C        3.67854856       2.10847684       3.34526270      -0.00110357       0.00819208       0.00747617
B        1.30136978       6.40224258       4.07473180       0.01425097      -0.00910981       0.00211074
C        0.02367608       8.56058697       3.84047950      -0.00348700      -0.00070317      -0.01245976
C        7.40620395       0.02351843       3.73349233       0.00032553      -0.00214863       0.00123954
C        6.16003442       2.16587132       3.49733807      -0.00704257      -0.01262608      -0.00128118
C        5.00420052       4.35544698       3.35778502      -0.00222972      -0.00116735       0.01177836
C        3.75464161       6.42501045       4.01090510       0.00445688      -0.00242791       0.00241466
C        2.48980697       8.57678412       3.93910549      -0.00102542       0.00652918       0.00015305
C        9.87698793       0.01081348       3.80060551       0.00392054      -0.00056949       0.00009491
C        8.63321874       2.15287277       3.67775047       0.00647576       0.00175604       0.00508295
C        7.42393717       4.30032073       3.61740203      -0.00421829       0.00385837      -0.00159095
C        6.20661829       6.44429308       3.72566233       0.00237559       0.00523228       0.00663673
C        4.96325536       8.55653354       3.86091779      -0.00285411      -0.00501056      -0.00159100
C       -0.00098002       1.42729631       3.78002799      -0.00184345       0.00940904      -0.00305529
C       -1.23173434       3.54617611       3.78138125      -0.00406026      -0.00170585      -0.00654423
C       -2.43300808       5.70026686       3.74767330       0.00205940       0.00009947      -0.00343645
C       -3.66543653       7.84706995       3.77122563       0.00655604      -0.00492940       0.00817342
C       -4.91403191       9.98659106       3.80332671      -0.00191737       0.00727910      -0.00656381
C        2.44712143       1.45217770       3.62935657       0.00151163       0.00759382      -0.00348655
O        1.15683343       3.48899257       3.88567020      -0.00387977      -0.00024996      -0.00292322
C        0.03490103       5.62601148       3.86721307      -0.00882065      -0.00041010       0.00300978
C       -1.19359254       7.82512096       3.80624474      -0.00427121       0.00096347      -0.00210882
C       -2.44967601       9.98484877       3.73716147      -0.00071879      -0.00265997      -0.00390444
C        4.92437467       1.45099069       3.50158262      -0.00884180      -0.00672950       0.00203655
S        3.61118362       3.68358975       2.63580679       0.00587877      -0.00700925       0.00522760
C        1.26815746       7.87974424       3.94927535       0.00035859       0.00438242       0.00065265
C        0.01031860       9.99180499       3.74944279      -0.00229937      -0.00169011       0.00663144
C        7.39110409       1.45072287       3.63144620       0.00290711      -0.00405236       0.00581527
C        6.18140616       3.59357265       3.48076391      -0.00656225      -0.00780861       0.00161461
C        4.95104382       5.75529230       3.67820484       0.00478454       0.00028109       0.00951830
C        3.72263235       7.82502988       3.94592231      -0.00386236      -0.00357089      -0.00375939
C        2.47748128       9.99524454       3.82611395       0.00275302       0.00540160       0.00040621
C        9.87037146       1.43442045       3.74959261       0.00498943      -0.00254903       0.00045921
C        8.64561757       3.57656032       3.67059930       0.00220146       0.00679602       0.00600272
C        7.43344503       5.72183594       3.68236954      -0.00004691       0.00606538       0.00283076
C        6.20265815       7.85965884       3.80987600       0.00194751       0.00312587      -0.00650324
C        4.94712792       9.97525352       3.82870690      -0.00318526      -0.00405071       0.00624686
Hg       2.62400904       5.39669266       5.50824593      -0.00783987      -0.00154009      -0.00272740
O        1.75626548       4.31796077       6.96754755       0.01642134      -0.00811627      -0.00761482
