52
Lattice="12.336457 0.0 0.0 -6.168228499999997 10.683685154694365 0.0 0.0 0.0 15.0" Properties=species:S:1:pos:R:3:forces:R:3 energy=-440.83263386362455 free_energy=-440.83263386362455 stress="-0.001120804817784773 -0.0032289452715261557 -1.3020995434326851e-05 -0.0032289452715261557 -0.00139433483484655 4.457763319747002e-05 -1.3020995434326851e-05 4.457763319747002e-05 2.6481606780605307e-05" pbc="T T T"
C        0.00627337      -0.01853214       3.75964559      -0.00049474      -0.00162190       0.00271031
C       -1.24336507       2.11352068       3.74617128      -0.00591950       0.00176445       0.00264143
C       -2.46169440       4.26262159       3.75262314      -0.00090253       0.00434131      -0.00142665
C       -3.67912308       6.40095960       3.76920671      -0.00412680      -0.00156813      -0.00282639
C       -4.91161728       8.54072889       3.79269830       0.00207950      -0.00189646      -0.00265586
C        2.46607375       0.00383299       3.72203169       0.00664168       0.00486378      -0.00199113
C        1.19114326       2.11025553       3.72082797      -0.00189903       0.00006134       0.00574438
C       -0.02120829       4.19878566       3.88685451       0.00801813      -0.00811369      -0.00701203
C       -1.19225937       6.36742147       3.84792748       0.00003922       0.00161281      -0.00666474
C       -2.44301677       8.53187386       3.78593394      -0.00406196      -0.00418000       0.00409073
C        4.93630992      -0.00392577       3.67740986       0.00673498      -0.00083740      -0.00681864
C        3.67737539       2.11264832       3.38825243       0.00427742       0.00451205       0.00521035
B        1.30174979       6.38395870       4.15232464      -0.00245144      -0.00667010      -0.00114222
C        0.01387056       8.54086364       3.86465088       0.00294766       0.00694356      -0.00560056
C        7.40180939       0.00190424       3.74193301      -0.00368166       0.00510109      -0.00674469
C        6.16130152       2.13904659       3.53946348      -0.00582199      -0.00529021      -0.00101025
C        4.96276335       4.30902645       3.49064733       0.00216979       0.00043777      -0.00054466
C        3.73379833       6.41292586       4.08201740      -0.00290621      -0.01283952       0.00041466
C        2.47905638       8.56019302       3.94865396       0.00557017       0.01058194      -0.00206811
C        9.87147406      -0.00968805       3.77654103      -0.00087027       0.00056073       0.00625835
C        8.63108664       2.13060984       3.68490584      -0.00847056      -0.00596261       0.00861045
C        7.41175903       4.27405499       3.66656817      -0.00712418       0.00316794       0.00041588
C        6.18792069       6.41786149       3.77544033       0.00115421       0.00736649       0.00609990
C        4.95105438       8.53672342       3.84863053       0.00261276      -0.00198893       0.00480038
C       -0.00770299       1.40807068       3.73780234      -0.00514424       0.00075948       0.00152779
C       -1.23626995       3.52909571       3.78163155       0.00266107       0.00152478       0.00019778
C       -2.44437061       5.68001204       3.78251031      -0.00169645       0.00519047      -0.00712557
C       -3.67790218       7.82551313       3.78538495      -0.00396602      -0.00758523       0.00279965
C       -4.92343136       9.96564968       3.77058068       0.00547730      -0.00073882       0.00280248
C        2.44007369       1.43224630       3.61762980       0.00152939       0.00992094       0.00744180
O        1.15629272       3.47182721       3.95975312       0.01257317      -0.00000301      -0.00549490
C        0.02404605       5.60868877       3.93038929      -0.00453806      -0.00856413      -0.00071847
C       -1.20554137       7.80597494       3.83671894       0.00032978       0.00300858      -0.00892752
C       -2.46023307       9.96371194       3.73091364       0.00688727      -0.00053495       0.00541046
C        4.92401303       1.42627005       3.52371729      -0.00018133      -0.00246503       0.00029590
P        3.60909315       3.67690011       2.62120487      -0.00121387       0.00234293       0.00389517
C        1.25752907       7.86151435       3.98664720       0.00515136       0.00858096       0.00548816
C        0.00108402       9.97153146       3.76089530       0.00338598       0.00570852       0.00387437
C        7.39463456       1.42465340       3.64959717      -0.00941046      -0.00301866       0.00041750
C        6.17458875       3.56549553       3.54874775      -0.00424046      -0.00578693       0.00537906
C        4.93263176       5.72657328       3.76268578       0.00759559      -0.00041703      -0.00259103
C        3.71059259       7.81235655       3.96035848       0.00314537      -0.00587258       0.00537976
C        2.47123364       9.97569190       3.82134873      -0.00261508       0.01281012      -0.00719243
C        9.86804982       1.41415871       3.72847663      -0.00456402      -0.00210841       0.00531570
C        8.63687371       3.55655281       3.69399247      -0.00518746      -0.00049528      -0.00003897
C        7.41898721       5.69792897       3.73236815      -0.00519452       0.00654554      -0.01002505
C        6.18985928       7.83428937       3.81421108       0.00245536       0.00523478       0.00484788
C        4.93979303       9.95467043       3.79645508      -0.00106351      -0.00185044       0.00163217
Hg       2.58137403       5.51733197       5.67030085      -0.00455509      -0.00927144      -0.00857354
O        2.41133982       4.61072918       7.53568978       0.01336172      -0.00490735      -0.00797731
O        2.39535399       5.76556890       8.45517441       0.00107851       0.00312168       0.00643588
H        3.23808533       5.58272622       8.91161380      -0.00557594      -0.01147581      -0.00496760
