51
Lattice="12.336457 0.0 0.0 -6.168228499999997 10.683685154694365 0.0 0.0 0.0 15.0" Properties=species:S:1:pos:R:3:initial_magmoms:R:1:forces:R:3 energy=-438.85663705250727 free_energy=-438.85663705250727 stress="-0.002981920205646176 -0.0018999151572648618 -1.1406189367604731e-05 -0.0018999151572648618 -0.0006350212520983053 7.11704375481115e-05 -1.1406189367604731e-05 7.11704375481115e-05 1.2882655831915316e-05" pbc="T T T"
C       -0.07517437      -0.09518413       3.72533477       0.00000000      -0.01450878       0.05249907       0.04708911
C       -1.32031779       2.03926282       3.79978978       0.00000000      -0.03881743      -0.03489073      -0.04057531
C       -2.56723110       4.18165899       3.70521414       0.00000000       0.04644032      -0.00735058      -0.00238641
C       -3.77948925       6.32227530       3.60111078       0.00000000       0.01149067      -0.01020724      -0.01354478
C       -5.00726246       8.45837801       3.60568366       0.00000000       0.04136061       0.01188862      -0.03197335
C        2.39504675      -0.10855941       3.77962769       0.00000000       0.00877501      -0.02283932       0.02294676
C        1.15889184       2.00569295       3.98343538       0.00000000       0.04428640      -0.00205695       0.01517095
C       -0.13410973       4.20479272       3.95607524       0.00000000      -0.03528767      -0.03231898       0.10998847
C       -1.33846153       6.33394360       3.79663844       0.00000000      -0.00624229      -0.00323197      -0.04969269
C       -2.54200914       8.45641586       3.69883487       0.00000000       0.02705052       0.00905372       0.04526572
C        4.86859265      -0.10547531       3.76120641       0.00000000      -0.00612047       0.02989777       0.02663275
C        3.61872392       2.02092099       3.91568390       0.00000000      -0.01082388       0.04379632       0.00309834
C        1.08118538       6.32171634       4.22346877       0.00000000       0.03487039      -0.04197663       0.02092228
C       -0.05602193       8.43227108       3.82714300       0.00000000      -0.01506707      -0.03360841      -0.03162370
C        7.33546848      -0.10969448       3.73905077       0.00000000      -0.00913810      -0.01574640      -0.03381545
C        6.08369345       2.05405111       3.70538786       0.00000000      -0.00005562       0.00542986      -0.00685089
C        4.86192329       4.26074192       3.62763651       0.00000000      -0.03399633      -0.00476818       0.02063432
O        3.71679816       6.38878847       3.43817389       0.00000000       0.02493219      -0.00134795      -0.02535908
C        2.43163821       8.40645857       3.75262571       0.00000000      -0.03498689       0.04046272      -0.02790959
C        9.79093888      -0.10764124       3.69163944       0.00000000       0.01980118       0.00962721       0.02396225
C        8.55142947       2.03783220       3.66432523       0.00000000      -0.00418814       0.00490756       0.08272852
C        7.31665450       4.18707191       3.57476148       0.00000000       0.00100919      -0.00080515      -0.02104605
C        6.11010785       6.34109875       3.44728040       0.00000000      -0.01812853       0.01185472       0.04547115
C        4.87460872       8.46189288       3.55461729       0.00000000      -0.02346048      -0.00567825       0.00541044
C       -0.08260588       1.32513573       3.84587125       0.00000000       0.00132564       0.04458959      -0.01469108
C       -1.33196688       3.47132173       3.81934228       0.00000000      -0.00675793      -0.05903945      -0.03297183
C       -2.55820991       5.60850005       3.69199026       0.00000000       0.01369479      -0.00534061      -0.01135759
C       -3.77280295       7.74662287       3.63427932       0.00000000       0.05005606      -0.00634353      -0.06064605
C       -5.00687703       9.87791313       3.70552125       0.00000000      -0.01620644       0.02105505      -0.00985188
C        2.39172904       1.30595799       3.91227869       0.00000000       0.03315347      -0.02086335       0.00095039
B        1.15544061       3.48260509       4.17207751       0.00000000      -0.00634188      -0.00905860      -0.06177894
C       -0.10958143       5.63787031       3.97681844       0.00000000      -0.00469205      -0.01898088      -0.00000389
C       -1.30747101       7.74827845       3.77292294       0.00000000      -0.01248456      -0.01462510      -0.01952500
C       -2.53637058       9.87225734       3.74024886       0.00000000       0.01659930       0.00829234       0.01405331
C        4.85935584       1.32677800       3.79445553       0.00000000      -0.01829992       0.04706727      -0.02111357
B        3.61032395       3.51458717       3.99590792       0.00000000      -0.01712231       0.01882117       0.02293427
C        1.18411508       7.67359781       3.93814595       0.00000000      -0.00369574      -0.00719408       0.04278873
C       -0.06328306       9.85858855       3.76337416       0.00000000      -0.02192102      -0.02137395       0.03146849
C        7.32039733       1.32540959       3.68690114       0.00000000       0.00125099      -0.01049994       0.02656635
C        6.07280873       3.49195290       3.62397815       0.00000000      -0.01361247      -0.00083804      -0.02214521
C        4.89717671       5.66669181       3.46288349       0.00000000      -0.00784080      -0.00375454       0.01904064
C        3.67045376       7.75214769       3.55428116       0.00000000      -0.03131155       0.00072685       0.01724930
C        2.40144884       9.83730945       3.72497872       0.00000000       0.01296758       0.04075761      -0.03368187
C        9.78737373       1.32486725       3.71369280       0.00000000      -0.02693511      -0.01985946      -0.00909077
C        8.54579940       3.46660363       3.64418443       0.00000000       0.03885252       0.01641463      -0.04829635
C        7.33103455       5.60806817       3.51945148       0.00000000      -0.01427170       0.00676421       0.01977752
C        6.10821103       7.75899571       3.51194373       0.00000000       0.01145040       0.02265211      -0.00203856
C        4.86093078       9.87952794       3.65890383       0.00000000       0.00791633       0.01409494      -0.04778511
Hg       2.42258383       4.87607641       5.24447365       0.00000000      -0.00301493      -0.01999522       0.07182410
O        4.02238511       7.64536772       6.33890579       1.00000000       0.02080656      -0.02392049      -0.03681112
O        4.54596446       6.53042681       6.21702501       1.00000000      -0.01276004      -0.00213938      -0.01940805
