51
Lattice="12.336457 0.0 0.0 -6.168228499999997 10.683685154694365 0.0 0.0 0.0 15.0" Properties=species:S:1:pos:R:3:initial_magmoms:R:1:forces:R:3 energy=-432.6399906638365 free_energy=-432.6399906638365 stress="-0.002939348672314864 -0.001743338612154363 5.940582276851206e-06 -0.001743338612154363 -0.0046752160817919355 -2.7246351915418074e-05 5.940582276851206e-06 -2.7246351915418074e-05 -1.5375232074284653e-05" pbc="T T T"
C       -0.00857510      -0.03535108       3.42467017       0.00000000      -0.00187135       0.00939872       0.00125414
C       -1.24880614       2.11306251       3.31646588       0.00000000       0.00464942      -0.00541789      -0.00716711
C       -2.48854349       4.25397189       3.50577902       0.00000000       0.01310681      -0.00658201       0.00587297
C       -3.70186576       6.39273337       3.60989342       0.00000000      -0.00203019      -0.00441263      -0.01163993
C       -4.92792748       8.52423590       3.55290047       0.00000000       0.00865817       0.00014245      -0.00651128
C        2.46845642      -0.05332548       3.47498355       0.00000000      -0.01018008       0.00434775      -0.00324328
C        1.23173403       2.04190842       3.14196666       0.00000000       0.00801857       0.00551421       0.00323137
C       -0.06719942       4.28613797       3.23651222       0.00000000       0.00688512       0.00524825      -0.00154273
C       -1.24159888       6.38331138       3.66178830       0.00000000      -0.00308708      -0.00175975       0.00382838
C       -2.45773512       8.51404607       3.62609911       0.00000000      -0.00657113       0.00415634       0.00691827
C        4.92986431      -0.02557725       3.67054393       0.00000000       0.00010202      -0.00100474      -0.00884100
C        3.65814914       2.05584353       3.73112761       0.00000000       0.00360378      -0.00082622      -0.00119936
B        1.11169587       6.40654363       4.29258708       0.00000000       0.00156950       0.00657758       0.00456669
C        0.00096733       8.52933618       3.80129802       0.00000000      -0.00259129      -0.00246629      -0.00881624
C        7.39609595      -0.01286109       3.71726333       0.00000000      -0.00022991      -0.00790278      -0.01616607
C        6.14227657       2.13347620       3.77083576       0.00000000      -0.00133797      -0.00552113       0.00345827
C        4.98200512       4.32976952       3.97750356       0.00000000      -0.00621623       0.00049264      -0.01537626
N        3.75920271       6.43444064       3.97975386       0.00000000      -0.01084332      -0.00100075      -0.00301078
C        2.47856172       8.52720434       3.84616537       0.00000000       0.00292698       0.00216099      -0.00173205
C        9.86179177      -0.01965333       3.57533732       0.00000000      -0.00287165      -0.00530003       0.00989012
C        8.62098244       2.12210032       3.58614012       0.00000000      -0.00718369      -0.00230549      -0.00725228
C        7.39348290       4.26651746       3.68346353       0.00000000      -0.00383143       0.00223210      -0.00518284
C        6.18489560       6.42143196       3.71049913       0.00000000       0.00111839       0.00256147      -0.00595418
C        4.94304993       8.52886510       3.66231777       0.00000000       0.01209953      -0.00042400       0.00427485
C       -0.01323113       1.39188546       3.27157855       0.00000000       0.00776237       0.00938228       0.00588675
C       -1.26140069       3.53251751       3.33449013       0.00000000       0.01289411      -0.00659888      -0.01069349
C       -2.47859632       5.67669010       3.58119008       0.00000000      -0.00048465      -0.00597921      -0.00708085
C       -3.69448106       7.81173117       3.59052079       0.00000000       0.00144628      -0.00313996       0.00171126
C       -4.94003588       9.93726527       3.46509576       0.00000000      -0.00756075       0.00246508      -0.00556966
C        2.45560859       1.36329958       3.42121220       0.00000000       0.00039072       0.00442248       0.01347779
S        1.29268950       3.61431146       2.42945208       0.00000000      -0.01016088      -0.00281022       0.01495149
C       -0.02360257       5.64130639       3.64841927       0.00000000       0.00338115       0.00353462       0.00715022
C       -1.22620766       7.80509668       3.72436975       0.00000000      -0.00819909       0.00004338       0.01373778
C       -2.46102442       9.93481386       3.59266188       0.00000000      -0.00907590       0.00595859       0.01503096
C        4.91530868       1.41100938       3.73438821       0.00000000       0.00156356      -0.00440671      -0.00547722
S        3.48662352       3.63251438       4.37943355       0.00000000       0.00370410      -0.00730832       0.01235827
C        1.24534753       7.85110498       3.95166703       0.00000000       0.00042293       0.00359133      -0.00189202
C       -0.00275464       9.95765257       3.73039437       0.00000000       0.00075672      -0.00378006      -0.00552988
C        7.37978281       1.41876353       3.69028847       0.00000000      -0.00439836      -0.00832412       0.00129453
C        6.14907216       3.56383456       3.80483568       0.00000000      -0.00341296      -0.00152212       0.00709805
C        4.93622723       5.75630853       3.88535625       0.00000000      -0.00368562       0.00480649      -0.00477474
C        3.72508687       7.77715196       3.83303160       0.00000000       0.00424454       0.00294981       0.00273847
C        2.47009968       9.95187279       3.71239891       0.00000000      -0.00251735      -0.00486944      -0.01055313
C        9.86030805       1.40778196       3.48430428       0.00000000      -0.00506504      -0.00698580      -0.00089682
C        8.61771194       3.54451056       3.58376903       0.00000000       0.00135852       0.00240168       0.00187183
C        7.39846342       5.68643251       3.66016643       0.00000000      -0.00167141       0.00099642      -0.00397634
C        6.17525783       7.83031563       3.62898852       0.00000000       0.01482006       0.00039618       0.00482130
C        4.92487339       9.94415694       3.54858629       0.00000000       0.00252706       0.00006318       0.00280702
Hg       1.76257701       5.78121710       6.24305355       0.00000000      -0.00273650       0.01263765       0.00543491
O        2.35577592       6.18017653       9.81288470       1.00000000      -0.00005493       0.00322323      -0.00245236
O        2.31120188       5.21633979       9.03032578       1.00000000      -0.00014167       0.00094367       0.00886622
