49
Lattice="12.336457 0.0 0.0 -6.168228499999997 10.683685154694365 0.0 0.0 0.0 15.0" Properties=species:S:1:pos:R:3:forces:R:3 energy=-425.2142984993141 free_energy=-425.2142984993141 stress="0.004674728495810184 -0.0007108378216521 -1.928306064015578e-05 -0.0007108378216521 -0.0005822700170349852 3.7959295086237587e-07 -1.928306064015578e-05 3.7959295086237587e-07 -5.934726752475188e-06" pbc="T T T"
C        0.01746633      -0.01082531       3.58468895       0.00059342      -0.00397038       0.00287877
C       -1.22921399       2.12767802       3.40476010       0.00467502       0.00683658      -0.00076430
C       -2.48261492       4.26723919       3.56881943       0.00155260      -0.00470514      -0.00351846
C       -3.70835561       6.39325340       3.74918215       0.00448436      -0.00161480       0.00472763
C       -4.92534960       8.52614113       3.74451113      -0.00678809      -0.00737729      -0.00373410
C        2.49268894      -0.00942133       3.69984479       0.00636280      -0.00053334      -0.00119378
C        1.27209404       2.08400040       3.26206616      -0.00254359      -0.00140714      -0.00834991
C       -0.04528491       4.27602641       3.24833272       0.00231363      -0.00374217       0.00357245
C       -1.20299057       6.38418673       3.74465292      -0.00187680      -0.00518719       0.00538273
C       -2.44496591       8.51804882       3.82623672      -0.00293949       0.00508410       0.00668862
C        4.94730579      -0.02369507       3.81816852      -0.00043333       0.00390528       0.00524125
C        3.74156112       2.10941543       3.69389825       0.00200381      -0.00791908      -0.00177599
P        1.69686498       6.15418762       4.19008091       0.00758026      -0.01326201      -0.00192086
C        0.03442202       8.52320320       3.92537897      -0.00338811       0.00480298       0.00027794
C        7.40813958       0.00891837       3.80473418      -0.00629981       0.00908611      -0.00654314
C        6.16495325       2.13594453       3.78074092      -0.00591056      -0.00063828      -0.00294034
C        4.91440907       4.23484006       3.82385074      -0.00319006       0.00497677       0.00311767
C        3.60076482       6.43894786       3.86910857       0.00853584       0.00057302       0.00285098
C        2.49716248       8.59655604       3.86789332       0.00231813       0.00808650      -0.00729401
C        9.88705837       0.01315732       3.66029705       0.00411116       0.00021421       0.00220097
C        8.63561368       2.14012586       3.64871181       0.00633818      -0.00149349      -0.00263321
C        7.37757485       4.27439062       3.73291173      -0.00552352       0.00309717       0.00245966
C        6.10864420       6.37672038       3.78342470      -0.00227131       0.00979052      -0.00460006
C        4.95488469       8.54436339       3.73180237      -0.01033223      -0.00390425       0.00272700
C        0.02141552       1.41292348       3.40284651      -0.00099157       0.00419275       0.00206535
C       -1.26225957       3.54457893       3.37654239       0.00240582       0.00479484      -0.00672513
C       -2.46647411       5.68757399       3.68492213       0.00299010      -0.00934426       0.00331896
C       -3.69127289       7.81458068       3.78280690      -0.00203062       0.00022699      -0.00365755
C       -4.91750097       9.95479328       3.67895689       0.00277453      -0.00623150      -0.00264699
C        2.50591154       1.41897814       3.56219825      -0.00069120      -0.00129699      -0.00147984
P        1.33141455       3.61155276       2.41079178      -0.00869019      -0.00807617       0.00816084
C        0.02364150       5.63972777       3.62365174       0.00411592      -0.00226039      -0.00226638
C       -1.20697875       7.80739248       3.86347184      -0.00629867      -0.00138406       0.00147329
C       -2.45134488       9.94983824       3.80125014       0.00486371       0.00448666       0.01011594
C        4.94134322       1.41266529       3.77826151       0.00095651      -0.00675424      -0.00189770
O        3.75721278       3.48350168       3.84830402       0.00925570      -0.00996954      -0.00464223
C        1.30206271       7.87354820       3.99478852       0.00450456       0.00267601       0.01165561
C        0.01845138       9.95664913       3.86644406      -0.00546949       0.00620666      -0.00660233
C        7.39669785       1.43448885       3.74968500      -0.00131099       0.00670532      -0.00507087
C        6.13755490       3.55980794       3.78038668      -0.00857028       0.00239987       0.00321327
C        4.82717884       5.66248237       3.83082175       0.00246103       0.00921926       0.00432006
C        3.71512770       7.83888398       3.81363211      -0.00401953       0.00043824      -0.00242525
C        2.48431847      10.00659459       3.77906500      -0.00290867       0.01007085      -0.01090530
C        9.87800041       1.42845736       3.56681733       0.01068069       0.00011753       0.00468678
C        8.61947957       3.56314221       3.64697202      -0.00126100      -0.00210646      -0.00283291
C        7.36382505       5.68947458       3.75413927      -0.00016753       0.00603163      -0.00414240
C        6.16598445       7.80824166       3.74893103      -0.01110079       0.00089157       0.00191527
C        4.95246846       9.97062178       3.65619225      -0.00048308      -0.00761491       0.00192748
Hg       1.71830286       5.56464668       6.78874333       0.00961272      -0.00411834       0.00558451
