52
Lattice="12.336457 0.0 0.0 -6.168228499999997 10.683685154694365 0.0 0.0 0.0 15.0" Properties=species:S:1:pos:R:3:forces:R:3 energy=-440.52773865122026 free_energy=-440.52773865122026 stress="0.002560223768138182 0.004511075096375651 2.9346775258133097e-06 0.004511075096375651 -0.005255367134568763 1.765957713267973e-05 2.9346775258133097e-06 1.765957713267973e-05 -9.714120825834667e-06" pbc="T T T"
C        0.00880482      -0.01870156       3.80225481      -0.00911081       0.00760218       0.01257497
C       -1.17951644       2.15594592       3.56751154       0.00251711       0.00609689       0.00782905
C       -2.42774138       4.29156229       3.59746666      -0.00359163      -0.00483608       0.00822341
C       -3.69467065       6.40244817       3.71668953       0.00302170       0.00419886      -0.00036442
C       -4.95187927       8.51749146       3.84888611      -0.00081773       0.00232054      -0.00022997
C        2.47202948      -0.02831830       3.90807498       0.00463769      -0.00293956       0.00846000
C        1.29054069       2.04707356       3.51753404       0.00529703      -0.00280945      -0.00023714
C        0.01207320       4.33478875       3.33838607      -0.00333060       0.00211233       0.00209375
C       -1.18918733       6.42705752       3.64388642      -0.00777291      -0.00079883       0.00462961
C       -2.46863540       8.53759063       3.81507325       0.00388313      -0.00066639       0.00344955
C        4.94451044       0.00007444       3.87574384      -0.00012360      -0.00217952      -0.00248278
C        3.72378184       2.13668943       4.03470731      -0.00532493       0.00629751      -0.00485556
C        1.34500474       6.48558350       3.62807946      -0.00452578       0.00768622       0.00006748
C       -0.00737009       8.57533345       3.75186158       0.00083226      -0.00062464       0.01070207
C        7.41569793       0.03051827       3.80320027       0.00335204      -0.00939439      -0.00142029
C        6.20163281       2.12694314       3.82346692      -0.00191663      -0.00497514       0.00000326
C        4.96035784       4.20746788       3.90541772       0.01148718      -0.00315325       0.00319527
P        3.18469587       6.16908792       3.97893992       0.00866789       0.00633303       0.00911200
C        2.45373888       8.62336146       3.88094885       0.00357397      -0.00032898       0.00177199
C        9.89921435       0.03053939       3.80611741      -0.00337979       0.00004072      -0.00153628
C        8.67589606       2.15583523       3.69909926      -0.00011545       0.00067324      -0.00702526
C        7.42859771       4.27060241       3.69559295       0.00076964       0.00936555       0.00265087
C        6.12929089       6.38084159       3.76749840      -0.00738377      -0.00878880      -0.00231125
C        4.90785955       8.52708279       3.93147182       0.00074783      -0.00635902       0.00306063
C        0.03081001       1.41096294       3.62611134       0.00072151       0.00647987      -0.00180588
C       -1.18038495       3.58361825       3.49353086      -0.00184120       0.00111945       0.00329425
C       -2.43218079       5.71165783       3.64557646      -0.00415964      -0.00483969       0.00197574
C       -3.70624182       7.82063305       3.79888465       0.00270300       0.00540413      -0.01342534
C       -4.93541846       9.94388077       3.86531192      -0.00459029       0.00696690       0.00678691
C        2.48496225       1.39089230       3.87933771       0.00196099      -0.00305566       0.00070452
S        1.43724190       3.58125428       2.74254333      -0.00265491       0.00376633       0.00698870
C        0.08959067       5.74380080       3.53808170      -0.00578827       0.00405954       0.00651330
C       -1.22760748       7.84442386       3.73731304      -0.00022564      -0.00122149      -0.00001209
C       -2.45878142       9.95468520       3.89282403       0.00463627      -0.00349242       0.00036062
C        4.96141098       1.41705335       3.92084910      -0.00866725       0.00009892       0.00079448
C        3.80008132       3.50576286       4.28788537       0.01565265       0.00150494      -0.00491440
C        1.23540879       7.88701382       3.74726915       0.00407608       0.00656830      -0.01053371
C        0.00893938       9.99146380       3.81165013       0.00103462      -0.00282454      -0.00572873
C        7.43776659       1.43900752       3.77292923       0.00028496      -0.00829070      -0.00740051
C        6.21288731       3.53553132       3.77640455       0.00622508      -0.00150994      -0.00975532
C        4.90593383       5.62478146       3.78588095      -0.00987487      -0.00600020      -0.00553178
C        3.63408786       7.87490965       4.00780020       0.00318386       0.00062677      -0.00284998
C        2.48361893      10.02870508       3.83622904       0.00284221      -0.00494592      -0.00034155
C        9.92002018       1.45377908       3.69087096       0.00218026       0.00218736      -0.00496596
C        8.67430478       3.57462705       3.65763149      -0.00480730       0.00276101      -0.01208679
C        7.39925914       5.69127331       3.71259050       0.00165570       0.00800486      -0.00183687
C        6.14025781       7.80871808       3.85159837      -0.00091611      -0.01042858      -0.00108877
C        4.93785806       9.96389633       3.85903603      -0.00706891      -0.00268336      -0.00661593
Hg       2.72422128       4.56541229       5.84180560       0.00905854      -0.00661777      -0.00352777
O        1.94349588       4.25762978       7.72805686       0.00072560       0.01538948      -0.00248600
O        2.85950857       5.09007474       8.52996260       0.00680181      -0.00062066       0.00880501
H        3.27449475       4.37619135       9.05245296      -0.01454258      -0.01327992       0.00132291
