51
Lattice="12.336457 0.0 0.0 -6.168228499999997 10.683685154694365 0.0 0.0 0.0 15.0" Properties=species:S:1:pos:R:3:initial_magmoms:R:1:forces:R:3 energy=-434.53020746535907 free_energy=-434.53020746535907 stress="-0.00044274275679359484 -0.0012816967613729952 2.423647868563298e-05 -0.0012816967613729952 -0.0037580588326143484 -1.460989025965638e-05 2.423647868563298e-05 -1.460989025965638e-05 -7.524660541778316e-05" pbc="T T T"
C       -0.04818349      -0.05797958       3.75939991       0.00000000      -0.00197478       0.00367362      -0.00250643
C       -1.27963390       2.09109224       3.87463303       0.00000000      -0.00169794      -0.00007068      -0.00177103
C       -2.52177180       4.22564891       3.76658314       0.00000000      -0.00319937       0.00018708       0.00034782
C       -3.74764339       6.35677652       3.62308448       0.00000000       0.00304693      -0.00050731      -0.00387033
C       -4.98449421       8.48714224       3.62743073       0.00000000       0.00214113       0.00322410       0.00216274
C        2.42323939      -0.10133847       3.59409466       0.00000000       0.00252192       0.00029083      -0.00027857
C        1.22248706       2.00576482       3.92122711       0.00000000       0.00185344      -0.00429097       0.00103641
C       -0.09252748       4.28449047       4.12834812       0.00000000       0.00510592       0.00149951      -0.00189161
C       -1.30655272       6.38339891       3.82988472       0.00000000      -0.00152058       0.00498534       0.00130815
C       -2.51085368       8.48734695       3.60084824       0.00000000       0.00163622      -0.00177023      -0.00272374
C        4.89641806      -0.06584337       3.48616587       0.00000000       0.00107566      -0.00248869       0.00527951
C        3.62452775       2.01530031       3.31247635       0.00000000      -0.00189612      -0.00016143      -0.00120036
C        1.07132667       6.45756954       4.46124486       0.00000000      -0.00074524       0.00059092       0.00399170
C       -0.03918188       8.49462242       3.74696410       0.00000000      -0.00000241      -0.00266432      -0.00089713
C        7.36074832      -0.05237831       3.61411809       0.00000000      -0.00177552       0.00029158       0.00251369
C        6.11159632       2.10140364       3.41003851       0.00000000       0.00002766       0.00253513      -0.00278675
C        4.88351499       4.32210474       3.28898980       0.00000000      -0.00587715      -0.00080797      -0.00112891
O        3.72740072       6.42840255       3.51282519       0.00000000       0.00857114       0.00236924      -0.00082844
C        2.44690318       8.47244837       3.79848913       0.00000000      -0.00452307      -0.00106237       0.00125240
C        9.82042902      -0.05074822       3.72726534       0.00000000       0.00040176      -0.00028051      -0.00261142
C        8.58404336       2.09126112       3.64794849       0.00000000       0.00238401      -0.00294295      -0.00378173
C        7.34152109       4.22991747       3.53359260       0.00000000       0.00000066      -0.00001582       0.00160565
C        6.13255001       6.38477217       3.53527367       0.00000000       0.00037273      -0.00351501      -0.00078954
C        4.89089120       8.50087083       3.67138741       0.00000000       0.00202280      -0.00114256      -0.00472980
C       -0.04457539       1.36546726       3.88090529       0.00000000       0.00047626      -0.00024315      -0.00163645
C       -1.27862641       3.52420670       3.92377574       0.00000000      -0.00051547       0.00006091      -0.00123942
C       -2.51941421       5.64947635       3.72567476       0.00000000       0.00179658       0.00150586       0.00089790
C       -3.74431494       7.77739003       3.60805163       0.00000000       0.00308172      -0.00269371       0.00212427
C       -4.98644228       9.90318384       3.67115651       0.00000000       0.00183385       0.00403899      -0.00011774
C        2.42491246       1.30157401       3.60200149       0.00000000      -0.00252529       0.00057374       0.00268311
P        1.51239164       3.65090378       4.44329038       0.00000000       0.00055224      -0.00328145      -0.00144878
C       -0.08318995       5.71576100       4.13337783       0.00000000      -0.00233808       0.00255118      -0.00252827
C       -1.28001887       7.79030025       3.70884059       0.00000000       0.00164306       0.00182832      -0.00069052
C       -2.50254379       9.89784957       3.53763302       0.00000000       0.00249323      -0.00180419      -0.00054305
C        4.88667821       1.36478167       3.36939515       0.00000000      -0.00227645       0.00247334      -0.00127717
P        3.30908450       3.65901444       2.77875952       0.00000000       0.00017197       0.00070558       0.00281068
C        1.18655994       7.76484327       3.99565262       0.00000000      -0.00141836       0.00009655       0.00313558
C       -0.03847137       9.91208493       3.59326381       0.00000000      -0.00036324      -0.00286823       0.00293438
C        7.34778345       1.38130571       3.54579033       0.00000000       0.00073451      -0.00098258       0.00195649
C        6.09043247       3.54215568       3.39963799       0.00000000      -0.00226002       0.00114133       0.00095304
C        4.91791737       5.72282242       3.42046797       0.00000000      -0.00002885      -0.00345257      -0.00294813
C        3.68635641       7.80036711       3.67635706       0.00000000      -0.00061466      -0.00061567      -0.00053661
C        2.42821356       9.89995979       3.70530470       0.00000000      -0.00111462       0.00148715      -0.00062069
C        9.82313353       1.38329820       3.75163009       0.00000000       0.00095410       0.00130370       0.00168597
C        8.58191320       3.51643674       3.64429051       0.00000000       0.00056865      -0.00208466      -0.00033209
C        7.35771194       5.64710003       3.56057529       0.00000000      -0.00046882       0.00001291       0.00411567
C        6.12662052       7.79464652       3.61730880       0.00000000       0.00143370      -0.00060011      -0.00086338
C        4.88292981       9.92572353       3.73126960       0.00000000      -0.00212469       0.00055475       0.00106154
Hg       2.33619941       5.75188593       6.00652256       0.00000000       0.01539292      -0.00995389      -0.09414087
O        3.29099843       6.30350426       8.60207808       1.00000000       0.00500077       0.00379032      -0.00819932
O        3.84928148       5.71851514       7.57843655       1.00000000      -0.02803478       0.00852904       0.10506158
