50
Lattice="12.336457 0.0 0.0 -6.168228499999997 10.683685154694365 0.0 0.0 0.0 15.0" Properties=species:S:1:pos:R:3:forces:R:3 energy=-429.15809110795044 free_energy=-429.15809110795044 stress="0.0040317774571341294 -0.001003661515759526 1.4244739895323926e-05 -0.001003661515759526 -0.0011162246984920052 8.303480465950066e-06 1.4244739895323926e-05 8.303480465950066e-06 2.480170709217318e-06" pbc="T T T"
C        0.01870513      -0.01545522       3.59468685       0.00560151       0.00336441       0.00595254
C       -1.22923559       2.12322668       3.41389624      -0.00487587      -0.00715541       0.00353529
C       -2.48385090       4.26301250       3.58567993       0.00566394      -0.00833120      -0.00637486
C       -3.70749812       6.38941195       3.77223502       0.00691898      -0.00035816      -0.00717109
C       -4.92349521       8.52205364       3.76005202       0.00277164       0.00652033       0.00179009
C        2.49422437      -0.01417410       3.70342812       0.00595999      -0.00593315       0.00655544
C        1.27149743       2.07574003       3.26200014       0.00290305       0.01070956       0.01100303
C       -0.04772821       4.26732815       3.26544792       0.00241004       0.00253167      -0.00876572
C       -1.20230887       6.37735068       3.76699041       0.00051833       0.00310019      -0.00295189
C       -2.44251497       8.51375536       3.84339375      -0.00834537       0.00038488       0.00140469
C        4.94791620      -0.02706324       3.82490141      -0.00560022       0.00853662      -0.00868482
C        3.74191239       2.10531032       3.68956437      -0.00243749      -0.00417696      -0.00319014
P        1.71094373       6.15274938       4.09973537       0.01177654      -0.00864028      -0.00469776
C        0.03787313       8.51949762       3.92531223      -0.00786328       0.00834302       0.00205518
C        7.40767928       0.00827076       3.80634210       0.00100687      -0.00126204       0.00416472
C        6.16412568       2.13347802       3.77576472       0.00650264      -0.00326217       0.00047439
C        4.91452641       4.23285648       3.82249347      -0.00904217      -0.00163853       0.00150860
C        3.60802467       6.43878207       3.87185918      -0.01079816      -0.00769775       0.00181212
C        2.49890922       8.59807513       3.87571541       0.00264771      -0.00391986      -0.00332039
C        9.88892912       0.01202265       3.67491913       0.00055100      -0.00181288      -0.00349380
C        8.63532399       2.13725736       3.64990275      -0.00180098       0.00196573       0.00389103
C        7.37722691       4.27171967       3.73550254      -0.00311998       0.00112392       0.01194384
C        6.11083855       6.37451749       3.79770431       0.00136128       0.00283596      -0.00201825
C        4.95680882       8.54322008       3.75628952       0.00513140      -0.00233358       0.00048902
C        0.02160470       1.40717689       3.40822029       0.00194966       0.00419618       0.01194376
C       -1.26424740       3.53961585       3.39098470       0.00556330      -0.00873539      -0.00164059
C       -2.46664527       5.68255330       3.71015838       0.00686840      -0.00594281      -0.00365979
C       -3.68963084       7.81063629       3.80276657      -0.00348431       0.00094071      -0.00378847
C       -4.91587380       9.95011540       3.68686176       0.00576303       0.00376018       0.00959007
C        2.50709420       1.41355334       3.55984765      -0.00148706      -0.00612729       0.00768560
P        1.32159466       3.60522024       2.41404519      -0.00041355       0.01011691      -0.01564551
C        0.01584271       5.63194913       3.62924165       0.00460361       0.00535142      -0.01073307
C       -1.20540873       7.80259124       3.87707483      -0.00974737       0.00471822       0.00499366
C       -2.45002050       9.94607900       3.81145383       0.00146486      -0.00216760       0.00232023
C        4.94105838       1.40920872       3.77784457       0.00191491       0.00488729      -0.00430242
O        3.75519086       3.48235947       3.83989780      -0.01211339      -0.00367053      -0.00679032
C        1.30455831       7.87551409       3.97749616      -0.00286368      -0.00157935      -0.00019876
C        0.01913233       9.95423555       3.87002481      -0.00765479       0.00935040      -0.00754927
C        7.39570574       1.43308091       3.74676159       0.00564554      -0.00381071       0.00297285
C        6.13690336       3.55770614       3.77623468      -0.00573992      -0.00202875       0.00967880
C        4.83024113       5.66078001       3.83736661      -0.00497663      -0.00026227      -0.00209775
C        3.71892724       7.83943002       3.83283050       0.00301696      -0.00561053      -0.00490350
C        2.48543256      10.00736169       3.78984430       0.00176760      -0.00307289      -0.00273836
C        9.87875397       1.42572590       3.57521939      -0.00675143      -0.00172547       0.00351799
C        8.61825394       3.55963272       3.65186953      -0.00071465       0.00134654       0.00573119
C        7.36503519       5.68648989       3.76800085       0.00384117       0.00302380      -0.00396834
C        6.16808781       7.80593418       3.76851838       0.00719719       0.00318382       0.00255156
C        4.95402825       9.96884624       3.67484227       0.00513498       0.00020193      -0.00175730
Hg       1.69794833       5.79832977       6.48029625      -0.00583017       0.00213746       0.01389476
O        1.70329585       5.48612637       8.51194344      -0.00079566      -0.00137559      -0.01101828
