52
Lattice="12.336457 0.0 0.0 -6.168228499999997 10.683685154694365 0.0 0.0 0.0 15.0" Properties=species:S:1:pos:R:3:forces:R:3 energy=-441.66802358238004 free_energy=-441.66802358238004 stress="0.004789797074881537 -0.000755092425007743 2.8768994465454896e-05 -0.000755092425007743 -0.002429574198025445 -6.276071987497574e-05 2.8768994465454896e-05 -6.276071987497574e-05 -1.4998226515762291e-05" pbc="T T T"
C        0.02529551      -0.01931292       3.62882105      -0.00606173       0.00509459      -0.00057765
C       -1.21543673       2.12333716       3.48594421       0.00584395      -0.00198760      -0.00562244
C       -2.46964276       4.25872823       3.64554637       0.00562166       0.00609811      -0.00275073
C       -3.70214659       6.38218821       3.80446843       0.00455846      -0.00174525      -0.00330154
C       -4.91923243       8.51387412       3.78358928       0.00653128       0.00200385      -0.00605108
C        2.49646101      -0.03564859       3.73957490       0.00477325       0.00242307      -0.00154834
C        1.28578079       2.06747056       3.33541650       0.00011707       0.00246592      -0.01432326
C       -0.01416863       4.26685307       3.38458150       0.00575635      -0.00870208       0.00652830
C       -1.19161505       6.37478317       3.83869913       0.00303207       0.00712018      -0.00054494
C       -2.43556048       8.50826036       3.89462299       0.00157770      -0.00123613       0.00241387
C        4.95832195      -0.02724324       3.88178074       0.00717484       0.00263728       0.00010284
C        3.73628581       2.13126238       3.68525697      -0.00638926      -0.00155903      -0.00948444
P        1.72388792       6.14762941       4.26532195       0.00527576       0.00027517       0.00899415
C        0.04633098       8.51809466       4.00997384      -0.00119267       0.00753571       0.00899787
C        7.41693822       0.00628291       3.87038470      -0.00234199       0.00379236       0.00625730
C        6.17265270       2.12869007       3.82379799      -0.00404929       0.00212188      -0.00293145
C        4.86912315       4.21616448       3.77940506      -0.00669507       0.00221246      -0.01795110
C        3.61292738       6.44101130       3.90154045      -0.01602292      -0.00702961       0.00611891
C        2.50354550       8.59711428       3.93455514      -0.00391807      -0.00395349      -0.00096595
C        9.89657328       0.01161501       3.72292335      -0.00834651      -0.00722876      -0.01562997
C        8.64598726       2.13546133       3.71422140       0.00550339      -0.00291544      -0.01100133
C        7.37925108       4.26182704       3.77402420      -0.00120778      -0.00006598       0.00378571
C        6.11624790       6.37787474       3.80286332       0.00038526      -0.00806537       0.00237221
C        4.95912766       8.54153661       3.76844141       0.00884715      -0.00927137      -0.00223031
C        0.02746439       1.40395706       3.46683323       0.00362737       0.00404760       0.00685799
C       -1.23965863       3.54009810       3.47314727       0.00437988      -0.00257443       0.00427491
C       -2.45545221       5.67767455       3.76169039       0.00741470       0.00638811       0.01212670
C       -3.68364504       7.80338248       3.83593930       0.00215015      -0.00447025       0.00310921
C       -4.91399841       9.93773142       3.71768610      -0.00042823       0.00673329       0.00608964
C        2.50047863       1.37835587       3.58589433      -0.00498574       0.00084549      -0.00631583
P        1.43698637       3.65248941       2.62108683       0.00559550      -0.00317110      -0.00935007
C        0.03702103       5.63336671       3.72970945      -0.01284610      -0.00967834       0.00438361
C       -1.19715795       7.79826233       3.94855172       0.00243953       0.01014441      -0.00078626
C       -2.44134711       9.93381706       3.85948403       0.00874787       0.00025701       0.00254103
C        4.95594509       1.40167979       3.82174373      -0.00406592       0.00157170      -0.01295901
N        3.72466998       3.49135157       3.65473201      -0.00649953      -0.00145470      -0.00046832
C        1.31390083       7.87476815       4.08552059      -0.00453761      -0.00120784       0.00728040
C        0.02840825       9.95222021       3.93781326       0.00409551       0.00429422       0.00909067
C        7.41288682       1.42652724       3.80818873       0.00026972       0.00247405       0.01189439
C        6.14375200       3.54791740       3.80285520      -0.00473267       0.00207315      -0.00079152
C        4.83397159       5.68142118       3.83280132      -0.00752691      -0.00202171      -0.00305649
C        3.72095240       7.84430348       3.85551306       0.00238271      -0.00525150       0.01096799
C        2.49341502      10.00623658       3.84436970      -0.00971344      -0.00310287      -0.00277894
C        9.89022369       1.42615526       3.63750166       0.00589452      -0.00521768      -0.00747114
C        8.62905002       3.55598839       3.70869484       0.00331352       0.00119087      -0.00613678
C        7.37211326       5.68238371       3.78784356       0.00176277      -0.00235938       0.01551970
C        6.17129568       7.80545143       3.77801193       0.01219254      -0.00738038       0.00795091
C        4.95992223       9.96709832       3.70405139      -0.00564145      -0.00448504      -0.00140014
Hg       1.84389033       5.56863003       6.55093796      -0.00774750       0.00473881      -0.00487759
O        2.04306073       4.86968124       8.49236456      -0.00523029       0.00103886       0.00298689
O        1.33730321       5.92387340       9.24406570       0.00962544       0.00446743       0.00838741
H        2.07958192       6.20610304       9.81398532      -0.00870923       0.01208975      -0.00772600
