50
Lattice="12.336457 0.0 0.0 -6.168228499999997 10.683685154694365 0.0 0.0 0.0 15.0" Properties=species:S:1:pos:R:3:forces:R:3 energy=-430.4014997280256 free_energy=-430.4014997280256 stress="0.004538917994206841 0.0018373130953335405 -2.1745101918126963e-05 0.0018373130953335405 -0.003088672475467771 -2.4950355925128695e-05 -2.1745101918126963e-05 -2.4950355925128695e-05 9.79020483608117e-06" pbc="T T T"
C       -0.01835216       0.00605041       3.92377568      -0.00043398       0.00273144      -0.00036507
C       -1.22535398       2.17118373       3.85583226      -0.00616496      -0.00726062      -0.00527178
C       -2.43228017       4.29953090       3.70812864       0.01084739       0.00000793       0.00095674
C       -3.69229962       6.41924840       3.70934851       0.00573954       0.00756373       0.00180173
C       -4.96501498       8.54026266       3.85391032      -0.00209649       0.00031490       0.00240723
C        2.45002645      -0.00546109       3.82513730      -0.00030810      -0.00797992      -0.00522232
C        1.23733826       2.16697956       3.93812419      -0.00445606       0.00135431      -0.00991200
C        0.07272448       4.28921361       3.90966871      -0.00488512      -0.00196099      -0.00503185
C       -1.18216002       6.42601604       3.74930233      -0.00324840      -0.00317136       0.00154003
C       -2.48139002       8.55026897       3.77454467       0.00674527      -0.00170447      -0.01494552
C        4.91533583       0.01791999       3.66163821       0.00037561      -0.00208539       0.00111440
C        3.65586954       2.06355607       3.36280363      -0.00363937       0.00043519       0.00795341
C        1.31913298       6.49849989       3.74331270      -0.01032880       0.00152786       0.00615751
C       -0.02466504       8.58790360       3.74843035      -0.00353894      -0.00142012       0.00541157
C        7.38006338       0.05384948       3.71564408       0.00690365       0.00020756       0.00317161
C        6.15746329       2.15703796       3.41525137      -0.00091953      -0.00052520      -0.00076113
C        5.00694494       4.30950320       3.11979824      -0.01010236      -0.00181616       0.00199552
P        3.19231481       6.16548723       3.88137854       0.01438780       0.00357339       0.00061502
C        2.43104398       8.64022271       3.88752115      -0.00003605      -0.00100743       0.00789414
C        9.86239547       0.04670561       3.87320956       0.00488726      -0.00013644      -0.00746132
C        8.63924385       2.17329148       3.66174276       0.00222208       0.00531235      -0.00042701
C        7.42411517       4.29588117       3.50064806       0.00566500       0.00048302       0.00336867
C        6.13795783       6.41259927       3.65127054      -0.00309055      -0.00267271       0.00630899
C        4.88970021       8.54355207       3.93957161      -0.00090062       0.00287021       0.00954785
C       -0.00362826       1.44041949       3.92151966      -0.00511299       0.00015961       0.00496756
C       -1.19948827       3.59224712       3.81250227       0.00191353      -0.00813250       0.00471414
C       -2.43186760       5.72195955       3.71541133       0.00235763       0.00030250       0.00486569
C       -3.71630816       7.83828046       3.78673818       0.00412347       0.00754911      -0.00243848
C       -4.95737241       9.96433916       3.89929899      -0.00293838      -0.00151576      -0.00647835
C        2.45577823       1.41447601       3.75148197      -0.00313216      -0.00531060       0.00032779
C        1.22658921       3.54680838       4.17271950      -0.00724989       0.00013847      -0.00190611
C        0.09850261       5.73766380       3.79776052      -0.00620315      -0.00056413       0.00372344
C       -1.23728718       7.84885491       3.74665118       0.00093104      -0.00571533      -0.00265161
C       -2.48191233       9.97470348       3.75811182       0.00280395      -0.00500947      -0.00247638
C        4.91886693       1.43581712       3.47461189      -0.00235244      -0.00247700      -0.00353267
S        3.52279600       3.58768822       2.57495453      -0.00668324      -0.00029685      -0.00484817
C        1.21352687       7.90438461       3.78602446      -0.00349059      -0.00033956       0.00664328
C       -0.01820196      10.00992129       3.71101885       0.00226487      -0.00056848      -0.00036559
C        7.38701124       1.46729408       3.59543146       0.00321804       0.00293008       0.00576818
C        6.19232593       3.57121186       3.30676112      -0.00395818       0.00171763       0.00188397
C        4.91248841       5.67100997       3.45197022      -0.00847593       0.00228990      -0.00225319
C        3.61635585       7.88470066       3.98999238       0.00123836       0.00210673      -0.00126962
C        2.44766451      10.04801928       3.84013215       0.00786481      -0.00172870      -0.00162950
C        9.86833673       1.46539863       3.80219262      -0.00445318      -0.00207533      -0.00745074
C        8.65951283       3.59148836       3.61645594       0.01138595       0.00467597      -0.00286543
C        7.40016765       5.71439158       3.61418811       0.00569708       0.00277291      -0.00651193
C        6.13032038       7.82975995       3.83998072      -0.00423164      -0.00231764       0.00899319
C        4.91101171       9.98276942       3.93211931       0.00302524       0.00272418       0.00257284
Hg       2.64187613       4.41895035       5.63211193      -0.00038661       0.00183107      -0.00743674
O        3.13587331       4.04836180       7.60344425       0.00822012       0.01221210      -0.00119200
