50
Lattice="12.336457 0.0 0.0 -6.168228499999997 10.683685154694365 0.0 0.0 0.0 15.0" Properties=species:S:1:pos:R:3:forces:R:3 energy=-431.4378451108595 free_energy=-431.4378451108595 stress="0.0042182658064573155 -0.0010528999540952316 1.4775388074512453e-06 -0.0010528999540952316 -0.0026344056201693987 2.8687103752515122e-06 1.4775388074512453e-06 2.8687103752515122e-06 -3.5549158374708396e-06" pbc="T T T"
C        0.01561712      -0.01884755       3.57322775       0.00491120       0.00807768       0.00492614
C       -1.22673443       2.12279912       3.43133774       0.00528956       0.00144262       0.00405426
C       -2.48089205       4.25939361       3.61603207       0.00024948      -0.00419775      -0.00227109
C       -3.71242601       6.38308241       3.78577264       0.00130353      -0.00775464      -0.00679646
C       -4.92726269       8.51545976       3.74867133       0.00213730       0.00565366       0.00134864
C        2.48732031      -0.03478897       3.67839766      -0.00342975       0.01122179       0.00510862
C        1.27441295       2.06715094       3.27132864       0.00272650       0.00521263       0.00810605
C       -0.02747879       4.26412957       3.35938189       0.00030110      -0.00428651      -0.00874298
C       -1.20450703       6.37459560       3.81982411       0.00656400       0.00190878      -0.00424769
C       -2.44486139       8.50990062       3.85473433       0.00330949       0.00594648       0.00374550
C        4.94823998      -0.02497291       3.82030936      -0.00411930       0.00788075      -0.00616315
C        3.72468365       2.13474877       3.61810060      -0.00354105      -0.00599454      -0.00414011
P        1.72006873       6.15448041       4.15789738      -0.00813343       0.00506918      -0.00592649
C        0.03683125       8.52051584       3.95151233       0.00194927      -0.00026829      -0.00250959
C        7.40601820       0.00868933       3.80746756      -0.00002457      -0.00184457       0.00479109
C        6.16110786       2.13041403       3.75574416      -0.00413059       0.00704878       0.00233010
C        4.85722183       4.21904968       3.72636639      -0.00231414      -0.01071922      -0.00007181
C        3.60913473       6.44576828       3.86920056       0.00668291      -0.00253274       0.00095346
C        2.49630588       8.60112674       3.88164747      -0.00773014      -0.00528796      -0.00917646
C        9.88620175       0.01247907       3.66435651       0.01093558      -0.00102683      -0.00375946
C        8.63500842       2.13626540       3.65242112      -0.00332706       0.00078243       0.00096547
C        7.36825773       4.26264599       3.72950980      -0.00259552       0.00236785       0.01253252
C        6.10812114       6.37917297       3.77872706      -0.00419663      -0.00167100      -0.00291167
C        4.95284954       8.54438892       3.73740950      -0.00485126      -0.00383696       0.00216809
C        0.01675157       1.40370592       3.40614358       0.00592644       0.00757903       0.00910949
C       -1.25146323       3.53962994       3.43868506       0.00159290      -0.00177846       0.00178039
C       -2.46709524       5.67751993       3.74578698       0.00569462      -0.00425001      -0.00618957
C       -3.69290558       7.80462030       3.80790190       0.00342747      -0.00274696      -0.00344302
C       -4.92307025       9.93881237       3.66685020       0.00138545       0.01013069       0.00194149
C        2.49007210       1.37941615       3.51762793      -0.00163730       0.00402084       0.00324402
P        1.41845772       3.66138327       2.57444377       0.00050515      -0.01134421      -0.00827787
C        0.01770406       5.62980916       3.70765391       0.00163524      -0.00223314      -0.00772993
C       -1.20714954       7.80014630       3.90971281       0.00676121       0.00443746       0.00111128
C       -2.45060180       9.93536746       3.80369203      -0.00515563       0.00966646       0.00567280
C        4.94456084       1.40396191       3.75278536      -0.00335458       0.00639135      -0.00835253
N        3.71144194       3.49584178       3.59446055       0.00134631      -0.01149774      -0.00415627
C        1.30477949       7.87719955       4.00650979      -0.00598829      -0.00915368       0.00276348
C        0.01824033       9.95468767       3.87830571      -0.00337444       0.00072632      -0.00280860
C        7.40172613       1.42832679       3.74246263      -0.00611529       0.00188163       0.00619626
C        6.13165044       3.54981661       3.74345652      -0.00071133       0.00324689       0.01084772
C        4.82569506       5.68373176       3.79851563      -0.00116826      -0.00948591      -0.00101476
C        3.71599761       7.84924173       3.82509933      -0.00778453      -0.00329454      -0.00338429
C        2.48308568      10.00847725       3.78680557       0.00539908      -0.00391000       0.00012979
C        9.87903795       1.42618400       3.57645832       0.00411443       0.00195110      -0.00409390
C        8.61784091       3.55676483       3.66118577      -0.00392847       0.00124944       0.00381655
C        7.36276438       5.68289725       3.76361571      -0.00499720      -0.00072544      -0.00395109
C        6.16455296       7.80686648       3.75219420      -0.00216214       0.00066615       0.00262421
C        4.95061170       9.96899014       3.65531408       0.00948576      -0.00294395       0.00293085
Hg       1.74282448       5.82068663       6.53990291      -0.00193209       0.00309936       0.01283988
O        1.76910068       5.53969443       8.57619828       0.00306901      -0.00487432      -0.00591934
