51
Lattice="12.336457 0.0 0.0 -6.168228499999997 10.683685154694365 0.0 0.0 0.0 15.0" Properties=species:S:1:pos:R:3:initial_magmoms:R:1:forces:R:3 energy=-435.66244264908937 free_energy=-435.66244264908937 stress="-0.004101070084869856 0.001909010403210106 1.6875368733554698e-06 0.001909010403210106 -0.005293201512318079 -7.293548410435517e-06 1.6875368733554698e-06 -7.293548410435517e-06 -1.124928273396241e-05" pbc="T T T"
C       -0.01783990       0.04903256       3.58149927       0.00000000      -0.00155523       0.00133105      -0.00378360
C       -1.25253719       2.17619111       3.64407652       0.00000000       0.00664019       0.00439969      -0.00839965
C       -2.48018300       4.31159467       3.61643644       0.00000000      -0.00291536       0.00300968       0.00578941
C       -3.71694645       6.44848979       3.54431078       0.00000000      -0.00520311       0.00065064       0.00946163
C       -4.96607647       8.58481812       3.49979487       0.00000000       0.00377152      -0.00418459      -0.00666663
C        2.44282617       0.05396375       3.69744038       0.00000000      -0.00029945      -0.00425193      -0.00086864
C        1.19800583       2.18516489       3.98463489       0.00000000       0.00563636       0.00475714      -0.00480446
C       -0.05095590       4.27002021       4.10195417       0.00000000      -0.00387896      -0.00584927      -0.00584989
C       -1.26929106       6.44823046       3.88656398       0.00000000       0.00246669      -0.00234123       0.00225804
C       -2.49175999       8.58799930       3.66770293       0.00000000       0.00245133       0.00299752       0.00160336
C        4.91229091       0.04200059       3.63090622       0.00000000       0.00391676       0.00304415      -0.01017465
C        3.69801300       2.19164458       3.82414389       0.00000000      -0.00700363       0.00094334      -0.00291617
P        1.27749715       6.49564490       4.91368958       0.00000000       0.00236864       0.00137734       0.00819220
C       -0.02583833       8.60148093       3.79732671       0.00000000      -0.00169890       0.00306691       0.00953081
C        7.37852310       0.05237256       3.54810186       0.00000000      -0.00008884      -0.00356010      -0.00397655
C        6.16242650       2.16153787       3.53470865       0.00000000      -0.00179313      -0.00037147      -0.00101627
C        4.94034259       4.26729892       3.61501622       0.00000000       0.00061942       0.00395979      -0.00114567
S        3.43929617       6.30875519       2.89042750       0.00000000      -0.00052068       0.00138401      -0.00285122
C        2.44435782       8.63555153       3.62268076       0.00000000      -0.00096902       0.00047836       0.00454101
C        9.85757864       0.05500418       3.48536967       0.00000000      -0.00194844       0.00588325      -0.01237542
C        8.62614534       2.17913072       3.48085226       0.00000000      -0.00152533      -0.00018862       0.00285945
C        7.40135633       4.30839871       3.45949224       0.00000000       0.00380312      -0.00001523       0.00345209
C        6.14310775       6.44078557       3.37779065       0.00000000       0.00034481      -0.00351007       0.00408697
C        4.90897563       8.58923654       3.38438277       0.00000000       0.00184120      -0.00750044       0.00304375
C       -0.02679231       1.46330623       3.72324269       0.00000000       0.00666955       0.00370600       0.00668858
C       -1.26683549       3.58793155       3.75491429       0.00000000      -0.00303046       0.00109037      -0.00752617
C       -2.49051757       5.73613731       3.66855313       0.00000000      -0.00322722       0.00333644      -0.00033735
C       -3.72599693       7.87481545       3.56919224       0.00000000       0.00315822      -0.00041805      -0.00559847
C       -4.95725423      10.01485636       3.59333493       0.00000000      -0.00226266      -0.00474733       0.00755544
C        2.44624228       1.46539821       3.86448177       0.00000000      -0.00208875      -0.00347121       0.00068129
C        1.10592795       3.52751148       4.35181709       0.00000000      -0.00363409       0.00039048       0.00064806
C       -0.10180047       5.70605693       4.19893047       0.00000000       0.00359516      -0.00651375      -0.00176312
C       -1.26156202       7.87913278       3.80863008       0.00000000       0.00013223       0.00026534      -0.00037313
C       -2.49340940      10.01492124       3.66030824       0.00000000       0.00487685       0.00329421       0.00321661
C        4.92885229       1.45795031       3.63159633       0.00000000      -0.00431872       0.00307016       0.00272897
C        3.80170505       3.56290336       4.01475553       0.00000000      -0.00139375       0.00223091       0.00044572
C        1.23063494       7.94335967       3.93367331       0.00000000      -0.00292584      -0.00107218      -0.00465298
C       -0.02262494      10.02031065       3.62791101       0.00000000       0.00192817       0.00143032       0.00853676
C        7.39373921       1.46386571       3.49599567       0.00000000      -0.00266636      -0.00444739      -0.00551828
C        6.18404250       3.57769371       3.50927152       0.00000000       0.00335735       0.00142921       0.00713864
C        4.95977553       5.67780139       3.35701648       0.00000000      -0.00131729       0.00226987      -0.00403353
C        3.65294651       7.94499667       3.36544183       0.00000000      -0.00100418      -0.00308002       0.00179597
C        2.44987466      10.04481165       3.53306133       0.00000000       0.00039325       0.00128796       0.00006301
C        9.85557338       1.47158408       3.51208096       0.00000000       0.00344390       0.00746765      -0.00177831
C        8.63174275       3.60018118       3.49250924       0.00000000       0.00168090       0.00002419       0.00286529
C        7.39259701       5.73208400       3.45533992       0.00000000      -0.00166735      -0.00147365      -0.01090234
C        6.13747877       7.87000057       3.38590583       0.00000000       0.00415067      -0.00616904       0.00095747
C        4.91824412      10.02332118       3.47429437       0.00000000      -0.00408357      -0.00219049       0.00665196
Hg       2.61369912       4.36253444       5.65201120       0.00000000      -0.00338791      -0.00755819      -0.00591310
O        2.91833699       3.34076049       8.32276989       1.00000000       0.01258311       0.01868937      -0.01559775
O        3.42234635       4.38596603       7.75398524       1.00000000      -0.01342116      -0.01435109       0.02403082
