49
Lattice="12.336457 0.0 0.0 -6.168228499999997 10.683685154694365 0.0 0.0 0.0 15.0" Properties=species:S:1:pos:R:3:forces:R:3 energy=-424.4767519077484 free_energy=-424.4767519077484 stress="-0.002163245112088539 -0.0009229131883471868 -5.234864769702344e-06 -0.0009229131883471868 -0.0007310345360492355 -1.4944931392328315e-05 -5.234864769702344e-06 -1.4944931392328315e-05 -4.0715175096971375e-06" pbc="T T T"
C       -0.00289587      -0.02207684       3.71694430       0.00318342       0.00547116       0.00341124
C       -1.23606408       2.12356838       3.66065422       0.00255750       0.00199371      -0.00129242
C       -2.48107532       4.25485140       3.85458565      -0.00905621      -0.00475516       0.00259102
C       -3.70754805       6.39185876       3.91566159      -0.00053804       0.00515013       0.00009775
C       -4.93640215       8.52920967       3.86611795       0.00596262      -0.00254260      -0.00890003
C        2.47276199      -0.04910107       3.66440452      -0.00408695      -0.00561089      -0.00378657
C        1.23309884       2.04570636       3.31491950       0.01356490      -0.00388084      -0.00573711
C       -0.02774769       4.31062019       3.74261124      -0.00831419       0.00386134       0.00207791
C       -1.25977991       6.40582062       4.02932250       0.00025841      -0.00246792       0.00299971
C       -2.46843780       8.52991570       3.90877229      -0.00315320      -0.00038539       0.00108355
C        4.94584156      -0.03542409       3.68191334      -0.00628880      -0.00548156      -0.00925583
C        3.70833455       2.01763823       3.15819467      -0.00436409      -0.00211501       0.00621878
C        1.14546771       6.42868793       4.48960885       0.00661875       0.00133533       0.00395316
C        0.00694878       8.52265991       3.97686237       0.00008064       0.00200444      -0.00738609
C        7.40824168      -0.03032942       3.77415169       0.00520508       0.00277244       0.00054521
C        6.16440281       2.12660819       3.52219705      -0.00063921      -0.00372487       0.00591469
C        4.96400321       4.35419379       3.30306141       0.01038981       0.00541213      -0.00408257
O        3.79205175       6.45905350       3.56143670      -0.00634794       0.00950813      -0.00451075
C        2.49846329       8.48975501       3.92356996      -0.00416386      -0.00097185       0.00297289
C        9.86554996      -0.02685396       3.77277312       0.00119941       0.00022901      -0.00362510
C        8.62869726       2.11659750       3.73650416       0.00029139      -0.00192304      -0.00851969
C        7.38805539       4.26026504       3.72997203       0.00305373       0.00309942       0.00270231
C        6.17826011       6.41299241       3.76189348      -0.00185857      -0.00421348       0.00277148
C        4.94211360       8.53072305       3.81174964       0.00687231      -0.00350049       0.01047895
C       -0.00933590       1.39853385       3.57105773       0.00872510       0.00610753      -0.00472200
C       -1.23965020       3.55157665       3.74992731      -0.00594610      -0.00042221       0.00166672
C       -2.48047404       5.67979705       3.94053927      -0.00545681      -0.00119251       0.00499448
C       -3.70019685       7.81672520       3.91536243       0.00242055       0.00089557      -0.00623668
C       -4.93531565       9.94798302       3.76928462      -0.00175015      -0.00337543      -0.00459701
C        2.47388934       1.33642177       3.37253609       0.00375492      -0.00118946       0.00095769
P        1.30914817       3.69770086       2.79487164       0.00030766      -0.00381755      -0.00050529
C       -0.01106675       5.71428424       4.09931326       0.00616608      -0.00225324       0.00570861
C       -1.23764629       7.82348016       3.99396510      -0.00162078      -0.00023064       0.00191976
C       -2.45804467       9.94032203       3.76346509      -0.00724570      -0.00412988       0.00063609
C        4.94807205       1.38104506       3.44441018      -0.00531158      -0.00129245       0.00168288
P        3.63789021       3.60084598       2.39572863      -0.01799531      -0.00327542       0.00316867
C        1.24462000       7.77995236       4.13358681      -0.00209446      -0.00487821       0.00208347
C        0.00798279       9.93946034       3.81161923       0.00225934       0.00605629       0.00420924
C        7.39440445       1.40415843       3.68206319       0.00212509      -0.00098803       0.00033472
C        6.15278035       3.57005149       3.51630559       0.00518429      -0.00177346       0.00562135
C        4.97630568       5.75223920       3.51886651      -0.00065060       0.00280760      -0.00065555
C        3.74050209       7.82144207       3.78374893      -0.00191436       0.00385520       0.00308007
C        2.47632923       9.92241191       3.82776887       0.00216180       0.00085978      -0.00093807
C        9.86665574       1.40768337       3.73244812       0.00148767       0.00124373       0.00131892
C        8.62474193       3.54351968       3.78213062      -0.00398043      -0.00440760      -0.00427658
C        7.40097077       5.67776464       3.81703683       0.00245461       0.00474546      -0.00655847
C        6.17586764       7.82712677       3.83475477       0.00862713      -0.00376666      -0.00572662
C        4.93046241       9.95592257       3.78707697       0.00232835       0.00068674       0.00311103
Hg       2.36615919       5.54116017       6.03896955      -0.00446323       0.01047066       0.00300009
