50
Lattice="12.336457 0.0 0.0 -6.168228499999997 10.683685154694365 0.0 0.0 0.0 15.0" Properties=species:S:1:pos:R:3:forces:R:3 energy=-432.8547599021953 free_energy=-432.8547599021953 stress="-0.002734189579773108 0.0017376702311121108 5.497790133182381e-07 0.0017376702311121108 -0.007888460071403416 -1.8287665971745405e-05 5.497790133182381e-07 -1.8287665971745405e-05 1.237788233630378e-05" pbc="T T T"
C        0.01718968      -0.01836051       3.58210542      -0.00321876      -0.00393038      -0.01141299
C       -1.21294692       2.11798056       3.64431757       0.00950649       0.00569069      -0.00061850
C       -2.44152029       4.25458372       3.70644501       0.00775269       0.00955226       0.00993258
C       -3.68204236       6.38603049       3.70184846      -0.00182197       0.00525590      -0.00272751
C       -4.93346460       8.51242745       3.60196159      -0.00843413      -0.00442703       0.00438629
C        2.47801533      -0.02480912       3.76606908       0.00587062       0.00374972       0.00178483
C        1.23054746       2.09912020       4.05794232      -0.00252766       0.00117941       0.00532661
C        0.00480917       4.19671273       4.13336404      -0.00049231       0.00504253      -0.00047270
C       -1.20027863       6.38203260       3.89443379      -0.00732297      -0.00017352      -0.01142620
C       -2.44729550       8.51980843       3.71146330      -0.00096987      -0.00739295      -0.00330758
C        4.94347675      -0.01102883       3.64764234      -0.00011954       0.00047004       0.00342643
C        3.73533949       2.10659434       4.03774705      -0.00268516      -0.00633311       0.00405405
P        1.46667118       6.44812034       4.59830677      -0.00709723      -0.00714545       0.00703785
C        0.01534435       8.56183800       3.70758110       0.00142644       0.01169791      -0.00709337
C        7.40562885       0.02107347       3.43256597       0.00508502      -0.00477037       0.00928683
C        6.19492244       2.11294236       3.67682995      -0.00976064      -0.00990840       0.00526747
C        4.98078320       4.19745130       4.03813942       0.00142718      -0.00439662      -0.00621776
S        3.42074375       6.18619972       3.28937237      -0.00165513       0.00658613       0.01325692
C        2.48021777       8.62330037       3.44828576       0.00235527       0.00199061       0.00135804
C        9.89975970       0.01853487       3.36734501       0.00779237      -0.01012603       0.00671939
C        8.66010281       2.13629804       3.49996084       0.00300620      -0.00625878       0.00504506
C        7.43178047       4.25358205       3.69664869       0.00400771       0.01018077      -0.00442489
C        6.15748247       6.37401225       3.66441161      -0.00127591       0.00023573      -0.01572051
C        4.94376737       8.52724377       3.40700667      -0.00321451      -0.00448206       0.00952620
C        0.00779507       1.39352524       3.73093970       0.00222087      -0.00152579      -0.00293751
C       -1.22567966       3.52436783       3.79666159       0.00802621       0.00917170      -0.00018318
C       -2.44530711       5.67635083       3.76665130      -0.00345394       0.00699626       0.00035800
C       -3.68845678       7.80856495       3.67829034      -0.00620885      -0.00271925       0.00052293
C       -4.92417958       9.94174784       3.64685200      -0.00036490       0.00008401      -0.00091545
C        2.48137903       1.38008537       3.98129416      -0.00083734       0.00340933       0.00994110
C        1.14291322       3.43319899       4.44776904      -0.01258370      -0.00298135       0.00735664
C       -0.01783470       5.62831661       4.13171865      -0.00962861      -0.00047135       0.00292085
C       -1.20847092       7.81533283       3.79420453      -0.00046200      -0.00076514      -0.01273412
C       -2.45501747       9.94687496       3.70353690       0.00563493      -0.00437787       0.00804372
C        4.96384971       1.39969144       3.74820995      -0.01203111      -0.00486037      -0.00652927
C        3.84076366       3.44797910       4.38787213       0.00501894      -0.00794023      -0.00796067
C        1.27893434       7.95249770       3.75525882      -0.00162500       0.00166854      -0.00889544
C        0.00809411       9.98394215       3.55122544       0.00114999       0.01045289       0.00212135
C        7.42267819       1.42831588       3.49794954      -0.00701405      -0.00939423       0.00623255
C        6.21907090       3.52166099       3.80176930       0.00385275      -0.00457188       0.00040605
C        4.97360452       5.60902342       3.77975445       0.00530441      -0.00403577      -0.01115303
C        3.68803814       7.90018040       3.37376558      -0.00222245       0.00576609      -0.01025612
C        2.48336280      10.02828085       3.35099414       0.00647410      -0.00155804      -0.00226134
C        9.89357545       1.42957111       3.46403826       0.01177238      -0.00601106       0.00133427
C        8.66360891       3.54898648       3.61430859       0.00801179       0.00553060      -0.00991403
C        7.41832240       5.67329671       3.70112901       0.00071374       0.01197999       0.00257809
C        6.16527010       7.79809866       3.53454348      -0.00885159      -0.00214379       0.01484158
C        4.95467886       9.96957913       3.42086091       0.00013596      -0.01155674       0.00166744
Hg       2.54748481       4.02005009       6.05899309      -0.00430672       0.00452435      -0.00204454
O        1.85004307       6.49746909       6.07158730       0.01363999       0.01304208      -0.00552640
