49
Lattice="12.336457 0.0 0.0 -6.168228499999997 10.683685154694365 0.0 0.0 0.0 15.0" Properties=species:S:1:pos:R:3:forces:R:3 energy=-426.15053430201687 free_energy=-426.15053430201687 stress="0.0028706163308481096 0.0043771999773101165 3.1699280044180547e-06 0.0043771999773101165 -0.006319907674274042 -8.264975719017713e-06 3.1699280044180547e-06 -8.264975719017713e-06 -2.538644064345809e-06" pbc="T T T"
C       -0.00763383      -0.00555574       3.75197901      -0.00473393       0.00158506      -0.00533612
C       -1.19444726       2.17049591       3.51192543       0.00026870       0.00170750      -0.00504891
C       -2.44703846       4.30375126       3.55342316       0.00455596      -0.00601908      -0.00091991
C       -3.71472795       6.41264848       3.67603470       0.00058404       0.01016637       0.01018820
C       -4.97005394       8.52745548       3.80803175      -0.00400308       0.00098492      -0.00920698
C        2.45530090      -0.02231167       3.86300929       0.00105481      -0.01034026       0.00048117
C        1.27657978       2.05605713       3.47914063       0.00349364      -0.00360526      -0.00791086
C       -0.00517719       4.34835042       3.30726902       0.00354117       0.01159155       0.00057977
C       -1.20633917       6.43635901       3.60534221      -0.00014856       0.00320664       0.00587852
C       -2.48533623       8.54584755       3.75671901       0.00047551       0.00224215      -0.00347015
C        4.92845873       0.00686653       3.79195003       0.00465637      -0.00279141       0.00483179
C        3.70936417       2.13613810       4.01865622       0.00116454       0.00025725      -0.00569404
C        1.33508067       6.49455947       3.60968145      -0.00648944      -0.00063559      -0.00798046
C       -0.02351865       8.58557064       3.65660775       0.00289824      -0.00387276       0.00737819
C        7.39821242       0.04234318       3.68452098      -0.00453717       0.00938849      -0.00151976
C        6.18457185       2.13730896       3.76046913      -0.00069950      -0.00019604      -0.00410431
C        4.93976419       4.21856971       3.92473697       0.00333525      -0.00295301      -0.00463725
P        3.16070377       6.20502710       4.01794829      -0.01790042       0.00603535      -0.00247309
C        2.43621629       8.64064079       3.77200055      -0.00091904       0.00394087       0.01350667
C        9.88261396       0.04515018       3.70815426      -0.00015489      -0.00708785      -0.00513435
C        8.65739446       2.16936683       3.61851157       0.00261125      -0.00516714      -0.00333216
C        7.40764727       4.28299059       3.65898460      -0.00677005       0.00147835      -0.00258919
C        6.10705855       6.39203844       3.74966491      -0.00604583      -0.00098550       0.00873293
C        4.89176260       8.54412954       3.87224335       0.00467478      -0.00458261       0.00207952
C        0.01493607       1.42376221       3.57826765      -0.00263005       0.00435549      -0.00125774
C       -1.19873879       3.59660238       3.45088991       0.01132193       0.00115910      -0.00200196
C       -2.45084438       5.72242223       3.60558775       0.00180435       0.00129587       0.00861532
C       -3.72460992       7.83032133       3.75321199      -0.00104796       0.00918853      -0.00196957
C       -4.95342472       9.95376834       3.82318340      -0.00450923      -0.00302737      -0.01183598
C        2.46897658       1.39577286       3.84298199      -0.00232854      -0.00623063       0.00400150
S        1.42791343       3.60020209       2.72730665       0.00450887      -0.00146145      -0.00206259
C        0.07489575       5.75452393       3.51499508      -0.00615484       0.00357172       0.00619306
C       -1.24393588       7.85367439       3.67374653      -0.00110083       0.00260087      -0.00254358
C       -2.47505899       9.96196933       3.82951313       0.00614001      -0.00370049       0.00029213
C        4.94746455       1.42117101       3.86042287       0.00300055      -0.00104650      -0.00505354
C        3.79461034       3.49343244       4.33410370       0.01064078      -0.00419849      -0.01032680
C        1.22099110       7.90242729       3.66113978       0.00409843      -0.00647761       0.00364037
C       -0.00754893      10.00147564       3.70214686       0.00256322      -0.00031007       0.00718673
C        7.41974628       1.45086868       3.67914631      -0.00096957       0.00576420      -0.00904669
C        6.19423922       3.54721208       3.74709307      -0.00303635      -0.00406393       0.00102360
C        4.87645935       5.63698517       3.80455551       0.00781346      -0.01317482       0.00155390
C        3.61573720       7.89745868       3.93924248      -0.00006090       0.00788012       0.00582667
C        2.46714118      10.04339969       3.71185035      -0.00537351       0.00607511       0.00646156
C        9.90293460       1.46821830       3.60930295       0.00276629      -0.00648139      -0.00221342
C        8.65412152       3.58777430       3.60224962      -0.00205359      -0.00526729      -0.00549216
C        7.37694748       5.70305137       3.68280025      -0.00381080       0.00797347       0.00951523
C        6.12039763       7.81961336       3.81440727      -0.00109498      -0.00133481       0.00688795
C        4.92102925       9.97917946       3.78595816      -0.00088200      -0.00768293       0.00424359
Hg       2.71655648       4.45946466       6.06361200      -0.00051709       0.01024530       0.00406321
