50
Lattice="12.336457 0.0 0.0 -6.168228499999997 10.683685154694365 0.0 0.0 0.0 15.0" Properties=species:S:1:pos:R:3:forces:R:3 energy=-431.6612622865625 free_energy=-431.6612622865625 stress="0.00319233646256495 -0.00045312196645359664 -2.0032679562978724e-06 -0.00045312196645359664 0.011009873705837543 1.0156745693973823e-05 -2.0032679562978724e-06 1.0156745693973823e-05 1.1674167066451614e-05" pbc="T T T"
C       -0.02547751       0.01691410       3.71757238       0.00292386      -0.01318271      -0.00665003
C       -1.26856208       2.13964364       3.77058864       0.00140662       0.01044502      -0.00258147
C       -2.49517411       4.28288822       3.74018117      -0.00286291      -0.00446355       0.00793199
C       -3.72900082       6.42388863       3.66598551      -0.00667771      -0.00173153      -0.00618038
C       -4.96661142       8.56461396       3.66204637       0.00362158       0.00207077      -0.00528062
C        2.43746163       0.07919270       3.70248459       0.01041936       0.00480948      -0.00508682
C        1.17048761       2.18659403       3.76239054      -0.00980006      -0.00362767       0.00160480
C       -0.05214444       4.26965255       3.87622921      -0.00211019      -0.00318407       0.00172784
C       -1.26161383       6.41074351       3.77371432       0.00416070       0.00475953       0.00276217
C       -2.49893308       8.57193344       3.70285132      -0.00296180      -0.01430206       0.00335250
C        4.90075424       0.02214392       3.72041080      -0.01126283      -0.00413267       0.01000228
C        3.70134181       2.20220473       3.68351240       0.00713067       0.00275212      -0.00507089
N        1.11120262       6.41803349       4.22552377       0.00525053      -0.01503012      -0.01086670
C       -0.02582070       8.52837115       3.80246194       0.00344774       0.01856724       0.00643170
C        7.37912910      -0.02420287       3.76009685       0.00325753      -0.00921204      -0.00235813
C        6.14125398       2.14957078       3.69578053       0.00599610       0.00590483       0.00041626
C        4.92048047       4.28556395       3.60163350      -0.00929111       0.00622304      -0.00405092
O        3.73883838       6.41810452       3.55996197       0.00012584       0.00287102       0.01915445
C        2.45149378       8.46219766       3.80698873       0.00237631      -0.00181691       0.00952306
C        9.83362553      -0.02791044       3.74436725       0.01006681       0.01183946       0.00982122
C        8.60559693       2.13252139       3.73464823      -0.00567900      -0.01370089      -0.01156864
C        7.37274294       4.28309092       3.66089008       0.00378532       0.00683456       0.00017564
C        6.13493980       6.40599469       3.59957701      -0.00716233       0.00429010       0.00749853
C        4.90204295       8.52736384       3.67510684       0.00374613      -0.00407326      -0.00116305
C       -0.02120705       1.45633001       3.75327480      -0.00820006      -0.00920334       0.00599348
C       -1.25567759       3.56972101       3.80181519      -0.00162192       0.00380653       0.00308991
C       -2.49190604       5.70387893       3.71369328       0.00012184       0.00083501       0.00113315
C       -3.72875039       7.85441151       3.67129223      -0.00553484      -0.00727146      -0.01143840
C       -4.95522417      10.01153825       3.69238902       0.01310242       0.00197444       0.00090663
C        2.43572162       1.53431118       3.71812304       0.00204386       0.01000075      -0.01040311
O        1.13059794       3.56846548       3.83057412      -0.00102029       0.00304728      -0.00198380
C       -0.02752720       5.70423250       3.93975667      -0.00441672      -0.01073658      -0.00613051
C       -1.26780663       7.84007658       3.75399793       0.00897958       0.01010497       0.00204656
C       -2.50511764      10.01513871       3.70395263      -0.00498813      -0.01544998       0.00974370
C        4.89421436       1.46130490       3.70238171       0.00726649      -0.00095459      -0.00103216
O        3.73983760       3.57488216       3.60288771      -0.00880977       0.00655772       0.00242384
C        1.18373167       7.76082776       3.94476264      -0.00106629      -0.00395952      -0.00088922
C       -0.02757695       9.96313512       3.75529346      -0.00697901       0.01384795      -0.00484208
C        7.36743574       1.41980086       3.73040433      -0.00306480      -0.01461807      -0.00408636
C        6.13248563       3.57933988       3.65037916      -0.00081760       0.01463951      -0.00091624
C        4.92416841       5.69923615       3.57078989      -0.00518066       0.00177407       0.00058694
C        3.69990031       7.79793394       3.68374885       0.00333045       0.00235457       0.00701924
C        2.44035805       9.90924085       3.77047606       0.01118286      -0.00003008      -0.00315263
C        9.84222516       1.41655087       3.75114290       0.00557319       0.01289381       0.00187899
C        8.60849357       3.56384420       3.71037738      -0.00196652      -0.01364442      -0.00237256
C        7.37568937       5.70192382       3.63365140      -0.00931998       0.00706432       0.00411247
C        6.14495923       7.83708824       3.63582544       0.00328053       0.00115139      -0.00002871
C        4.90274943       9.96514074       3.71674629       0.00155258      -0.00610027      -0.00338682
Hg       2.39941916       5.35423517       5.66270030      -0.00851576       0.00463582      -0.00817693
O        3.83704609       4.44737025       6.67402330       0.00516140      -0.00562953       0.00035982
