50
Lattice="12.336457 0.0 0.0 -6.168228499999997 10.683685154694365 0.0 0.0 0.0 15.0" Properties=species:S:1:pos:R:3:forces:R:3 energy=-432.55812069558357 free_energy=-432.55812069558357 stress="-0.0068646817361339854 -0.001809387616105598 -1.647922169237155e-05 -0.001809387616105598 -0.002382014948719885 -7.775869687489434e-06 -1.647922169237155e-05 -7.775869687489434e-06 8.746106847627282e-06" pbc="T T T"
C       -0.01356360       0.00029359       3.85543077      -0.00088882      -0.00132952      -0.00404522
C       -1.27817401       2.10590410       4.03596435       0.00094618       0.00317439      -0.00170401
C       -2.52032265       4.26265019       3.94666446       0.00109220      -0.00419954       0.00301077
C       -3.71859897       6.41234400       3.75905806       0.00366415      -0.00013149      -0.00577615
C       -4.94446142       8.55451833       3.66678717      -0.00253019      -0.00113401       0.00449006
C        2.45875774       0.01307010       3.86207338      -0.00089604      -0.00358844       0.00393402
C        1.20616897       2.12580292       4.10281966      -0.00011180      -0.00103568      -0.00348573
C       -0.10114116       4.22729128       4.08254926       0.00421922       0.00104023      -0.00096190
C       -1.27347443       6.39989340       3.76615052       0.00127284       0.00030919      -0.00213376
C       -2.47156412       8.54760922       3.73536010      -0.00582549       0.00714205      -0.00198959
C        4.92304221       0.00171318       3.73968986       0.00305179      -0.00049291       0.00146566
C        3.68807104       2.16246947       3.83581922      -0.00336008      -0.00533014      -0.00051014
P        2.48139540       4.63698541       4.45689613      -0.00155741       0.01559813       0.00175449
P        1.32964608       6.15145342       2.90806585       0.01508652      -0.00346161      -0.01246348
C        0.00079343       8.53345451       3.55730008      -0.00306102      -0.00020590      -0.00466821
C        7.38555464      -0.00460500       3.68515609      -0.00045040       0.00003451       0.00055940
C        6.15462424       2.13021543       3.70957791      -0.00271291      -0.00413474      -0.00737160
C        4.95835333       4.27282346       3.44704574       0.00282131       0.00221800      -0.00038131
S        3.85468686       6.47416363       2.10271561      -0.01481207      -0.00330689       0.00673387
C        2.47477466       8.58725395       3.29755578       0.00071861       0.00151552       0.00297400
C        9.85453356      -0.00475640       3.73868416      -0.00032216       0.00381404      -0.00338418
C        8.60769747       2.12426097       3.84883368      -0.00279526       0.00019674      -0.00459581
C        7.39000010       4.27045559       3.69404166       0.00028777      -0.00005266      -0.00076219
C        6.18778507       6.42253764       3.39683986       0.00208653       0.00310970      -0.00072752
C        4.94939995       8.57759254       3.38221527      -0.00221660      -0.00455932       0.00486547
C       -0.03171995       1.40868956       4.02602531      -0.00007337       0.00052619       0.00015827
C       -1.31566543       3.52446658       4.07428675       0.00256882       0.00089154       0.00665987
C       -2.50606897       5.68972745       3.85736035       0.00298170      -0.00340696       0.00586199
C       -3.70884284       7.83886938       3.72798484      -0.00208198       0.00194101      -0.01101554
C       -4.94283142       9.98048804       3.80188974      -0.00077598      -0.00318452       0.00422470
C        2.45649506       1.43673060       3.96428820      -0.00397930      -0.00492039      -0.00626389
C        1.12899379       3.53263445       4.20771117       0.00147090      -0.00102679       0.00354430
C       -0.09328906       5.62480884       3.76978501       0.00659817       0.00217835       0.00187896
C       -1.24215511       7.82643542       3.66762252      -0.00680727       0.00374387      -0.00321797
C       -2.47795133       9.97625091       3.77414243       0.00139598       0.00440827       0.00716445
C        4.91941591       1.42884257       3.74957954      -0.00263122      -0.00338259      -0.00018480
C        3.74180330       3.59104937       3.75548096       0.00444420      -0.00315031       0.00808776
C        1.24506204       7.87310059       3.32310254       0.00255424       0.00107578       0.00071704
C       -0.01237198       9.96679153       3.65812631       0.00120105      -0.00154768      -0.00128381
C        7.38211896       1.41562328       3.75605774      -0.00318096      -0.00163818       0.00880067
C        6.17320157       3.55222755       3.60507612       0.00113712      -0.00228122      -0.00107458
C        5.03343906       5.67276967       3.10432407       0.00229216       0.00356498      -0.00561309
C        3.73538642       7.96175070       3.02034106      -0.00209253      -0.00194087       0.00054396
C        2.45932725       9.98346112       3.59307317       0.00004373       0.00244339       0.00451387
C        9.83696705       1.40581532       3.90067879      -0.00117203       0.00444275       0.00122862
C        8.60182771       3.55032159       3.85176779      -0.00099480      -0.00167900      -0.00004208
C        7.39664692       5.69842220       3.64695063       0.00219916       0.00153319      -0.00403563
C        6.17681710       7.85161376       3.44258507      -0.00252286      -0.00051259       0.00961223
C        4.92873781       9.98002300       3.68302443      -0.00223951      -0.00324049       0.00030974
Hg       2.84895091       5.41839755       7.13610009       0.00595769      -0.00002737      -0.00540201
