53
Lattice="12.336457 0.0 0.0 -6.168228499999997 10.683685154694365 0.0 0.0 0.0 15.0" Properties=species:S:1:pos:R:3:forces:R:3 energy=-446.67361606333174 free_energy=-446.67361606333174 stress="-0.00689717968038023 -0.0018970227220709906 -1.8458309213919872e-05 -0.0018970227220709906 -0.0024408448683693735 -2.838811680821778e-05 -1.8458309213919872e-05 -2.838811680821778e-05 4.649595727742777e-06" pbc="T T T"
C       -0.00896807      -0.00525601       3.91909039       0.00171654       0.00112158      -0.00184880
C       -1.27529664       2.09926991       4.11957354      -0.00021180       0.00377316      -0.00109491
C       -2.51679664       4.25741377       4.03339166      -0.00363534       0.00047388      -0.00121895
C       -3.71211498       6.40799347       3.82522696      -0.00175360      -0.00083083      -0.01620443
C       -4.93833645       8.55107624       3.72203266      -0.00215535      -0.00124446      -0.00070320
C        2.46413222       0.01037330       3.91384877      -0.00519445      -0.00062859      -0.01199513
C        1.20949996       2.11852230       4.17731841       0.00084251       0.00288076      -0.00250989
C       -0.10080009       4.22067132       4.20578439       0.00688969       0.00103040      -0.00724393
C       -1.26826163       6.39582142       3.86844387      -0.00019163      -0.00442799      -0.00283951
C       -2.46664413       8.54396796       3.79853281       0.00088334      -0.00351265      -0.00448739
C        4.92791716      -0.00232568       3.78588458      -0.00430549       0.00181246       0.00008634
C        3.69392262       2.15957552       3.87331265      -0.00304683      -0.00595225       0.00534099
P        2.48990497       4.62210901       4.50262152       0.00168447      -0.00087533      -0.00399375
P        1.33500256       6.13728335       3.02971329       0.00521527      -0.00589805      -0.01506715
C        0.00511485       8.52847977       3.63206429       0.00658939       0.00185533      -0.00150913
C        7.39041944      -0.00977169       3.74395095      -0.00154893       0.00640987      -0.00110335
C        6.16109369       2.12464726       3.74347925      -0.00234722       0.00894825       0.01016599
C        4.96840646       4.26972336       3.48862067      -0.00771973      -0.00341826      -0.00082144
S        3.85361467       6.47188915       2.16166379       0.00023708       0.00391207      -0.00529337
C        2.48015468       8.58251856       3.37083891       0.00297760      -0.00271811       0.00346721
C        9.85926168      -0.00953999       3.80758021       0.00502140      -0.00485216      -0.00950275
C        8.61237896       2.11923638       3.90825641       0.00177388       0.00073782       0.00323324
C        7.39829131       4.26558420       3.74110457      -0.00449639       0.00556993      -0.00290799
C        6.19683117       6.41947583       3.44558516      -0.00023036       0.00110399      -0.00291597
C        4.95480919       8.57373640       3.44265851      -0.00012600      -0.00478128       0.00141370
C       -0.02827169       1.40140436       4.10134170      -0.00011814       0.00336751      -0.00198406
C       -1.31493041       3.51787539       4.17649665       0.00172827       0.00528560       0.00479702
C       -2.50103148       5.68520671       3.94412999      -0.00451277      -0.00134897       0.00173661
C       -3.70312416       7.83480800       3.78698609      -0.00148304      -0.00183833       0.00843107
C       -4.93746769       9.97694423       3.85696611      -0.00214365      -0.00425521       0.01624719
C        2.46162763       1.43338696       4.01287249      -0.00209957      -0.00362525       0.01838028
C        1.12502093       3.52002063       4.31621016       0.00693389       0.00189752       0.00323619
C       -0.08670381       5.62120519       3.90047826       0.00212564      -0.00250945      -0.01320203
C       -1.23748552       7.82151210       3.74712102       0.00661422      -0.00182580       0.00784574
C       -2.47270303       9.97292152       3.82661755      -0.00451692      -0.00132195       0.00207828
C        4.92428454       1.42464122       3.78401220       0.00079201       0.00235739       0.01087724
C        3.75366488       3.58888331       3.79933849      -0.00644060      -0.00928337       0.00221389
C        1.25113392       7.86724952       3.41126131       0.00550526      -0.00217018      -0.00562269
C       -0.00766624       9.96211187       3.71474293      -0.00107884       0.00388314       0.00985109
C        7.38746002       1.41039561       3.80572724      -0.00098280       0.00777174      -0.00125855
C        6.18275153       3.54682891       3.63887796      -0.00632643       0.00707292       0.01143489
C        5.04247725       5.67108455       3.15261437       0.00112321      -0.00300949       0.00539106
C        3.73981275       7.95837767       3.08318463      -0.00027084      -0.00955709       0.00920133
C        2.46454180       9.97859758       3.66236624       0.00011754       0.00279593      -0.01377594
C        9.84098779       1.40075302       3.97056967       0.00215646      -0.00391608       0.00500628
C        8.60755646       3.54521917       3.91447330      -0.00516541       0.00209532      -0.00197904
C        7.40485610       5.69409110       3.69889292      -0.00256968       0.00292134      -0.00304145
C        6.18349590       7.84858249       3.49782093      -0.00262181       0.00034899       0.00273922
C        4.93319483       9.97480390       3.74927167       0.00569946      -0.00398409      -0.00702847
Hg       2.86655465       5.43787313       6.66969854       0.00753824       0.00111995      -0.00092065
O        3.29060946       6.19817626       8.55282298      -0.00301563       0.00307561       0.00390737
O        2.51766586       5.28463233       9.41663944       0.01870726      -0.00236408       0.00571141
H        3.26380721       4.91090979       9.92579213      -0.01256340       0.00652682      -0.01071970
