50
Lattice="12.336457 0.0 0.0 -6.168228499999997 10.683685154694365 0.0 0.0 0.0 15.0" Properties=species:S:1:pos:R:3:forces:R:3 energy=-434.3828850543507 free_energy=-434.3828850543507 stress="-0.007544160096492921 -0.00223483789063597 9.435308364895928e-06 -0.00223483789063597 -0.0017619542215423054 1.0834199098268837e-05 9.435308364895928e-06 1.0834199098268837e-05 2.562209045945253e-05" pbc="T T T"
C        0.00997820       0.00936824       3.86089125       0.01523026      -0.00499235      -0.00637654
C       -1.25934898       2.12216091       3.67159807       0.00151617      -0.00277123       0.00323246
C       -2.50637194       4.27735339       3.91398132      -0.00389428      -0.00057039       0.00166135
C       -3.69094083       6.42969153       4.13970868      -0.00444406       0.00554387       0.00129516
C       -4.90943065       8.57808355       4.10588973      -0.00300408       0.00261084      -0.00624915
C        2.48326212       0.00571332       3.75576997       0.00512155       0.00336824       0.00045253
C        1.21064489       2.04107720       3.24090595      -0.00258542       0.00530855       0.00240441
C       -0.24092602       4.30526914       3.17596591      -0.00364102       0.00496878      -0.00868708
C       -1.28684821       6.42978075       3.79592242       0.00512406      -0.00184646      -0.00545497
C       -2.44537382       8.56538618       3.98102842      -0.00405000      -0.00520086      -0.00151394
C        4.95085157       0.00355662       3.77292868      -0.00647954      -0.00060803      -0.00329985
C        3.72656523       2.06414394       3.24728194       0.00507953       0.00252206       0.01268389
B        1.16726420       6.36108362       3.55966544       0.01139202      -0.00154860      -0.00331512
C        0.02609385       8.54139191       3.82634425      -0.00266109       0.00319844      -0.00505704
C        7.41658900      -0.00885011       3.87412042      -0.00488981       0.00706442      -0.00153236
C        6.17196389       2.15682356       3.74423506       0.00735018      -0.00138521       0.01271689
C        5.06818342       4.40320736       3.57222014       0.00414300      -0.00468378       0.00105980
O        3.83884768       6.47450461       3.77656357       0.00205055      -0.01401823       0.00130143
C        2.51548382       8.51927399       3.87642735      -0.00743835      -0.00303424      -0.01055150
C        9.87658201      -0.01033344       3.92916145      -0.00185517       0.01028041      -0.00736270
C        8.62891072       2.13572386       3.94020900      -0.00333448       0.00406439       0.00088930
C        7.40504128       4.29145651       4.07363308      -0.00272069      -0.00852338       0.00137422
C        6.21400665       6.45837424       4.14189851       0.00761496      -0.00432817       0.00462656
C        4.96309414       8.55749723       4.05228668      -0.00512770       0.00050695      -0.00463513
C       -0.00868089       1.41769535       3.59229380       0.00477371      -0.00439767       0.00740589
C       -1.32788820       3.53950597       3.59395096       0.00090668      -0.00084653      -0.00117761
C       -2.49110457       5.70525952       3.97791788      -0.00176592       0.00447301       0.00493642
C       -3.67627845       7.85907882       4.10413863      -0.00820533       0.00472132      -0.00321684
C       -4.91575018       9.99669315       3.92800956       0.01262945      -0.00230594      -0.00661089
C        2.47691347       1.40002119       3.39137234       0.00053055       0.00447297       0.00082083
S        1.08811337       3.56047330       2.36478900       0.00557112       0.01189338       0.00378747
C       -0.15551942       5.67693031       3.42897889       0.00787061       0.00026350      -0.00458859
C       -1.22265716       7.84866139       3.88738061      -0.00123912       0.00014074      -0.01885319
C       -2.44907476       9.98580375       3.85283947      -0.00380635      -0.00550967       0.00659852
C        4.94495073       1.43237911       3.59020616       0.00590509       0.00132350       0.00953392
S        3.84554374       3.67958336       2.53614919      -0.00359978      -0.00231492       0.00810986
C        1.26889182       7.83946299       3.76098541      -0.00629965      -0.00609888       0.01054583
C        0.01654980       9.97037882       3.84334504      -0.00604685       0.00437791      -0.00327953
C        7.39332639       1.42895300       3.87863620       0.00370304       0.00397969       0.00198215
C        6.19282415       3.59089499       3.83124258      -0.00157193      -0.00525193       0.00890768
C        5.04830029       5.77203663       3.83920920       0.00785113      -0.00868076       0.01021719
C        3.76551777       7.84821180       3.93331727      -0.00480982      -0.00814467      -0.01263975
C        2.48866683       9.95129888       3.91739486      -0.00570879       0.00355570      -0.00052882
C        9.86783908       1.42031786       3.87469795      -0.00562863       0.00855832      -0.01011134
C        8.62143209       3.55893208       4.02444922      -0.00446181      -0.00262067       0.00595979
C        7.42283993       5.71305438       4.16955896       0.00387882      -0.00749728       0.00848457
C        6.20534254       7.87568781       4.14681453      -0.00099338      -0.00023803       0.00536084
C        4.94567298       9.97993109       3.97059183       0.00589470       0.00764208       0.00033668
Ir       2.28667370       4.74321794       3.83475118      -0.01373361       0.00289304       0.00438808
O        2.40839928       4.69877745       5.58638316      -0.00014054      -0.00031428      -0.01603179
