50
Lattice="12.336457 0.0 0.0 -6.168228499999997 10.683685154694365 0.0 0.0 0.0 15.0" Properties=species:S:1:pos:R:3:forces:R:3 energy=-444.0052973742129 free_energy=-444.0052973742129 stress="-0.003933214600355177 -0.0008246045503429117 3.728079618740909e-06 -0.0008246045503429117 0.001927244913359733 8.070797545571244e-07 3.728079618740909e-06 8.070797545571244e-07 4.078739656081866e-06" pbc="T T T"
C        0.01808929       0.03880288       3.63377849      -0.00539499      -0.00024049      -0.00436971
C       -1.23649195       2.14030436       3.41682226       0.00527482       0.00525163       0.00137200
C       -2.47397817       4.29123006       3.35719408      -0.00392023       0.00039389       0.00072332
C       -3.68902402       6.43982128       3.52617168       0.00682416      -0.00219400      -0.00555150
C       -4.91497620       8.58768703       3.70754140       0.00596314      -0.00265837       0.00887835
C        2.48204201       0.07732025       3.73674518      -0.00236612       0.00043820       0.00555130
C        1.21878040       2.20715100       3.72202353       0.00400414      -0.00813181      -0.00526282
C       -0.05107290       4.25154835       3.56863415      -0.00094359      -0.00549664      -0.00034389
C       -1.23769714       6.42677913       3.61597109      -0.00034853       0.00367114      -0.00241134
C       -2.45324355       8.58470873       3.67438954      -0.00461038       0.00316770      -0.00014312
C        4.94493409       0.03406301       3.72404868       0.00201462      -0.00425756      -0.00473029
C        3.73198082       2.21400887       3.89871150      -0.00131696       0.00142222       0.00197199
B        1.21683659       6.32668933       4.21658667      -0.00924404       0.00393458      -0.00608669
C        0.01549756       8.55607042       3.82890298      -0.00164564      -0.00055357       0.00421287
C        7.41189888       0.00918971       3.64539495       0.00345803       0.00028509       0.00062900
C        6.18495925       2.14612718       3.60719153      -0.00136408       0.00085043       0.00225165
C        5.01065976       4.24487858       3.95561850      -0.00284751      -0.00075777      -0.00892332
P        3.78747191       6.42143465       5.08744062      -0.00721175       0.00622638      -0.01037529
C        2.47727683       8.58200167       3.98775778       0.00338318       0.00157472       0.00398646
C        9.87809503       0.00969135       3.60223387      -0.00357854       0.00274928       0.00653669
C        8.63882272       2.14379872       3.41527550       0.00725316      -0.00622377      -0.00471794
C        7.41611367       4.29100090       3.49430130       0.00512846       0.00212144       0.00691294
C        6.21689211       6.42908163       3.84495986      -0.00392969       0.00228198      -0.00063814
C        4.96618936       8.59103050       3.91506277       0.00018034       0.00607983       0.00032505
C        0.00748601       1.46101206       3.55630767       0.00215203      -0.00078336      -0.00506090
C       -1.25734883       3.55419080       3.36474076      -0.00442635       0.00347804       0.00404266
C       -2.46682321       5.71994440       3.45624211       0.00393237      -0.00116813       0.00044333
C       -3.68434608       7.86991282       3.62858406       0.00419491      -0.00452795      -0.00260418
C       -4.91255528      10.02434967       3.69702439      -0.00232213      -0.00122094       0.00279739
C        2.47652058       1.51225833       3.80698485       0.00297965      -0.00051688       0.00064322
N        1.10487572       3.57340687       3.83604093      -0.00297050      -0.01047026      -0.00037147
C       -0.04868541       5.66251342       3.72676334      -0.00410969      -0.00323648      -0.00197811
C       -1.22575030       7.85840027       3.71384318      -0.00527476       0.00422784       0.00098612
C       -2.45878051      10.01940136       3.72773919      -0.00294128       0.00195643      -0.00609257
C        4.94669638       1.46252862       3.73500035      -0.00182447      -0.00227295       0.00319542
N        3.83556382       3.56736529       4.14952467      -0.00178364       0.00021076       0.00017064
C        1.24849588       7.85195348       4.01930867       0.00114795       0.00475232       0.00697949
C        0.01001906       9.98806970       3.73041441       0.00439118      -0.00290078       0.00243911
C        7.41102879       1.42985499       3.52554549       0.00205098      -0.00009538      -0.00791642
C        6.20442609       3.55827544       3.63000463       0.00165206       0.00235695      -0.00090134
C        5.07155763       5.65304406       4.14701535      -0.00597016      -0.00137219      -0.00457335
C        3.73240226       7.94362737       4.19691349       0.00291821       0.00333768      -0.00217774
C        2.47789114       9.98713941       3.71856039       0.00060460       0.00016084       0.00210645
C        9.87109665       1.42687382       3.43951753       0.00892478       0.00007560       0.00021729
C        8.63645277       3.57294333       3.37439780       0.00153186      -0.00546536       0.00250233
C        7.42486652       5.71931009       3.57733679       0.00305537       0.00423355      -0.00015318
C        6.20055980       7.86887198       3.84319409       0.00084225       0.00449031       0.00311406
C        4.95332253      10.00198566       3.68921114      -0.00726300       0.00433608       0.00607030
Ir       2.31558602       4.78383711       4.93790655      -0.00463934      -0.00637446       0.00478020
O        1.85268366       3.95052137       6.42271904       0.00838514      -0.00314582       0.00154365
