49
Lattice="12.336457 0.0 0.0 -6.168228499999997 10.683685154694365 0.0 0.0 0.0 15.0" Properties=species:S:1:pos:R:3:forces:R:3 energy=-433.03892503681607 free_energy=-433.03892503681607 stress="-0.006393137166368033 -0.003644864575775172 3.539102938465281e-06 -0.003644864575775172 -0.0022688432457036905 7.349490158817894e-07 3.539102938465281e-06 7.349490158817894e-07 3.752976802986528e-06" pbc="T T T"
C       -0.00197961      -0.00423171       3.87070862      -0.00216622      -0.00474903       0.00228729
C       -1.27617703       2.10994826       4.09599332       0.00233287      -0.00005055      -0.00040728
C       -2.51599247       4.26016409       3.89059516      -0.00486968       0.00586776      -0.00756324
C       -3.68930440       6.41545402       3.60982198       0.00553716      -0.00103649      -0.00166829
C       -4.91192723       8.56513576       3.63750734      -0.00009544      -0.00600166       0.00105114
C        2.47456890      -0.01332378       3.80252438       0.00578670       0.00802995      -0.00461854
C        1.23763874       2.06356788       4.26743561       0.00639780       0.00421636      -0.00620439
C       -0.19065104       4.29949223       4.52942922      -0.01100093      -0.00281241       0.00115091
C       -1.28103379       6.41110610       3.90833662      -0.00381841       0.00230120       0.01231494
C       -2.45396433       8.54574109       3.69006494       0.00227739      -0.00222762       0.00617381
C        4.93642943      -0.00162147       3.62344891      -0.00313269      -0.00734570      -0.00800935
C        3.65150755       2.09406950       3.52710935       0.00371969       0.00385208      -0.00685560
B        1.22022676       6.34089739       4.03008177       0.00272320       0.00571038       0.00276672
C        0.00844474       8.53361651       3.74474028      -0.00765743       0.01103792      -0.00070488
C        7.40256127      -0.01773625       3.63088229       0.00469246      -0.00426177      -0.00380429
C        6.15351365       2.13649193       3.41586602      -0.01455307       0.00341557       0.00136379
C        5.01370497       4.35770721       3.15483572      -0.00489743      -0.00110673       0.00399311
N        3.88707429       6.42507581       3.66605583       0.00562079       0.00624617      -0.00155039
C        2.48943228       8.50867273       3.74029306       0.00135019      -0.00988382      -0.00229661
C        9.86330435      -0.01700386       3.76289192      -0.00915698      -0.00531004       0.01065117
C        8.61752577       2.12323011       3.68778744       0.00038676       0.00475527      -0.00215763
C        7.41144719       4.27834440       3.45278161       0.01366594       0.00384062       0.00416300
C        6.24106958       6.46764141       3.37167866       0.00061237      -0.01159932       0.00465980
C        4.96293698       8.55026887       3.63891590       0.00123542      -0.00070194      -0.00182534
C       -0.01710015       1.40757034       4.10932459       0.00702522       0.00008877      -0.00131105
C       -1.33030200       3.53096714       4.21168897      -0.01099656       0.00037201      -0.00495593
C       -2.49511585       5.68811312       3.79960602      -0.00390980       0.00235734      -0.00137754
C       -3.68495620       7.84101389       3.63517981       0.00353431      -0.00236600       0.00174289
C       -4.92985116       9.97632982       3.78534795       0.00328473       0.00112532      -0.00068513
C        2.45929625       1.41007364       3.90940206       0.00802105       0.00893489      -0.01090119
P        1.30212825       3.58900341       5.23380468       0.00223440      -0.00116135      -0.00527895
C       -0.12820590       5.66290597       4.21261464      -0.00030942       0.00048804       0.00899202
C       -1.23156859       7.82888463       3.76395795      -0.00222127      -0.00046552       0.00492265
C       -2.45942206       9.97058627       3.69397436      -0.00005950      -0.00312620      -0.00059962
C        4.91674875       1.43217771       3.49613016      -0.00920818      -0.01049562      -0.00379509
S        3.46288763       3.64757243       2.72203689       0.00635642       0.00445017      -0.00637472
C        1.25641028       7.83262361       3.81185558      -0.01103987       0.01290923       0.00150263
C        0.00239220       9.96062982       3.64783201       0.00070889       0.00667897       0.00074507
C        7.38472714       1.41677865       3.55896441      -0.00764678       0.00302303       0.00672337
C        6.17810324       3.56692167       3.30175206       0.00071205       0.00832072       0.00476548
C        5.02311836       5.76553041       3.31779959      -0.00367873      -0.00102725      -0.00329032
C        3.74697784       7.79104535       3.69486478       0.00673742       0.00329617      -0.00066156
C        2.47421830       9.94596429       3.69641010       0.00060681      -0.01637119      -0.00681437
C        9.84915556       1.40812546       3.84727349      -0.00117604       0.00012716       0.00246868
C        8.61488053       3.55057313       3.66677287       0.00977895       0.00660648      -0.00157104
C        7.43227586       5.70783089       3.45122748       0.01194623      -0.00094036      -0.00122526
C        6.19983337       7.86795050       3.53858665      -0.00149256      -0.01153429       0.00419825
C        4.93834374       9.96579844       3.75894236      -0.00856323      -0.00415305       0.01282021
Ir       2.66206142       4.98087030       4.33958415       0.00436499      -0.00932367      -0.00294933
