50
Lattice="12.336457 0.0 0.0 -6.168228499999997 10.683685154694365 0.0 0.0 0.0 15.0" Properties=species:S:1:pos:R:3:forces:R:3 energy=-443.7542738182756 free_energy=-443.7542738182756 stress="-0.008251250958308807 -0.0013059923942375037 1.2340942214973622e-05 -0.0013059923942375037 0.0008813282690943501 5.458702780034389e-06 1.2340942214973622e-05 5.458702780034389e-06 1.0172672262924816e-05" pbc="T T T"
C       -0.00931194       0.01659278       3.89035867      -0.00110207       0.00096699       0.00919894
C       -1.26571761       2.11945535       3.92589694      -0.00835248       0.00814008      -0.00050367
C       -2.48790273       4.26763694       3.84603025      -0.00280917       0.00273491      -0.00504729
C       -3.68916619       6.42088337       3.75224555      -0.00064369      -0.00668346       0.00202713
C       -4.93208564       8.56843757       3.80063782       0.00271228       0.00058799       0.00878844
C        2.45288887       0.03222975       3.87636481       0.01035396      -0.00114150      -0.00837870
C        1.19268154       2.19104230       3.91985802      -0.00056804      -0.00350155      -0.00549141
C       -0.06989408       4.25469348       3.98500442       0.00655994      -0.00718718      -0.00790442
C       -1.25962928       6.41891860       3.93455870      -0.00011551       0.00323438      -0.00356010
C       -2.47497585       8.56353421       3.88359040      -0.00898636       0.00286611      -0.00250501
C        4.92908092      -0.00070970       3.75494385       0.00348481      -0.00426878      -0.00172059
C        3.66821849       2.10024162       3.47042773       0.00591466      -0.00855469       0.00475358
N        1.14362618       6.36441414       4.00134524      -0.00411051       0.00649303       0.00958746
C       -0.00610152       8.51323919       3.90461948      -0.00564211       0.00480357       0.00025741
C        7.38941719      -0.02788613       3.78254783      -0.00813946       0.01304580      -0.00297345
C        6.17651808       2.11419602       3.46844445       0.00222607       0.00162381      -0.00350088
C        5.09499525       4.30815450       3.00865224       0.00486796       0.00661160       0.00373157
B        3.80664639       6.38212546       3.67031040      -0.01481065      -0.00858258       0.00032614
C        2.44644520       8.50277413       3.86180829       0.00668569       0.01147773       0.00459612
C        9.84794214      -0.02504768       3.85515257       0.00121528      -0.00111254      -0.00085584
C        8.61884159       2.11664932       3.74231951       0.00792576      -0.00109819      -0.00791977
C        7.43912058       4.27020223       3.50667386      -0.00165779      -0.00709958       0.00462886
C        6.23822410       6.44207562       3.48086929      -0.00157545      -0.00195242      -0.00182051
C        4.94260137       8.55805767       3.75656697       0.00157119      -0.01269133       0.00491282
C       -0.02249088       1.44237430       3.93457332      -0.00882777       0.00636285       0.01144789
C       -1.28067039       3.53874029       3.93852526      -0.00213346       0.00675079      -0.01105283
C       -2.47606917       5.69561172       3.85222071       0.00187120       0.00035038       0.00676608
C       -3.70031532       7.85010905       3.81899198      -0.00322506      -0.00542527      -0.00456718
C       -4.94018794       9.99448683       3.88156187       0.00687469       0.00409038       0.00234291
C        2.44474910       1.46094254       3.79219360       0.00292176      -0.00587002      -0.00949346
N        1.10556323       3.56927392       4.00484441       0.01110257      -0.00542105       0.00871319
C       -0.05080101       5.70003738       3.97900288      -0.00086989      -0.00553528      -0.01004988
C       -1.24690869       7.83947486       3.91941359      -0.00978778       0.00673125      -0.00967113
C       -2.47801658       9.99221419       3.85163671       0.00536522      -0.00026065       0.00037076
C        4.92490004       1.41998707       3.54820525       0.00563018      -0.00854851      -0.00165969
P        3.49761909       3.67297994       2.63240973       0.01262435       0.01341045       0.00131410
C        1.21216193       7.75042245       3.92872760       0.00133458       0.00806651      -0.00464177
C       -0.00823120       9.94609538       3.81396134      -0.00203917       0.00306960       0.00337604
C        7.38950694       1.40033728       3.66357661       0.00188628       0.01011552       0.00159547
C        6.23484540       3.53576257       3.28486038       0.00000586      -0.00143947      -0.00055129
C        5.07790990       5.69821180       3.24153907      -0.00618080       0.00397221       0.00018780
C        3.70086062       7.85851806       3.76177734      -0.00078799      -0.00924252       0.00214160
C        2.44444264       9.93296151       3.84637095      -0.00494706       0.01263005      -0.00600988
C        9.84297960       1.40139271       3.85722145       0.00281832      -0.00171277      -0.00234912
C        8.63278522       3.54735072       3.70696261       0.00194395      -0.00441316      -0.00369800
C        7.44654111       5.70551843       3.56051783      -0.00337078      -0.00657175       0.00704307
C        6.18709013       7.85607295       3.68418464       0.00430403      -0.00447529       0.01391645
C        4.92922470       9.97521085       3.84526533      -0.00089552      -0.01116343       0.01413722
Ir       2.64297527       4.94625110       4.31032732      -0.00986359      -0.00345007      -0.00730980
O        2.58139097       4.95056017       6.07047804      -0.00075840      -0.00073299      -0.00292538
