51
Lattice="12.336457 0.0 0.0 -6.168228499999997 10.683685154694365 0.0 0.0 0.0 15.0" Properties=species:S:1:pos:R:3:initial_magmoms:R:1:forces:R:3 energy=-444.07407568751205 free_energy=-444.07407568751205 stress="-0.004755654676081805 -0.0037776358939233647 -1.200297011847022e-06 -0.0037776358939233647 -0.0022844858917865276 4.085315703031101e-06 -1.200297011847022e-06 4.085315703031101e-06 1.5842029629994054e-05" pbc="T T T"
C       -0.04951292      -0.06208772       3.81822404       0.00000000      -0.00038295      -0.00555846       0.00045595
C       -1.32160586       2.05846352       4.02169609       0.00000000       0.00790879       0.01217670       0.00146870
C       -2.54526215       4.21470395       3.81456291       0.00000000      -0.00045970       0.00092404      -0.00614113
C       -3.72292460       6.36738507       3.57178372       0.00000000       0.00185351       0.00103281      -0.00740858
C       -4.95317189       8.51153351       3.60325027       0.00000000      -0.00565562      -0.00244274      -0.01088456
C        2.42859720      -0.06733534       3.82223900       0.00000000       0.00360422       0.00436233      -0.00700414
C        1.17506181       2.00081497       4.27977417       0.00000000      -0.00215474      -0.00197227       0.00573469
C       -0.22540585       4.24005802       4.48987062       0.00000000       0.00478767       0.00326226      -0.00160962
C       -1.30895125       6.36140940       3.93276249       0.00000000       0.00326236      -0.00107904      -0.00771934
C       -2.49174387       8.49597064       3.71215379       0.00000000      -0.00568937      -0.00234829       0.00149191
C        4.88998099      -0.04425877       3.66994627       0.00000000       0.00070928      -0.00009414      -0.00106650
C        3.60801129       2.05319905       3.64175963       0.00000000       0.00532533      -0.00318879       0.00730333
B        1.17569726       6.34502058       4.28838126       0.00000000      -0.00815981      -0.00302470      -0.00384169
C       -0.03135113       8.49418308       3.81951694       0.00000000       0.00088551       0.00922399       0.00720268
C        7.35472938      -0.05805279       3.63210030       0.00000000      -0.00087725      -0.00331986      -0.00104477
C        6.10346243       2.09689535       3.44888648       0.00000000       0.00156920      -0.00353062      -0.00812555
C        4.97507785       4.31927631       3.16691065       0.00000000       0.00157999       0.00750361      -0.00786343
N        3.81566650       6.37056249       3.66347841       0.00000000      -0.00346339       0.00011639       0.00307881
C        2.44490152       8.47083013       3.75205623       0.00000000       0.00367800      -0.00550147      -0.00499176
C        9.81817540      -0.06494222       3.70009858       0.00000000      -0.00535710      -0.00002758       0.00034774
C        8.57493014       2.08034850       3.63034526       0.00000000      -0.00077124      -0.00690247       0.00007713
C        7.37405616       4.23639851       3.40855300       0.00000000       0.00249910       0.00230387      -0.00846257
C        6.19210382       6.41554057       3.31496962       0.00000000      -0.00104207       0.00032905       0.00089862
C        4.91272627       8.49537600       3.57005447       0.00000000      -0.00006835      -0.00223987      -0.00657108
C       -0.06828916       1.34716686       4.06473133       0.00000000       0.00201316       0.00001651       0.00422355
C       -1.36112164       3.48240996       4.12486182       0.00000000       0.00195000       0.01080788       0.01020022
C       -2.52322615       5.64279500       3.76252483       0.00000000       0.00140588       0.00013531      -0.00232409
C       -3.72176105       7.79099566       3.61948764       0.00000000      -0.00767857      -0.00180043      -0.00388250
C       -4.97517215       9.92046805       3.75987618       0.00000000       0.00220204      -0.00305506       0.00133350
C        2.41159928       1.34727695       3.96233146       0.00000000       0.00255877       0.00301066       0.00584929
P        1.16427001       3.47760550       5.29987590       0.00000000      -0.00642295      -0.00074668      -0.00831783
C       -0.15658775       5.61982022       4.25944427       0.00000000      -0.00010833      -0.00130528      -0.00783933
C       -1.26853894       7.78249613       3.81522580       0.00000000      -0.00048705       0.00284135       0.00785906
C       -2.50133428       9.92102137       3.72668426       0.00000000       0.00167323      -0.00047880       0.00271622
C        4.86701910       1.39509515       3.56754472       0.00000000       0.00250237      -0.00389222      -0.00302806
S        3.37761936       3.68298025       3.07112857       0.00000000      -0.00099979       0.00210035       0.00711040
C        1.21363153       7.80452067       3.93320238       0.00000000      -0.00034056       0.00168224      -0.00166986
C       -0.04347284       9.92034758       3.68617569       0.00000000      -0.00026149       0.00845820       0.01257826
C        7.33672787       1.37630151       3.54769421       0.00000000      -0.00277477      -0.00673024       0.00555996
C        6.12782998       3.52967041       3.31316191       0.00000000       0.00068680       0.00199805      -0.00220546
C        4.96598831       5.72981655       3.27815857       0.00000000      -0.00235810       0.00463170       0.00975003
C        3.69762289       7.73507375       3.64391700       0.00000000       0.00609522      -0.00095261       0.00343935
C        2.42711795       9.89942478       3.66805161       0.00000000      -0.00366295      -0.00515636       0.00869671
C        9.80499144       1.36078357       3.77397388       0.00000000       0.00621283       0.00409265       0.00362511
C        8.58025383       3.50774146       3.60025449       0.00000000      -0.00280342      -0.00494097       0.00695368
C        7.39396987       5.66253906       3.39659814       0.00000000       0.00193817       0.00453064      -0.00119712
C        6.15855792       7.81811872       3.47957802       0.00000000      -0.00336421      -0.00314639      -0.00067633
C        4.89059975       9.91166761       3.69227989       0.00000000      -0.00527651      -0.00324251       0.00610159
Ir       2.60393259       5.03030495       4.72020498       0.00000000       0.00151129      -0.00733207      -0.00303674
O        3.16200848       6.21084078       6.27601821       1.00000000       0.00591714      -0.00101788      -0.00386085
O        4.40259554       5.79744932       6.25707173       1.00000000      -0.00370959      -0.00051280      -0.00328362
