52
Lattice="12.336457 0.0 0.0 -6.168228499999997 10.683685154694365 0.0 0.0 0.0 15.0" Properties=species:S:1:pos:R:3:initial_magmoms:R:1:forces:R:3 energy=-458.2278604468073 free_energy=-458.2278604468073 stress="-0.0023763638587127826 0.0035884487273086713 1.018297783529691e-05 0.0035884487273086713 -0.006845233645663108 -2.0204562655546908e-05 1.018297783529691e-05 -2.0204562655546908e-05 7.147425508596637e-06" pbc="T T T"
C       -0.06573550       0.00935923       3.81257231       0.00000000       0.00726924       0.00071749      -0.00028830
C       -1.27006168       2.17127534       3.83883432       0.00000000       0.00416126      -0.00301084       0.00777129
C       -2.49507336       4.30749353       3.81982511       0.00000000      -0.00043311      -0.00671985      -0.01169516
C       -3.74813909       6.42994038       3.73910088       0.00000000       0.00450951       0.00427814      -0.00159909
C       -5.01908063       8.54727245       3.75069545       0.00000000       0.00104171      -0.00291444      -0.00525848
C        2.39886559       0.00480534       3.71803931       0.00000000       0.00739075       0.00106718       0.00906979
C        1.17912772       2.14023365       3.66357414       0.00000000       0.00044657      -0.00226675       0.00249736
C       -0.02921716       4.31069030       3.80781903       0.00000000      -0.00313027      -0.00092277      -0.00087156
C       -1.26918149       6.44555187       3.89793233       0.00000000      -0.00884325      -0.00182335       0.00429239
C       -2.54162083       8.56636011       3.83873670       0.00000000       0.00342793      -0.00260523      -0.00900287
C        4.87666330       0.01199711       3.79735579       0.00000000       0.00427613      -0.00666027      -0.00902637
C        3.66904050       2.10378256       3.50116779       0.00000000      -0.00202676       0.00059711       0.00542139
B        2.47581773       4.25486219       3.50041493       0.00000000      -0.00918234      -0.00391035      -0.00780734
C        1.18197327       6.51690494       4.00905401       0.00000000      -0.00256545       0.00079285      -0.01008943
C       -0.08704000       8.59484471       4.00664544       0.00000000       0.00084655       0.00696552      -0.00508302
C        7.34228785       0.04403410       3.96820000       0.00000000       0.00089192       0.00017751      -0.00581463
C        6.14280129       2.12768480       3.64280586       0.00000000      -0.00385518      -0.00493471      -0.00125444
C        4.97375524       4.19132135       3.18476052       0.00000000       0.00720512      -0.00243449       0.00751488
S        3.73694025       6.23086049       1.91670991       0.00000000      -0.00915894      -0.00461691       0.00678671
C        2.38161758       8.64297131       4.11798484       0.00000000      -0.00423522       0.00310702      -0.00027848
C        9.82551025       0.04584877       3.98066632       0.00000000      -0.00596242       0.00348628      -0.00070455
C        8.60126697       2.16984432       3.84748244       0.00000000      -0.00511096       0.00782151      -0.01434743
C        7.39098066       4.28497436       3.59626024       0.00000000      -0.00024278       0.00873067      -0.00872549
C        6.13014284       6.42667798       3.43500196       0.00000000       0.00664245      -0.00570023       0.00303772
C        4.84551356       8.54831083       3.89757559       0.00000000       0.00457143       0.00392710      -0.00537076
C       -0.05269423       1.43699235       3.77706851       0.00000000       0.00463552      -0.00193612       0.01000331
C       -1.26438614       3.59950917       3.83492115       0.00000000       0.00382112      -0.00213211      -0.00097977
C       -2.50177760       5.73054295       3.81769148       0.00000000      -0.00583670      -0.00767091       0.01246318
C       -3.77304535       7.84839008       3.76887537       0.00000000       0.00206625       0.00077944       0.01550259
C       -5.00818545       9.97333652       3.76724491       0.00000000       0.00702548      -0.00244357      -0.00685506
C        2.41199889       1.42143050       3.61851719       0.00000000      -0.00148260       0.00195137       0.01229323
C        1.15494272       3.56234004       3.64777628       0.00000000      -0.00833810      -0.00769342       0.00004646
C       -0.00848224       5.74627373       3.90766584       0.00000000      -0.00834329       0.00099968       0.00367504
C       -1.30422496       7.86465385       3.92392126       0.00000000       0.00188798       0.00041208       0.00259028
C       -2.53345102       9.98408174       3.78421117       0.00000000       0.00655251      -0.00204591       0.00580393
C        4.90290077       1.41411738       3.63804726       0.00000000      -0.00470052      -0.00868709      -0.01676773
C        3.75825675       3.49300331       3.28827417       0.00000000       0.00414135      -0.00482545      -0.00360392
C        1.15148613       7.91782854       4.07961059       0.00000000      -0.00600299       0.00635324      -0.00415781
C       -0.06297646      10.00726540       3.93999697       0.00000000       0.00458197       0.00288315       0.01843702
C        7.36374172       1.45173479       3.83537941       0.00000000      -0.00109706       0.00047854      -0.00169021
C        6.18183991       3.53802384       3.45657707       0.00000000       0.00301305      -0.00016098       0.00323859
C        4.95360576       5.64231118       3.02519141       0.00000000       0.00772667       0.00000061      -0.00157003
C        3.58887203       7.93799047       4.08534941       0.00000000       0.00147370      -0.00169231       0.01332896
C        2.41033821      10.05135329       4.06129209       0.00000000      -0.00651218      -0.00137736      -0.01133110
C        9.83308005       1.46662431       3.90449818       0.00000000      -0.00231044       0.00652137       0.01155435
C        8.61174756       3.58965635       3.76557600       0.00000000      -0.00629927       0.00673733      -0.01140200
C        7.35793621       5.71694073       3.58394386       0.00000000       0.00980100       0.00605711      -0.00640364
C        6.07913399       7.82127324       3.69273098       0.00000000       0.00348554      -0.00307325      -0.01106985
C        4.87056072       9.98803446       3.91540109       0.00000000       0.00173939       0.00804469       0.01113273
Ir       3.07603007       6.03765318       4.07565742       0.00000000      -0.00134461       0.00216896       0.00853471
O        3.08174971       5.57258131       6.09333611       1.00000000      -0.00538608      -0.00185593       0.00931169
O        4.37589172       5.46354944       6.13533681       1.00000000      -0.00223161       0.00905860      -0.01125913
