50
Lattice="12.336457 0.0 0.0 -6.168228499999997 10.683685154694365 0.0 0.0 0.0 15.0" Properties=species:S:1:pos:R:3:forces:R:3 energy=-441.31837960554986 free_energy=-441.31837960554986 stress="-0.008527831694877102 0.0030637080255125335 1.4466929499074366e-06 0.0030637080255125335 -0.0037816214641895793 -3.4726383948597386e-06 1.4466929499074366e-06 -3.4726383948597386e-06 -1.9292021806094732e-05" pbc="T T T"
C       -0.01155402      -0.00517189       3.77506260      -0.00216473       0.00253410       0.00252857
C       -1.23555850       2.13440480       3.89801102      -0.00234482      -0.00402839      -0.00912690
C       -2.47445107       4.27574934       3.82369185       0.00746325       0.00666085       0.00059883
C       -3.71140803       6.41302002       3.65626103      -0.00091617      -0.00143606       0.00636325
C       -4.96184353       8.54257360       3.60384897      -0.00658967      -0.00690565       0.00019787
C        2.45021842      -0.01118206       3.80318546       0.00283575      -0.00126344       0.00320400
C        1.24038163       2.12147216       3.92585165      -0.00239052       0.00074054       0.00990514
C       -0.06325710       4.33524294       3.99337396       0.00002297      -0.00589547       0.00569246
C       -1.29584195       6.44667793       3.89996895       0.01063351      -0.00337504      -0.00470454
C       -2.49948555       8.55411414       3.79628510       0.00278987       0.00138108      -0.00708722
C        4.92830633      -0.01216379       3.85001640       0.01184051       0.00401074       0.00920975
C        3.70605551       2.09378573       3.84239909      -0.00294211       0.00412110      -0.00127424
N        1.09211414       6.44111468       4.04584356      -0.00455629       0.00790202       0.00089241
C       -0.02777635       8.53810297       3.91504066      -0.00491715      -0.00669528       0.00120228
C        7.39937711      -0.01904017       3.89440135      -0.00345286      -0.00616050       0.00019154
C        6.19002372       2.11102364       3.75878535      -0.00499234       0.00260517       0.00579203
C        5.04619716       4.26943194       3.39247883      -0.00075997       0.00055101       0.00217184
S        3.54366849       6.31633431       2.64218048       0.00562972      -0.01166929      -0.00800089
C        2.44318059       8.52030251       3.77417563       0.00639170       0.00587131      -0.00607880
C        9.86416422      -0.01780984       3.83238487       0.00011614      -0.00021821      -0.00483741
C        8.64475819       2.12250825       3.82453114      -0.00337518      -0.00022698       0.00705295
C        7.43900999       4.25789161       3.59030402      -0.00240892       0.00243614       0.00322145
C        6.21102597       6.41271853       3.28950624      -0.00726420       0.00019001      -0.00232888
C        4.91193662       8.53695553       3.50845053       0.00337004       0.00421657      -0.00147149
C        0.00058696       1.42616693       3.87999281      -0.00209434       0.00135941       0.00434396
C       -1.24806004       3.56731012       3.91952557       0.00083459      -0.00447971      -0.00172676
C       -2.49327067       5.70213417       3.79880646       0.00812557       0.00582130       0.00254016
C       -3.72506006       7.83673413       3.67676669      -0.00084798      -0.00114788      -0.00932843
C       -4.95297204       9.96676882       3.72696089      -0.00260669      -0.00400757       0.00181272
C        2.46244845       1.40934086       3.86742263      -0.00247459       0.00161281       0.00414800
B        1.25623682       3.63508794       4.04976731       0.00193114      -0.00403007       0.00571382
C       -0.08077544       5.75232407       3.99023938       0.00318294      -0.00468100       0.00169791
C       -1.27314910       7.85303277       3.88115135      -0.00122973      -0.00596536      -0.00271668
C       -2.48483019       9.97193125       3.81487816       0.01152309       0.00449287       0.00412873
C        4.94428507       1.40730185       3.81647197      -0.00118100       0.00430648       0.00615595
B        3.76908163       3.59067417       3.81184923       0.00175925       0.00400392      -0.00549061
C        1.18650354       7.80163007       3.91367361      -0.00118619       0.00929080      -0.00220891
C       -0.00895714       9.96040794       3.89019503       0.00180507      -0.00960180      -0.00315060
C        7.41168992       1.40422333       3.83329587      -0.00708009      -0.00341222       0.00600397
C        6.22869101       3.52451541       3.57951618      -0.00353602       0.00120168      -0.00205649
C        5.07327084       5.63022532       3.06667147       0.00032763      -0.00260841      -0.00058368
C        3.65302659       7.88317542       3.41635791       0.00947726       0.00243535       0.00013599
C        2.45874755       9.94766711       3.86624325       0.00105349       0.00340305      -0.00435505
C        9.87390038       1.41352385       3.86876238      -0.00224891      -0.00328412      -0.00949087
C        8.65112252       3.54879783       3.74952282       0.00335200       0.00629401       0.00672181
C        7.42673088       5.68515825       3.50097469      -0.00526943       0.00225673      -0.00350726
C        6.15529609       7.83432724       3.42931837      -0.00615166      -0.00336526      -0.00595526
C        4.92392479       9.96051810       3.72285727       0.00029998       0.00409254      -0.00814093
Ir       2.61208545       5.09541521       4.31792786      -0.01153940       0.00301343      -0.00987125
O        2.77734047       5.10560343       6.07863771       0.00175550      -0.00234732       0.01186578
