52
Lattice="12.336457 0.0 0.0 -6.168228499999997 10.683685154694365 0.0 0.0 0.0 15.0" Properties=species:S:1:pos:R:3:forces:R:3 energy=-450.26225576809895 free_energy=-450.26225576809895 stress="-0.008699399944012927 0.0031856339269273086 -6.452984182456286e-05 0.0031856339269273086 -0.003266865684103216 3.296817993450301e-06 -6.452984182456286e-05 3.296817993450301e-06 1.3876448907812e-06" pbc="T T T"
C       -0.00367195       0.00609360       3.77234834       0.00914990      -0.00215643       0.00064324
C       -1.22762111       2.14478635       3.88548183      -0.00546317       0.00304622       0.00070020
C       -2.46750763       4.28724424       3.82562292       0.00114566       0.00722413      -0.00381175
C       -3.70313215       6.42517849       3.66830386      -0.00717527      -0.00325659      -0.00370923
C       -4.95350660       8.55454103       3.60554906       0.00228669      -0.00321985       0.00952601
C        2.45840403       0.00065024       3.83476548      -0.00180811       0.00374008      -0.00306142
C        1.24792391       2.13288986       3.93582455      -0.00061510      -0.00421054       0.00452061
C       -0.05845619       4.34623456       3.95866734      -0.00090869      -0.00276007       0.00023545
C       -1.28600477       6.45857055       3.88091557      -0.00368045      -0.00372512      -0.00032809
C       -2.49098417       8.56662399       3.80650601      -0.00404738       0.00510014      -0.00394250
C        4.93605055      -0.00014240       3.90240884      -0.00091394       0.00006563       0.00502020
C        3.71328272       2.10905808       3.91912216       0.00242822      -0.00782993       0.00111388
N        1.10417721       6.45168167       4.05492587       0.00141212      -0.00017691       0.01692323
C       -0.01924306       8.54799019       3.92409992      -0.00251506       0.00366326      -0.00547958
C        7.40818876      -0.00987096       3.92546506       0.00188158       0.00515175      -0.00163921
C        6.19698643       2.12324261       3.83520956      -0.00632426       0.00533225       0.00868493
C        5.05115236       4.28379549       3.48356103       0.00415650      -0.00217404       0.00120790
S        3.54730129       6.30351611       2.67532279      -0.00888467       0.00135755       0.00912795
C        2.45277985       8.52856545       3.77307147      -0.00429588      -0.00517573       0.00649113
C        9.87224721      -0.00721953       3.83090424      -0.00013984      -0.01152848      -0.00842578
C        8.65173937       2.13339241       3.85499160      -0.00089081      -0.00159140       0.00197983
C        7.44388714       4.27035290       3.64437245       0.00905443      -0.00400223      -0.00246179
C        6.21849858       6.42059618       3.31721693      -0.00116353       0.00886551      -0.00071097
C        4.91940209       8.54557714       3.50497410      -0.00523789       0.00572140       0.00039331
C        0.00935295       1.43752851       3.87473335      -0.00165874       0.00198361       0.00053475
C       -1.24038189       3.57793517       3.89962821      -0.00310357       0.00589896      -0.00380318
C       -2.48410960       5.71394286       3.79780332      -0.00674763       0.00269684      -0.01110599
C       -3.71633944       7.84940198       3.68011444      -0.00198230      -0.00334397       0.01090866
C       -4.94432883       9.97877535       3.73480235       0.00472798      -0.00391552       0.00249026
C        2.47048787       1.42217882       3.91196804       0.00158676      -0.00017158      -0.00678981
B        1.26650308       3.65104146       4.03501428      -0.00605860      -0.00462411      -0.00457244
C       -0.06942234       5.76505299       3.96167568       0.00058867      -0.00282072      -0.00262894
C       -1.26429485       7.86480288       3.88084299      -0.00501920      -0.00135983       0.00144571
C       -2.47639327       9.98425043       3.84865360      -0.00442032       0.00720901       0.00449573
C        4.95057531       1.42025101       3.89349166       0.00007249      -0.00332803      -0.00746925
B        3.77021657       3.61017144       3.90733108      -0.00442376      -0.00632362      -0.00975759
C        1.19651979       7.80798219       3.91298056      -0.00327692      -0.00048565       0.00364358
C       -0.00091212       9.97003331       3.92400269       0.00227959       0.00671586      -0.00988036
C        7.41918604       1.41454785       3.88364290      -0.00729410       0.00737599      -0.00447422
C        6.23387129       3.53749690       3.66125053       0.00444893       0.00112827       0.00500966
C        5.07946443       5.63290712       3.11921938       0.00360270       0.00302376       0.00994737
C        3.66068592       7.88720706       3.42225270      -0.00397492      -0.00174542       0.01261717
C        2.46767016       9.95693593       3.87158047      -0.00202479      -0.00680676       0.00140816
C        9.88179002       1.42443568       3.87082505      -0.00326820      -0.01095409      -0.00174540
C        8.65689271       3.56036020       3.78227147       0.01012307      -0.00155104      -0.00748724
C        7.43362210       5.69596543       3.53430466      -0.00162970      -0.00285486      -0.00940687
C        6.16355487       7.84407614       3.43298705      -0.00325556       0.01019210       0.00131519
C        4.93146525       9.97104341       3.71509665       0.00760852      -0.00019170      -0.01057443
Ir       2.62082028       5.10425434       4.36197481       0.00676871       0.00731560      -0.00449398
O        2.07622791       5.29696716       6.24455148       0.01411734      -0.00054600       0.00132857
O        2.83856519       4.38619673       7.08315077       0.01796908      -0.00310967       0.00709067
H        3.34664809       5.03156503       7.61902832       0.00679346       0.00313200      -0.00104330
