49
Lattice="12.336457 0.0 0.0 -6.168228499999997 10.683685154694365 0.0 0.0 0.0 15.0" Properties=species:S:1:pos:R:3:forces:R:3 energy=-438.1085130716397 free_energy=-438.1085130716397 stress="-0.007073746594489456 0.00022686045338579913 -1.0882739426896802e-06 0.00022686045338579913 0.0025400281959384523 9.414627127551207e-06 -1.0882739426896802e-06 9.414627127551207e-06 -7.931654846236303e-07" pbc="T T T"
C       -0.00639057       0.02022658       3.89393965       0.00036609      -0.00577397      -0.00406699
C       -1.25528873       2.11991581       4.04391817       0.00174247      -0.00851554       0.00119445
C       -2.48622867       4.26787388       4.14763082      -0.00211488      -0.00453057       0.00176201
C       -3.69788051       6.42326746       4.03241525      -0.00036286       0.00402139       0.00363263
C       -4.93258310       8.57377493       3.89921311       0.00098885       0.00288048      -0.00067918
C        2.45575209       0.04676793       3.82665859       0.00408119       0.00369557       0.00252231
C        1.19437364       2.20462984       3.75640280      -0.00265207      -0.00088688      -0.00044757
C       -0.06633670       4.26248211       4.03517918       0.00493012      -0.00164257       0.00231821
C       -1.26968392       6.43212666       4.14411508       0.00566089       0.00214764       0.00151024
C       -2.47992060       8.57562280       4.00607600      -0.00750427      -0.00342555       0.00108896
C        4.93183136       0.00172646       3.76987484       0.00029234      -0.00132479      -0.00323176
C        3.69398311       2.08420964       3.30583053       0.00225333      -0.00480641       0.00696031
N        1.08162706       6.37866706       3.74562715      -0.00176713      -0.00164391      -0.00192274
C       -0.01475432       8.52107676       3.91362025      -0.00791383       0.00731295      -0.00670033
C        7.39703375      -0.03394792       3.82610257       0.00992872       0.00343854       0.00283143
C        6.19782345       2.11084358       3.55426961       0.00083006       0.00379400      -0.00426485
C        5.18539691       4.30164264       2.97683569      -0.00132246       0.00159066       0.00029589
B        3.77543329       6.38406288       3.25227527       0.00012355       0.00069570       0.00423936
C        2.44781172       8.49058931       3.72692349      -0.00352541      -0.00241288       0.00319539
C        9.85360080      -0.03213566       3.89480869      -0.00056772       0.00426613       0.00263481
C        8.62779349       2.11294672       3.94050219      -0.00537052      -0.00103270       0.00216869
C        7.44680858       4.26688313       3.77385522      -0.00154053       0.00000288      -0.01305184
C        6.24930359       6.43393710       3.59595239       0.00352062      -0.00895032       0.00481086
C        4.94293319       8.55163331       3.71867528       0.00500716       0.00085958      -0.00181902
C       -0.01577655       1.44771043       3.92311780       0.00197477      -0.00855389      -0.00217849
C       -1.27470183       3.53641765       4.14508772       0.00523339      -0.00644775       0.00360287
C       -2.48283742       5.70053063       4.15385754       0.00186666       0.00260284      -0.00081122
C       -3.70479378       7.85652340       3.99962385      -0.00545014       0.00080802       0.00318661
C       -4.93551852      10.00547599       3.88984127       0.00548094       0.00325682       0.00144227
C        2.45144374       1.47974125       3.62661688      -0.00099790       0.00395639       0.00597865
N        1.07472395       3.58631781       3.73954068       0.00080946      -0.00141389      -0.00495691
C       -0.06048932       5.70563557       4.02968670       0.00524899      -0.00221702       0.00999019
C       -1.25181291       7.84892294       4.04381524      -0.00664695       0.00275051      -0.01146902
C       -2.48022848      10.00285062       3.87142863      -0.00055346      -0.00338817       0.00754060
C        4.94253554       1.41432670       3.52876009       0.00245236      -0.00124536      -0.00667718
P        3.73572062       3.55448173       2.24274321       0.00385903       0.00921694       0.00033123
C        1.19975006       7.75858995       3.78836113      -0.00957340       0.00010823      -0.00477935
C       -0.00764456       9.94876636       3.83817238       0.00508800       0.00848115      -0.00380344
C        7.40185589       1.39745096       3.78894561      -0.00108927       0.00174606       0.00312928
C        6.27473759       3.53388240       3.41848283      -0.00036559       0.00186310      -0.00910908
C        5.12496510       5.68887131       3.19445385       0.00132301       0.00002379       0.00291040
C        3.69984938       7.84968608       3.58088921       0.00129569       0.00603225       0.00083271
C        2.45121686       9.92521249       3.83463251       0.00596814      -0.00046261       0.00474362
C        9.85225412       1.39493418       3.99181394      -0.00383245       0.00157700       0.00482362
C        8.63696752       3.54434904       3.99549732      -0.00785651      -0.00271419      -0.00070650
C        7.44361468       5.70125055       3.82177448       0.00375349      -0.00210024      -0.00266701
C        6.18987594       7.85432299       3.74544271       0.00598914      -0.00564467      -0.00220267
C        4.93232238       9.96921544       3.85743497      -0.00264999       0.00172345      -0.00375624
Ir       2.40692443       4.97425967       3.12399721      -0.01641111       0.00028183      -0.00037619
