52
Lattice="12.336457 0.0 0.0 -6.168228499999997 10.683685154694365 0.0 0.0 0.0 15.0" Properties=species:S:1:pos:R:3:forces:R:3 energy=-443.3618554856687 free_energy=-443.3618554856687 stress="-0.006334670235378492 -0.002594030160035555 1.8810902555800857e-05 -0.002594030160035555 -0.0014707929800390099 4.114419624273912e-06 1.8810902555800857e-05 4.114419624273912e-06 -5.426455294283133e-06" pbc="T T T"
C        0.03744243       0.03281069       3.90069378      -0.00295280       0.00025823       0.00793404
C       -1.23559681       2.14439844       3.73579532       0.01358681      -0.00677185       0.00181230
C       -2.47847092       4.29850932       3.98689221      -0.00189062       0.00595273      -0.00525468
C       -3.66375168       6.45189781       4.20324683      -0.01288926       0.00471287      -0.00650820
C       -4.88239571       8.59978878       4.14758190       0.00457735       0.00385164      -0.00072515
C        2.50881810       0.02690631       3.78282349      -0.00033571      -0.00744843       0.00685267
C        1.23027691       2.06337631       3.26609347       0.00403844       0.00727445       0.00010179
C       -0.21717750       4.32140723       3.21972082       0.00228260      -0.00048356      -0.00017849
C       -1.26067954       6.45122272       3.84249276       0.00145855       0.00055016      -0.00578792
C       -2.41770987       8.58697351       4.01219727       0.00095657      -0.00764607       0.00386765
C        4.97589658       0.02565802       3.80994865       0.01066465       0.00053270       0.01031124
C        3.75131937       2.09041886       3.30591609      -0.01247178       0.00441732      -0.00541985
B        1.19497102       6.38186134       3.57820411      -0.00538688       0.00736558       0.01479806
C        0.05594739       8.56228310       3.85361103      -0.00362011      -0.00739218      -0.00741129
C        7.44041126       0.01548859       3.92624857       0.00706651      -0.00500443      -0.01199031
C        6.19395254       2.18297987       3.81468731       0.00418906       0.00017472       0.00813889
C        5.08596563       4.42901088       3.64609851      -0.00252273      -0.00050773       0.01406249
O        3.86918171       6.50975823       3.80628078      -0.00242189       0.00039181      -0.00107561
C        2.54340134       8.54404803       3.89992270      -0.01029510       0.00602907      -0.00131512
C        9.90208643       0.01335866       3.98280978      -0.00142118       0.00221691      -0.00915434
C        8.65214692       2.15966045       4.01427222       0.00366101       0.00248760       0.00343472
C        7.42780737       4.31504962       4.15556558      -0.00386649       0.00098251      -0.00749340
C        6.23615360       6.48073254       4.21259442       0.00390804      -0.00382741       0.00118251
C        4.99195302       8.58347394       4.09572405       0.00439393      -0.00783501      -0.00938623
C        0.01543725       1.44112280       3.63947668       0.01191594      -0.00233197       0.00248594
C       -1.30180301       3.55907936       3.66586067       0.00455834      -0.00525728       0.00168167
C       -2.46369292       5.72682929       4.04122454      -0.00738719       0.01098627      -0.00831653
C       -3.64851729       7.88095106       4.14689503      -0.00296980       0.00172260       0.00852178
C       -4.88867545      10.01708722       3.95801009      -0.00403483       0.00228431       0.00810726
C        2.50058052       1.42337378       3.42401480      -0.00771317      -0.00390752       0.00402112
S        1.06516955       3.55813097       2.31590474      -0.00145005       0.00823653      -0.00243362
C       -0.13384727       5.69850716       3.46596556       0.00543468       0.00133875      -0.00303884
C       -1.19369253       7.87044557       3.91891230      -0.00166595      -0.00507618      -0.00956519
C       -2.42339796      10.00739515       3.88087778       0.00782472      -0.00702667       0.00549644
C        4.96978419       1.45680032       3.64775114      -0.00461701       0.01005152       0.01006232
S        3.86540710       3.71153606       2.60740077       0.00772620      -0.00221002       0.00197884
C        1.29933272       7.86035915       3.78363540      -0.00644490       0.00027872       0.00317218
C        0.04228071       9.99256988       3.87990551       0.00960195      -0.00953476       0.00302312
C        7.41591719       1.45385591       3.94763164       0.00825111      -0.00452041      -0.01190425
C        6.21026542       3.61879638       3.91013597       0.00275599       0.00123314      -0.00499645
C        5.06809708       5.80268401       3.90007713      -0.00146331      -0.00003564       0.00358955
C        3.79942477       7.87220730       3.95366933      -0.00754525       0.00236125       0.00267870
C        2.51365263       9.97348939       3.96159524      -0.00082708       0.00266062      -0.00699593
C        9.89104262       1.44341662       3.94125787       0.00552694       0.00098064      -0.01027980
C        8.64605929       3.58228928       4.10357776      -0.00244766       0.00501861      -0.00000477
C        7.44698866       5.73700345       4.24744665      -0.00600136      -0.00386284      -0.01053113
C        6.23138570       7.89876958       4.20269499       0.01148122      -0.00485612      -0.00671996
C        4.97329666      10.00540194       4.01619738      -0.00428622      -0.00299069       0.00545255
Ir       2.19283434       4.67877025       3.80535993      -0.01000819       0.00426216       0.00579890
O        2.65029747       5.15671175       5.62688894       0.00418558      -0.00749041      -0.00062069
O        2.24855417       4.01338523       6.43301359      -0.00200488       0.00420458      -0.00570510
H        2.19919090       4.44739311       7.31265293      -0.00910481       0.00319920       0.01424613
