51
Lattice="12.336457 0.0 0.0 -6.168228499999997 10.683685154694365 0.0 0.0 0.0 15.0" Properties=species:S:1:pos:R:3:initial_magmoms:R:1:forces:R:3 energy=-442.8125485288678 free_energy=-442.8125485288678 stress="0.0019037633200505754 -0.0027124741025507273 -2.3204104602400577e-05 -0.0027124741025507273 -0.008915021635864809 -1.4035399984597995e-05 -2.3204104602400577e-05 -1.4035399984597995e-05 -1.127553692904653e-06" pbc="T T T"
C        0.01658151      -0.05006937       3.79487232       0.00000000       0.00465409      -0.00054575      -0.00521616
C       -1.22746628       2.10029386       3.77210004       0.00000000       0.00511819      -0.00128489      -0.01077719
C       -2.47604066       4.24303661       3.52620284       0.00000000      -0.00247656       0.00478941       0.00062068
C       -3.69415950       6.36655548       3.53096659       0.00000000       0.00158378       0.00226212      -0.00801103
C       -4.91557936       8.48795912       3.67192997       0.00000000      -0.00450562      -0.00590237      -0.00593454
C        2.49116377      -0.10455689       3.78650409       0.00000000       0.00031318       0.00303537      -0.00731540
C        1.27170141       2.00518090       4.03610642       0.00000000       0.00081284       0.01376017      -0.00565602
C       -0.05458252       4.25274300       3.73036562       0.00000000      -0.00053017       0.00565076       0.00061211
C       -1.19401214       6.37102888       3.53683567       0.00000000      -0.00148384      -0.00590100       0.01047843
C       -2.42963331       8.47881884       3.66473533       0.00000000      -0.00147105      -0.00864793      -0.00443877
C        4.95597541      -0.05869612       3.65412332       0.00000000      -0.00134107      -0.00428978       0.00328937
C        3.67795968       2.00306991       3.47759617       0.00000000       0.00022397       0.00050846       0.00885303
P        1.76896551       6.12009502       4.04818167       0.00000000      -0.00309329       0.00323590      -0.00048544
C        0.04947626       8.50168029       3.77303751       0.00000000       0.00169451       0.00372935       0.00092812
C        7.40412077       0.00103021       3.65809376       0.00000000      -0.00304087       0.00095793       0.00759143
C        6.14582816       2.12201048       3.45514632       0.00000000      -0.00299387      -0.00380394      -0.00580792
C        4.92930226       4.29402888       3.29961782       0.00000000      -0.00068292       0.00087759      -0.00320905
C        3.60985401       6.44537048       3.61563525       0.00000000       0.00039692       0.00641448       0.00417487
C        2.49846948       8.59702642       3.76839778       0.00000000       0.00619040      -0.00320129       0.00147984
C        9.88774518       0.00024175       3.69474359       0.00000000      -0.00908891      -0.00811037      -0.00866289
C        8.63090047       2.12558836       3.57354171       0.00000000       0.00136728      -0.00418511      -0.00846367
C        7.37958270       4.25456272       3.46517132       0.00000000      -0.00208603       0.00211823      -0.00154819
C        6.13957430       6.38629145       3.54482027       0.00000000      -0.00040981      -0.00176820       0.00395487
C        4.96013906       8.53338867       3.65145028       0.00000000       0.00494520       0.00638386      -0.00148442
C        0.01380710       1.37199192       3.89554461       0.00000000       0.00639035       0.00185724      -0.00383752
C       -1.25473860       3.51424259       3.66016242       0.00000000       0.00073371       0.00490899       0.00110042
C       -2.45153909       5.66225987       3.50014082       0.00000000      -0.00057704       0.00271709       0.00456377
C       -3.67745739       7.77983980       3.61986774       0.00000000      -0.00452733      -0.00257112      -0.00492597
C       -4.92211034       9.89844238       3.77417438       0.00000000       0.00277168      -0.00510185      -0.00111533
C        2.48762450       1.30321614       3.81429349       0.00000000      -0.00131219       0.00767629       0.00549636
P        1.37434276       3.67385251       4.55296660       0.00000000       0.00444746       0.00046006       0.00104089
C        0.02847572       5.63257507       3.55996012       0.00000000      -0.00775088      -0.00278616       0.00109235
C       -1.19063918       7.78629800       3.65820420       0.00000000       0.00206290      -0.00523214      -0.00316193
C       -2.43513676       9.89519711       3.70965621       0.00000000      -0.00094907      -0.00584769      -0.00304517
C        4.93437872       1.37533517       3.51894047       0.00000000      -0.00215319      -0.00553141       0.00344173
S        3.45440489       3.56841585       2.76475375       0.00000000       0.00097822       0.00146109       0.00173118
C        1.31599472       7.86402327       3.90186343       0.00000000       0.00342174       0.00407533      -0.00307758
C        0.02680196       9.93444642       3.69898466       0.00000000      -0.00028313       0.00275495       0.00273077
C        7.38623637       1.42416935       3.55475173       0.00000000      -0.00196248      -0.00077290       0.01109308
C        6.13221923       3.54662561       3.40136962       0.00000000      -0.00189279      -0.00160731      -0.00418908
C        4.86263858       5.70481393       3.50284958       0.00000000      -0.00119368       0.00161112      -0.00519704
C        3.71936506       7.84776656       3.66889997       0.00000000       0.00888275       0.00451308       0.00332661
C        2.48090752      10.00175106       3.70163508       0.00000000      -0.00923682      -0.00681341       0.00341124
C        9.87709270       1.41446431       3.67824982       0.00000000       0.00141505      -0.00756369       0.00238364
C        8.62076662       3.54210609       3.51096230       0.00000000      -0.00219979      -0.00007976       0.00258361
C        7.38139538       5.67183598       3.50295127       0.00000000       0.00249514       0.00249508       0.00933628
C        6.17743204       7.80035315       3.62082335       0.00000000      -0.00230889      -0.00228507       0.00079875
C        4.95042156       9.95206891       3.71075277       0.00000000      -0.00060211       0.00394173       0.00774091
Ir       1.96265630       5.12278596       6.08914093       0.00000000       0.00070990      -0.00584428      -0.00152810
O        2.11141595       5.21255505       7.81998500       1.00000000       0.01378158      -0.00605502       0.00214097
O        3.08343697       6.02928047       8.01851401       1.00000000      -0.00523744       0.01353677       0.00109310
