49
Lattice="12.336457 0.0 0.0 -6.168228499999997 10.683685154694365 0.0 0.0 0.0 15.0" Properties=species:S:1:pos:R:3:forces:R:3 energy=-430.23553684888 free_energy=-430.23553684888 stress="-0.006455281496884523 -0.0035533741907932733 -1.1953807360677533e-05 -0.0035533741907932733 -0.0009827221321397125 -4.2342749024892565e-06 -1.1953807360677533e-05 -4.2342749024892565e-06 6.321189538060203e-07" pbc="T T T"
C       -0.00301899      -0.00183266       3.95503380       0.00046394      -0.00162273       0.00461109
C       -1.27861561       2.09713936       4.08447559       0.00753088       0.00337693       0.00301580
C       -2.49710029       4.26049379       4.07456743      -0.00188816      -0.00187516       0.00836923
C       -3.67411963       6.41782305       3.97278250       0.00655512       0.00448366      -0.00342531
C       -4.90456098       8.57073519       3.92950705      -0.00465001      -0.00201515      -0.00221532
C        2.46476442       0.03322975       3.85219657       0.01285574       0.00093905      -0.00115927
C        1.17808439       2.12641479       3.92606308      -0.00065198       0.00126174       0.00199150
C       -0.10214270       4.21233024       4.01137617       0.00271368      -0.00339303      -0.00300344
C       -1.23177088       6.39011498       3.84548057       0.00213551      -0.01121618       0.00273002
C       -2.44462846       8.54994118       3.83642676      -0.00077199      -0.00357290       0.01275100
C        4.92466554       0.01121064       3.69280771       0.00608541      -0.01361123      -0.00354325
C        3.66420566       2.12468014       3.42562246      -0.00738158      -0.00265943      -0.00219472
S        1.19120498       6.27409813       2.61643012      -0.00130354       0.00028223      -0.00548936
C        0.00113768       8.53342669       3.59618462       0.00057009       0.00226571       0.01056672
C        7.39045201      -0.01229864       3.74419908       0.00178331       0.00605788       0.00094657
C        6.16037746       2.14021207       3.59927757      -0.01401353      -0.00127214      -0.00165081
C        5.08134545       4.34702203       3.26670272      -0.00019374       0.00850014       0.00154087
C        3.81118737       6.42893642       3.56161625      -0.00761899       0.00948656      -0.00364742
C        2.46490824       8.52174396       3.61555766       0.00548918      -0.00304625      -0.00391095
C        9.85059677      -0.02615770       3.90980249      -0.01305247      -0.00637882      -0.00849136
C        8.60618413       2.12060082       3.93909171       0.01084225       0.00258035      -0.01472135
C        7.41902396       4.27864300       3.83470164       0.00247512       0.00799062      -0.00636428
C        6.24774039       6.44904219       3.76814908      -0.00365737      -0.00174403      -0.00390955
C        4.95720137       8.55006865       3.81743893      -0.00236495       0.00249469       0.01162040
C       -0.02619391       1.41891216       4.00579697       0.00311860       0.00063158      -0.00016892
C       -1.29776264       3.50982349       4.12446074       0.00004754       0.00407191       0.00636455
C       -2.45861443       5.68526479       4.00811485       0.00064990      -0.00729063      -0.00335167
C       -3.67543866       7.84603093       3.92852202      -0.00301615       0.00362880       0.00438246
C       -4.92441805       9.99599631       3.92910632       0.00654447       0.00181208       0.00841312
C        2.43572313       1.47935230       3.75079159      -0.00020762       0.00357034       0.00251045
O        1.09130277       3.49932330       4.18719275      -0.00381410      -0.00326795      -0.00175320
C       -0.05738315       5.58394258       3.72809397       0.00757471      -0.00488902       0.00707329
C       -1.22025678       7.81824453       3.73151283      -0.00365086      -0.00756029       0.00292078
C       -2.46927036       9.98970736       3.78951938       0.00896312      -0.00778270       0.00611326
C        4.91212952       1.44647160       3.55925350      -0.01114521      -0.01638807      -0.00007006
S        3.65801481       3.65426005       2.51907237      -0.00709912      -0.01321261       0.00486026
C        1.24469558       7.85942108       3.39505623       0.00020781       0.00777673       0.01102644
C       -0.00692500       9.96795931       3.68100723       0.01001242       0.00185577      -0.00666981
C        7.37666180       1.41996643       3.77550129       0.00002245       0.00940073      -0.00416706
C        6.21260068       3.56397704       3.55512546      -0.00291668       0.00575357      -0.00279986
C        5.04564656       5.72758104       3.51201806      -0.00537475       0.00493914      -0.00146198
C        3.72197914       7.82606564       3.66353268       0.00630534       0.00778078      -0.00210249
C        2.45406387       9.95300908       3.78079226      -0.00886045      -0.00727366      -0.01512506
C        9.83808938       1.39573566       4.00509519       0.00788206      -0.00470843      -0.00086841
C        8.61655898       3.54759549       3.98572133       0.00174122       0.00146058      -0.00891156
C        7.44197697       5.70646827       3.88456098       0.00787550       0.00692305      -0.00664070
C        6.20559112       7.86258813       3.86534550      -0.00563140      -0.00411171       0.00005296
C        4.93205469       9.96296101       3.90877752      -0.00836143       0.00047230       0.00910046
Ir       2.54944498       5.06027345       3.80525700      -0.00281927       0.01909519      -0.00314408
