51
Lattice="12.336457 0.0 0.0 -6.168228499999997 10.683685154694365 0.0 0.0 0.0 15.0" Properties=species:S:1:pos:R:3:forces:R:3 energy=-452.8025493486381 free_energy=-452.8025493486381 stress="-0.003435364201319485 0.005292563120991787 1.4969270544775041e-05 0.005292563120991787 -0.004208588135925462 1.8440513028503322e-06 1.4969270544775041e-05 1.8440513028503322e-06 1.6952661692407623e-05" pbc="T T T"
C       -0.01195944      -0.00007006       3.78980070       0.00885417      -0.00470063       0.00364583
C       -1.21494309       2.15448361       3.81905510      -0.00237507       0.00744450       0.01613828
C       -2.44376839       4.27470716       3.81233878       0.00122876      -0.00745833       0.00489228
C       -3.71686920       6.40076097       3.78143311       0.00256595       0.00084994      -0.00254320
C       -4.96491681       8.53373599       3.76967195       0.00056615      -0.00322271      -0.00172234
C        2.44233187      -0.01430556       3.71233912       0.00118241      -0.00885885       0.00596307
C        1.24537561       2.15695928       3.78592695       0.00282684      -0.00351231       0.00576395
C        0.03668487       4.33263994       3.89966918       0.00335249       0.01235920       0.01068174
C       -1.25716364       6.42103502       3.82805105      -0.00140123      -0.00240424       0.00439095
C       -2.49890262       8.53876359       3.74526464       0.00239067       0.00443846      -0.00040803
C        4.91693534      -0.01642736       3.65328989      -0.00505293       0.00430675      -0.00472156
C        3.70027819       2.08075940       3.58203649      -0.00024137       0.00229905       0.00058262
C        2.56430214       4.21634971       3.86857115      -0.00838269      -0.00020817       0.01238374
O        1.09817800       6.51891921       4.03790012      -0.00947059       0.00409250      -0.00508473
C       -0.05320589       8.55508685       3.72383662       0.00348588      -0.00183655      -0.00144672
C        7.38772907      -0.01075037       3.70124932       0.00031948       0.00766086      -0.00291416
C        6.18342572       2.09638816       3.60794986       0.00225639      -0.00310880       0.00138318
C        4.97414677       4.17321250       3.52550917       0.00258778      -0.00237163      -0.00423540
P        3.62159418       6.31139703       2.65863852      -0.00492847      -0.00091255       0.01079562
C        2.38500049       8.55109344       3.70558824       0.00309325      -0.00005850      -0.01529921
C        9.85964864       0.00006755       3.78256053       0.00910527       0.00050390      -0.00956178
C        8.64992928       2.12774031       3.74286246      -0.00130575       0.00530851      -0.00396965
C        7.42665688       4.24945946       3.70041481       0.00224200      -0.00160264       0.00227209
C        6.17169981       6.39241956       3.73084728      -0.00428242       0.00250763      -0.00533984
C        4.90660843       8.53293832       3.76325076      -0.00728147      -0.00901474      -0.00703527
C        0.00999368       1.43666786       3.80381701      -0.00105259       0.00076383       0.01144631
C       -1.19320398       3.59181457       3.84641018       0.00662991       0.00813297       0.01162868
C       -2.47755331       5.69190693       3.80913533       0.00118177      -0.00908603       0.00582234
C       -3.73471724       7.82370331       3.77248727       0.00271198       0.00375920      -0.00913843
C       -4.95956682       9.95970511       3.76241984       0.00485050      -0.00773074       0.00627303
C        2.45443614       1.40850975       3.68894676       0.00349152      -0.00941786       0.00013359
C        1.29326378       3.60594985       3.86389172      -0.00599153       0.00290101       0.00402336
C       -0.04465449       5.74061867       3.91223458       0.00380006       0.01142038      -0.00677168
C       -1.27911930       7.83912579       3.76413027       0.00043739      -0.00239548       0.00966829
C       -2.49467177       9.96268304       3.69724009      -0.00171751       0.00132137      -0.01015769
C        4.93711729       1.39292867       3.59195485      -0.00015298       0.00336750       0.00371526
C        3.73295238       3.49195256       3.57053963      -0.00474138       0.00620529      -0.00178557
C        1.15079035       7.87985912       3.75012435       0.00336930      -0.00384666      -0.01475929
C       -0.01940169       9.97363304       3.68358797      -0.00244842       0.00326510      -0.00674040
C        7.41178624       1.40783814       3.68348426       0.00315282       0.00721867       0.00235038
C        6.20321675       3.51483871       3.59463930       0.00657559      -0.00813823       0.00617018
C        4.93771551       5.60986951       3.69846548      -0.00840591      -0.00300587       0.00178477
C        3.63753135       7.82155596       3.72519798      -0.01061671      -0.00437130      -0.01586985
C        2.44227783       9.96482371       3.73772980       0.00335854       0.00373076       0.00033167
C        9.88293335       1.42657784       3.78816198      -0.00229228       0.00473378      -0.00103023
C        8.65701475       3.55124240       3.75444900      -0.00044672      -0.00060355      -0.00959900
C        7.39266290       5.68117494       3.74705385      -0.00169836       0.00208187       0.00753396
C        6.13521124       7.80988955       3.75943106      -0.00327508       0.00013647       0.00709287
C        4.91912306       9.95979805       3.79615932       0.00826422      -0.00832723      -0.00485884
Ir       3.19165619       5.96232060       4.76614950       0.00961490      -0.00198553      -0.00243114
O        2.77430190       6.08323367       6.42975056      -0.01593456      -0.00263043      -0.00944402
