52
Lattice="12.336457 0.0 0.0 -6.168228499999997 10.683685154694365 0.0 0.0 0.0 15.0" Properties=species:S:1:pos:R:3:forces:R:3 energy=-451.834160864202 free_energy=-451.834160864202 stress="-0.005725517057648808 1.154782691459049e-06 -3.1485686700901466e-06 1.154782691459049e-06 -0.0007414748997001794 8.043777661234815e-06 -3.1485686700901466e-06 8.043777661234815e-06 1.4443596201795888e-07" pbc="T T T"
C        0.01173198       0.01248301       3.95490363       0.00030772       0.00377565      -0.00828260
C       -1.23485403       2.12291472       4.06943844      -0.00458028       0.00278356      -0.00959512
C       -2.47041381       4.26822514       4.05285329      -0.00757404      -0.00865484       0.00306040
C       -3.68851949       6.41298301       3.91947049      -0.00560344       0.00601801       0.00030496
C       -4.92525424       8.55601605       3.84963207       0.00750574       0.00325016      -0.00099727
C        2.47579023       0.01198606       3.94116098      -0.00425237      -0.00584066       0.00430277
C        1.24732893       2.17835359       3.94905962       0.00113711      -0.00645582      -0.00161223
C       -0.03644462       4.26658113       4.09773359       0.00027793      -0.00004469      -0.00982852
C       -1.25331298       6.42152004       4.10619709      -0.00741556      -0.00384954      -0.00583720
C       -2.46702346       8.55661275       4.02164632       0.01381329       0.00451925      -0.00311544
C        4.95121768      -0.00820521       3.88242984      -0.01093200      -0.00222376       0.00415121
C        3.70729180       2.06239423       3.48955446       0.00702057       0.00051671       0.01656494
C        1.18720116       6.37448392       4.00151297      -0.00063933       0.00732937       0.00324186
C        0.01093890       8.52719280       4.01815564       0.00197262       0.00617116       0.00786915
C        7.41260595      -0.01666447       3.93686004       0.00075693       0.00119356       0.00255272
C        6.20188576       2.11457310       3.61687149       0.01062244       0.00532513      -0.00059153
C        5.16434014       4.27285076       2.90712786      -0.00426061       0.00183890      -0.00125958
P        3.58682352       6.41799471       2.49607415      -0.00257402       0.00279530       0.01384889
C        2.48072397       8.53330542       3.81415011       0.00111058      -0.00649685       0.00677055
C        9.87826204      -0.01295472       3.95639622       0.00263763       0.00330983       0.00228976
C        8.64328839       2.12353742       3.94400716       0.00179957       0.00340130      -0.00883804
C        7.45112693       4.26690959       3.67769008       0.00531047       0.00010265       0.00028997
C        6.26098017       6.43451837       3.39302249      -0.00604241      -0.00647962      -0.00880840
C        4.95799611       8.56237146       3.64450344       0.00170602      -0.00870495      -0.00041180
C        0.01094981       1.43799447       4.01929985      -0.00255874       0.00324438       0.00644036
C       -1.25351405       3.54435883       4.10624895      -0.00506876      -0.00079208      -0.00477234
C       -2.47017533       5.69796081       4.05304310      -0.01227850      -0.00756139       0.00206633
C       -3.69368643       7.84166658       3.94385586       0.01239919       0.01203273      -0.00433103
C       -4.92360700       9.98227865       3.93837234      -0.00240510       0.00239935      -0.00054893
C        2.48037536       1.43318651       3.81954940       0.00518549      -0.00965987       0.00246321
C        1.18716342       3.59129547       4.00303960      -0.00253062      -0.00418446       0.00382177
C       -0.03637856       5.69901262       4.09693325       0.00170692       0.00499024      -0.00087439
C       -1.23538364       7.84269607       4.06933905       0.00773196      -0.00087677      -0.00815087
C       -2.45792674       9.97887699       3.95955111      -0.00766761      -0.00264639       0.00051349
C        4.95769857       1.40421443       3.64935578       0.00770178      -0.00413391       0.00035864
P        3.58590989       3.54692795       2.50140109      -0.01235384       0.00642504       0.00184847
C        1.24777846       7.78758012       3.94708091      -0.00216782       0.00304514      -0.01004291
C        0.01183957       9.95279713       3.95433111      -0.00608548       0.00456816      -0.00430647
C        7.41126772       1.40958108       3.85022797       0.00704078       0.00438420      -0.00375342
C        6.26012159       3.53119385       3.39474259       0.00719306       0.00827066      -0.00581846
C        5.16522328       5.69289883       2.90499009      -0.01393336      -0.00034052      -0.00017655
C        3.70773284       7.90483448       3.48232074      -0.00228657      -0.00781229       0.00910367
C        2.47553921       9.95421060       3.93757982       0.00237752      -0.00334860       0.00121855
C        9.87022102       1.40887963       4.02037658      -0.00282572       0.00490098      -0.00068577
C        8.64779294       3.55256195       3.91951302      -0.00159326      -0.00546207       0.00087552
C        7.45148828       5.69862335       3.67748468      -0.00274065      -0.00197964      -0.00309947
C        6.20227823       7.85144634       3.61439416       0.00559085      -0.00811310      -0.00247651
C        4.95085436       9.97435514       3.87922126       0.00375144      -0.00424778       0.00855963
Ir       2.67033738       4.98250134       4.03546936       0.01700696       0.00741373      -0.00695374
O        3.23185160       5.03298074       5.90541626      -0.00072315      -0.00012527       0.00122054
O        2.02089090       4.89668275       6.66671713       0.00981184      -0.00375462       0.01631134
H        2.39154340       4.93844921       7.57562449      -0.01238320      -0.00021563      -0.00488015
