50
Lattice="12.336457 0.0 0.0 -6.168228499999997 10.683685154694365 0.0 0.0 0.0 15.0" Properties=species:S:1:pos:R:3:forces:R:3 energy=-437.9949863483122 free_energy=-437.9949863483122 stress="-0.009254147878155256 -0.003148649866247039 4.990311600450731e-06 -0.003148649866247039 -0.006138916705415873 1.3155126389779909e-05 4.990311600450731e-06 1.3155126389779909e-05 6.578577282632646e-07" pbc="T T T"
C        0.00593035       0.00797934       3.97329097      -0.00517990      -0.00051723       0.00547826
C       -1.26683518       2.13222675       4.23329962      -0.00225216      -0.00200032      -0.00767933
C       -2.51572753       4.28282533       3.98489581       0.00408858       0.00280017      -0.00455018
C       -3.68207969       6.43448427       3.65706355      -0.00070241       0.00375021      -0.00383969
C       -4.89977894       8.58296978       3.68551961       0.00363980      -0.00442484       0.00025942
C        2.48991726      -0.00970783       3.91521758      -0.00293872      -0.00008988       0.00076439
C        1.25016736       2.02507798       4.45928325       0.00129518      -0.00081641      -0.00097614
C       -0.20378727       4.35170434       4.59535791      -0.00251479       0.00234134       0.00952536
C       -1.27301722       6.43015727       3.86510082      -0.00398331      -0.00066736       0.00054065
C       -2.44208538       8.56079860       3.71165957      -0.00033394       0.00081667      -0.00117714
C        4.94796019       0.01533376       3.68567028       0.00425195       0.00108517      -0.00060119
C        3.67045036       2.10243671       3.68853979      -0.00007881       0.00501801       0.00050259
P        1.32591881       6.15178666       3.17011542       0.00411946       0.00059033       0.00168742
C        0.01811288       8.55583502       3.62935703      -0.00975160       0.00089760      -0.00017629
C        7.40877907       0.01719643       3.66490573       0.00540481      -0.00054398      -0.00353114
C        6.16521443       2.15592382       3.47838561      -0.00234008      -0.00169169       0.00898172
C        5.05888792       4.35595019       3.09565306       0.00184753      -0.00759055      -0.00213922
C        3.87567684       6.46337663       3.51942613       0.00915825       0.00379984       0.00106469
C        2.49322502       8.56840784       3.60659574      -0.00668516       0.01053357      -0.00463780
C        9.87470208       0.01777128       3.82634712       0.00539990      -0.00342130       0.00042107
C        8.62669878       2.14900599       3.78190995      -0.00204230      -0.00415130      -0.00134648
C        7.43198895       4.29671847       3.48087321       0.00337398       0.00656563      -0.00056618
C        6.26254153       6.48347515       3.32752475      -0.00141695       0.00307853      -0.00131647
C        4.97969458       8.58952745       3.60691285       0.00199804      -0.00048641       0.00289263
C       -0.01749060       1.40599971       4.25722648      -0.00277147       0.00210130      -0.00333081
C       -1.33692314       3.55821489       4.32670813       0.00199279      -0.00057158      -0.00062266
C       -2.49253630       5.70731092       3.85502278      -0.00197641       0.00129026      -0.00715565
C       -3.67530523       7.85988866       3.67840329       0.00418141      -0.00098954      -0.00277459
C       -4.91959160       9.98648967       3.87742119      -0.00615674      -0.00265642       0.00165376
C        2.48391377       1.39812471       4.06908335       0.00307044       0.00173965       0.00131814
P        1.27669980       3.60637436       5.16222370      -0.01285708      -0.01360711      -0.00543094
C       -0.11532404       5.66423472       4.08883851      -0.00142088       0.00285651       0.00553717
C       -1.21982993       7.84549976       3.69473184      -0.00692656      -0.00133250       0.00409177
C       -2.44561101       9.98239145       3.75867584       0.00180603       0.00180580      -0.00148681
C        4.93113592       1.44994414       3.59616440      -0.00032986       0.00242574       0.00850582
S        3.48488512       3.65751120       2.90862907       0.00372135      -0.00395516       0.01171471
C        1.26707546       7.88682769       3.53575738      -0.00830949       0.00624042      -0.00022849
C        0.01314794       9.98710089       3.64850585       0.00526307       0.00071764       0.00003347
C        7.39419046       1.44644430       3.63253394      -0.00223387      -0.00384575      -0.00049471
C        6.20737102       3.57588007       3.30265213       0.00304442      -0.00225971       0.00290982
C        5.04867860       5.76588911       3.20640954       0.00255174      -0.00349397      -0.00623659
C        3.74936590       7.86398575       3.56155986      -0.00229628       0.00614018       0.00016637
C        2.48054254       9.99599317       3.70070385       0.00494191       0.00554051      -0.00801040
C        9.85902604       1.43581278       3.95825204      -0.00110656      -0.00582815      -0.00484158
C        8.62244384       3.57268454       3.74908826       0.00337788       0.00052451      -0.00031062
C        7.44760333       5.72672867       3.46564305      -0.00111612       0.00697429      -0.00477028
C        6.21662927       7.88859301       3.53020170       0.00177892       0.00018886       0.00155296
C        4.95047352       9.99482461       3.80290514      -0.00047426      -0.00284995       0.00701752
Ir       2.79683180       5.10910069       4.47087568       0.00015871      -0.01199306      -0.00365695
O        1.98748667       4.05199217       6.44097304       0.00772958      -0.00003859       0.00526862
