51
Lattice="12.336457 0.0 0.0 -6.168228499999997 10.683685154694365 0.0 0.0 0.0 15.0" Properties=species:S:1:pos:R:3:initial_magmoms:R:1:forces:R:3 energy=-451.31165871515833 free_energy=-451.31165871515833 stress="-0.008924735423097768 0.0034545394766030283 -9.918865928038101e-06 0.0034545394766030283 0.0013334178107437386 -2.0257289741515857e-05 -9.918865928038101e-06 -2.0257289741515857e-05 -7.277100059495354e-06" pbc="T T T"
C       -0.00684201      -0.00616885       3.71092256       0.00000000      -0.00604037       0.00515320       0.00534686
C       -1.23958195       2.10625664       3.80842002       0.00000000      -0.00883200       0.00698810      -0.01612217
C       -2.47502493       4.25297154       3.77603752       0.00000000       0.00239717       0.00019444       0.00458008
C       -3.71734058       6.39880785       3.66858344       0.00000000       0.00774121      -0.00784746       0.00775425
C       -4.95437607       8.54245838       3.60275569       0.00000000      -0.00799608      -0.00608870       0.00604237
C        2.45285749       0.02119790       3.78976308       0.00000000       0.01207957      -0.00111804       0.00041629
C        1.23489022       2.17652838       3.83099267       0.00000000       0.00015465      -0.00264331      -0.00921152
C       -0.05493814       4.27536499       3.86222776       0.00000000      -0.00355688       0.00124069       0.00533645
C       -1.29744746       6.42298582       3.87784573       0.00000000      -0.00436501      -0.00031431      -0.00457164
C       -2.50252306       8.55300418       3.82707900       0.00000000       0.00448183      -0.00308033      -0.00721145
C        4.92954661      -0.01697645       3.87942686       0.00000000       0.00358814       0.00861711       0.00015823
C        3.72513764       2.13880248       3.78517789       0.00000000       0.00128121       0.00613391      -0.00345559
N        1.08926660       6.39273214       4.01471345       0.00000000      -0.00873549       0.00160255       0.01500683
C       -0.02971607       8.51297663       3.94359467       0.00000000       0.00288510      -0.00581066      -0.01139681
C        7.40669181      -0.05518785       3.90124333       0.00000000      -0.00373408      -0.00047604      -0.00176095
C        6.20315793       2.07775916       3.74952764       0.00000000       0.00479503       0.00067971      -0.00200345
C        5.04667161       4.18870953       3.37638523       0.00000000      -0.00019466      -0.00807361       0.00320586
P        3.48420312       6.20921765       2.63503575       0.00000000       0.00007937      -0.00041570       0.00343619
C        2.44786622       8.48092409       3.74893809       0.00000000       0.00775943       0.00414869       0.00392735
C        9.86544754      -0.04952582       3.78651131       0.00000000      -0.00300586      -0.00133070      -0.00382359
C        8.64786219       2.09024096       3.79606764       0.00000000       0.00636969       0.00591798       0.01143688
C        7.44348070       4.23346164       3.58721378       0.00000000      -0.00016227       0.00404180      -0.00213787
C        6.20320133       6.38281099       3.33335647       0.00000000      -0.00741162      -0.00865916       0.00063001
C        4.91440813       8.51421116       3.48394879       0.00000000      -0.00531094      -0.00178002      -0.00337192
C       -0.00020153       1.42338258       3.79071565       0.00000000      -0.00967394       0.00753129      -0.00174132
C       -1.25710300       3.53516943       3.82136040       0.00000000      -0.00219779       0.00361849      -0.00038125
C       -2.49752869       5.68467791       3.77991750       0.00000000       0.00607251      -0.00683863       0.00233323
C       -3.72547232       7.83121537       3.69617226       0.00000000       0.00162710      -0.00679875      -0.00780482
C       -4.94399105       9.97421944       3.69608395       0.00000000       0.00005938       0.00146214       0.01797300
C        2.46593830       1.45008188       3.82490078       0.00000000       0.00734776      -0.00005392      -0.01020302
C        1.17594472       3.60530052       3.89334703       0.00000000      -0.00153249      -0.00209029      -0.00271093
C       -0.08337145       5.71719116       3.91346759       0.00000000      -0.00750918       0.00207920       0.00358489
C       -1.27794283       7.83757080       3.90475947       0.00000000       0.00112600      -0.00386737       0.00460755
C       -2.48855701       9.97903484       3.83943279       0.00000000       0.01185565      -0.00051233      -0.00162872
C        4.95490753       1.39719224       3.81237465       0.00000000       0.00102238       0.00989428      -0.00649668
C        3.84051580       3.53795975       3.69175714       0.00000000      -0.00088803       0.00313627       0.01115771
C        1.18690125       7.76184491       3.91042468       0.00000000       0.00704963      -0.00138830      -0.00716193
C       -0.00832135       9.93495236       3.92380067       0.00000000      -0.00328965      -0.00348499      -0.01184654
C        7.42294208       1.36582003       3.83127161       0.00000000       0.00675507       0.00129031      -0.00371847
C        6.24791207       3.48267423       3.55614270       0.00000000      -0.00000825       0.00045365       0.01181768
C        5.05762378       5.59115842       3.12757127       0.00000000      -0.00242876      -0.01223465       0.00094698
C        3.65718485       7.83165130       3.40966465       0.00000000       0.00032326       0.00301303      -0.01257030
C        2.46202813       9.90762326       3.84600133       0.00000000      -0.00159094       0.00279534       0.00088907
C        9.87071191       1.37819471       3.81248142       0.00000000      -0.00027408      -0.00074094      -0.00243893
C        8.65348127       3.52170376       3.72572302       0.00000000       0.00148359       0.00703528       0.00895068
C        7.42276600       5.66666362       3.52135500       0.00000000       0.00077735       0.00181082       0.00365179
C        6.16396553       7.81798339       3.43681080       0.00000000      -0.01199277      -0.00741210      -0.00833575
C        4.92902283       9.94097150       3.66648039       0.00000000      -0.00469282      -0.00295458       0.01133343
Ir       2.58481117       4.90083672       4.24402677       0.00000000       0.00354344      -0.00179805      -0.01562167
O        2.26229514       5.03528475       6.28738829       1.00000000       0.01032703       0.01242740       0.00240788
O        3.02111196       6.09293000       6.09175103       1.00000000      -0.00755861      -0.00345273       0.01079569
