50
Lattice="12.336457 0.0 0.0 -6.168228499999997 10.683685154694365 0.0 0.0 0.0 15.0" Properties=species:S:1:pos:R:3:forces:R:3 energy=-437.02384344338105 free_energy=-437.02384344338105 stress="-0.006049988639079878 -0.005295946336421387 -9.321869501169688e-06 -0.005295946336421387 -0.002527299699709984 -5.159115263741355e-06 -9.321869501169688e-06 -5.159115263741355e-06 -1.0941625921785208e-05" pbc="T T T"
C        0.02084239      -0.01330292       3.86314052       0.00365616      -0.00521721       0.01684973
C       -1.26061251       2.09206434       3.74103003      -0.00206002      -0.00033129      -0.00590834
C       -2.46325629       4.25546038       3.78741457       0.00810809       0.00101290       0.00291099
C       -3.63089726       6.41397404       3.94329834      -0.00604239       0.00303887      -0.00532078
C       -4.86706999       8.56489368       3.97834907       0.00447824       0.00868981       0.00084544
C        2.47884738       0.01305869       3.68477334       0.00899409      -0.00410420      -0.00338051
C        1.15615872       2.08196980       3.41789740      -0.00462990      -0.00506887      -0.00039052
C       -0.13354438       4.15490255       3.16812228      -0.00595434       0.00560212       0.01014967
C       -1.21243566       6.36824906       3.46799963      -0.00059971       0.00381552      -0.01170585
C       -2.41147615       8.53646451       3.70703803      -0.00224013       0.00038382       0.00233587
C        4.94658428       0.00623371       3.70094633      -0.00017307       0.00238473       0.00039344
C        3.68228161       2.11672138       3.53133886       0.00189835      -0.00769740      -0.00498125
S        1.37267500       6.37650512       2.56732336      -0.00676177      -0.00861683      -0.00666673
C        0.03608310       8.53819298       3.56883000       0.00111409       0.00100221       0.00664554
C        7.40748195      -0.00630503       3.85786100      -0.00358365      -0.00772694      -0.00016969
C        6.16574804       2.15018015       3.84607799       0.00273038       0.00486403       0.00047666
C        5.08140055       4.37818238       3.91219447      -0.00791796       0.00015181       0.01647747
C        3.83674989       6.44833502       4.13359774       0.00973394      -0.00217572      -0.00808600
C        2.49509242       8.53536028       3.85353662       0.00493998      -0.00396866      -0.00433002
C        9.87740443      -0.02092994       3.97295683      -0.00115423       0.00839119      -0.00156996
C        8.63206265       2.12480910       3.94223175      -0.00414164      -0.00496863       0.00232393
C        7.45581369       4.28476195       4.06312221       0.00477978      -0.00329539      -0.00089712
C        6.28728472       6.45867581       4.21252281      -0.00588660       0.00282342      -0.00912388
C        4.98950395       8.55422167       4.09694938      -0.00147825      -0.00567322      -0.00425555
C       -0.01682083       1.39748989       3.68340763      -0.00171955      -0.00563896       0.00791239
C       -1.28262853       3.49715517       3.57609827      -0.00123870      -0.00143997      -0.00219057
C       -2.42938069       5.67645512       3.74385744       0.00102288       0.00511657      -0.00379949
C       -3.63785487       7.83907121       3.88375201      -0.00268175       0.00394379      -0.00300596
C       -4.90225398       9.98056974       3.83973446       0.01012724       0.00483189       0.01145520
C        2.43131010       1.43882080       3.52224365       0.00170755      -0.00831221      -0.00674612
O        1.01613423       3.38314150       2.95397479      -0.00990861       0.00680347       0.00168372
C       -0.09375713       5.56705961       3.12037451      -0.00037940       0.00140809      -0.00728620
C       -1.18695046       7.80900892       3.55281009      -0.00215558       0.00280744       0.00065155
C       -2.44318814       9.97698536       3.68829428       0.00357233      -0.00261968       0.00640942
C        4.92527381       1.44980369       3.70254804       0.00507569       0.00229310       0.00042896
S        3.66295348       3.79661546       3.17352730      -0.00208130       0.00141250       0.00231680
C        1.30048999       7.88553662       3.46932109       0.00476760      -0.00043657      -0.00304453
C        0.01711016       9.96835320       3.72828981      -0.00498730      -0.00056228      -0.00346210
C        7.39096688       1.42569369       3.90729040      -0.00444029      -0.00835870       0.00251526
C        6.22024493       3.57227150       3.97707761      -0.00330535       0.00736966       0.00122661
C        5.06155895       5.75607165       4.15538482       0.00279412       0.00117701       0.00717158
C        3.74895814       7.83410641       4.04579279       0.00211820      -0.00679339       0.00002675
C        2.47504468       9.96003164       3.93391575       0.00195430      -0.00008200      -0.00508797
C        9.86507740       1.40002181       3.90995028      -0.00189395       0.00840956       0.00559226
C        8.65541116       3.55065047       3.96217992       0.01042183      -0.00630928       0.00078924
C        7.48616433       5.71204103       4.11157041      -0.00797419      -0.00261181      -0.00538918
C        6.24590785       7.87082396       4.14008474       0.00128542       0.00377669       0.00092559
C        4.95919726       9.96376028       3.99452518      -0.00308210      -0.00249125      -0.00098667
Ir       2.31932433       5.26494325       4.23701888       0.00561745       0.01277528      -0.01081303
O        1.69582265       4.84966182       5.81033563      -0.00242596       0.00021497       0.01008395
