50
Lattice="12.336457 0.0 0.0 -6.168228499999997 10.683685154694365 0.0 0.0 0.0 15.0" Properties=species:S:1:pos:R:3:forces:R:3 energy=-442.17872953648134 free_energy=-442.17872953648134 stress="-0.006568937547701764 -0.0014495727467684443 1.901530810322619e-06 -0.0014495727467684443 -0.0002488979730099243 1.220748081589512e-05 1.901530810322619e-06 1.220748081589512e-05 -9.291392941821377e-06" pbc="T T T"
C        0.01864859       0.02962428       3.84462937       0.00315399      -0.01115915       0.01033337
C       -1.23890847       2.15048065       4.09415301      -0.00907316      -0.00563731      -0.00766648
C       -2.48911309       4.30155298       3.95520999       0.00741111       0.00365130       0.00839527
C       -3.67634291       6.45171134       3.68104994       0.00112179       0.00267448       0.00300660
C       -4.89948882       8.59706900       3.64220532      -0.00289791      -0.00134122       0.00231844
C        2.49160349       0.02390958       3.75663445      -0.00360080       0.00206974      -0.01344145
C        1.27582661       2.10399685       4.17210785      -0.00808459      -0.00152497       0.00366620
C       -0.16063242       4.36695955       4.55465145       0.00370116      -0.00132868       0.00143540
C       -1.28967281       6.47344420       4.05034201      -0.00018343      -0.00282032       0.00243350
C       -2.44970632       8.58895160       3.74648994       0.00301732       0.00347382      -0.00623462
C        4.96099604       0.02533217       3.63930670      -0.00215570       0.00120263      -0.00463266
C        3.69195596       2.12327289       3.44602301       0.00814856       0.00018646      -0.00570692
C        1.14432164       6.41883512       4.17423264      -0.00490856       0.00245660       0.00890345
C        0.01758190       8.56300640       3.83617381      -0.00221527      -0.00744615       0.00630726
C        7.42936034      -0.00160985       3.68313124      -0.00227087       0.00150467      -0.00603317
C        6.19272457       2.15798676       3.42794448      -0.00036709       0.00826078       0.01438479
C        5.06062520       4.37921137       3.10908623      -0.01038529      -0.00156345       0.00026405
N        3.89508439       6.44800434       3.48921188       0.00781380      -0.00093430      -0.00023778
C        2.50137035       8.50481467       3.76264223       0.00299664       0.00293647       0.00025988
C        9.88315619       0.00263089       3.79167827       0.00858590      -0.00402251      -0.00297620
C        8.64908388       2.15123033       3.73434722       0.00319970      -0.00340429       0.00399881
C        7.44339597       4.30589232       3.50294383       0.00307420      -0.00975984      -0.01225648
C        6.26804795       6.49241581       3.36399205      -0.00062613       0.00738544       0.00420192
C        4.97820607       8.57638849       3.61552102      -0.01062603       0.00732444       0.00091998
C        0.01898026       1.44917405       4.06622976      -0.00961017      -0.01284719       0.00266043
C       -1.28190326       3.58416711       4.23355493       0.00346888       0.00002868       0.00151133
C       -2.48188622       5.73179872       3.90144349       0.00072045       0.00403160       0.00386172
C       -3.67417069       7.87720123       3.68190377       0.00227291       0.00426081       0.00298510
C       -4.91316902      10.01213707       3.75749858       0.00265658      -0.00735012       0.00383811
C        2.48338272       1.45157586       3.81685197      -0.00019638       0.00508826      -0.00392155
P        1.39531863       3.64270211       5.12992959      -0.00830944       0.00486745       0.00612681
C       -0.09798056       5.75353073       4.32931454      -0.00080360       0.00260451       0.00711021
C       -1.22996626       7.87836867       3.86826175      -0.00332898      -0.00561339       0.00140423
C       -2.44251210      10.00740925       3.69975949      -0.00310159       0.00408253      -0.00163436
C        4.95160534       1.45487051       3.47736158       0.00453758       0.00209802      -0.00027164
S        3.55428411       3.65494645       2.59270979       0.00720078       0.00739493      -0.00765801
C        1.25520761       7.81144182       3.90982239       0.00045296      -0.00100493       0.00336949
C        0.02538965       9.98076621       3.70534681      -0.00567527      -0.00606812      -0.00965304
C        7.41827947       1.43655867       3.60099607      -0.00077045       0.00599688       0.00530635
C        6.22065012       3.58881094       3.31439055      -0.00912210       0.00065139       0.00027979
C        5.05955129       5.78515116       3.23360520       0.00644066       0.00244895      -0.00457135
C        3.75922133       7.81637123       3.63304825       0.00096019      -0.00021942      -0.00969241
C        2.49245162       9.94887417       3.74027639       0.00646978       0.00235048      -0.00238158
C        9.88229307       1.43745674       3.87780542      -0.00452059      -0.01013391       0.00967340
C        8.64783347       3.58257257       3.72605669       0.01079360      -0.00284312      -0.00160007
C        7.45694366       5.73654792       3.49622435       0.00137950      -0.00177095      -0.00124524
C        6.21632803       7.89465067       3.52803748      -0.01050138       0.01055463       0.00901215
C        4.95704833       9.99224035       3.76008883       0.00501785       0.00017104      -0.01209592
Ir       2.58624287       5.04718079       4.02750779       0.00298298       0.00119418      -0.00995464
O        1.51253527       3.40131720       6.59993456       0.00575592      -0.00215782      -0.00410243
