52
Lattice="12.336457 0.0 0.0 -6.168228499999997 10.683685154694365 0.0 0.0 0.0 15.0" Properties=species:S:1:pos:R:3:forces:R:3 energy=-455.4380485284088 free_energy=-455.4380485284088 stress="-0.008665494973551112 -0.0034580655649295105 3.884979843096151e-05 -0.0034580655649295105 0.0016660393276669142 1.5516153368179647e-06 3.884979843096151e-05 1.5516153368179647e-06 1.601397404208589e-05" pbc="T T T"
C        0.00631301      -0.00279976       3.91925737       0.00623052       0.00206818      -0.00182742
C       -1.26108847       2.09632086       3.92992893      -0.00272355       0.00448040      -0.00028173
C       -2.48488248       4.24736047       3.80327206       0.00037710      -0.00566978       0.00018260
C       -3.67396066       6.41191279       3.71620820      -0.00488708      -0.00998596       0.00288097
C       -4.90055084       8.56622301       3.79918957      -0.00190726      -0.00499070       0.00837666
C        2.48063469       0.01174612       3.87704920       0.00037906       0.00477420      -0.00123630
C        1.22473128       2.15878861       3.99906182      -0.00244767      -0.00888460      -0.00139514
C       -0.07075289       4.24362615       4.02858465       0.00397969      -0.00615167       0.00242375
C       -1.26121672       6.40632032       3.87128790      -0.00267327       0.00125458      -0.00518840
C       -2.45247112       8.55267142       3.82171102      -0.00069391       0.00994831      -0.00632694
C        4.94711102      -0.01048082       3.71148804      -0.00025163      -0.00054164       0.00799709
C        3.67474699       2.10095729       3.51707818      -0.00034428      -0.00219577       0.00458844
C        1.16571077       6.34006554       4.01662690       0.00286490       0.00237032       0.00153438
C        0.01777376       8.50635013       3.84228354       0.00456097       0.00091228       0.00584136
C        7.41241299      -0.04911744       3.73062050      -0.00012444      -0.00281422       0.00253315
C        6.17610299       2.11605583       3.48707824       0.00387929       0.00084929      -0.00594401
C        5.04740446       4.35129061       3.21018209       0.00251132      -0.00012216       0.00005540
N        3.89185280       6.39611023       3.74716195       0.00611476       0.00765835      -0.00627338
C        2.49599511       8.46300687       3.86052608      -0.00035559       0.00088207      -0.00657664
C        9.86520310      -0.05007213       3.83905527       0.00459214       0.00387751      -0.00132421
C        8.62861688       2.09916335       3.70636338      -0.00310423       0.00689831       0.00495293
C        7.43158034       4.26608340       3.53101121       0.00324035       0.00046764       0.00469248
C        6.25918210       6.45666472       3.52655688      -0.00228848      -0.00666729       0.00015464
C        4.97216357       8.53131167       3.78614496      -0.00259488      -0.00430991       0.00734119
C       -0.01119903       1.41656272       3.97993807      -0.00362623       0.00204538      -0.00024835
C       -1.28199203       3.51709907       3.93080895      -0.00028960      -0.00054298       0.00360890
C       -2.47004798       5.68184592       3.79656243      -0.00316573      -0.00855477      -0.00100860
C       -3.67501690       7.84116631       3.78169754       0.00125412      -0.00329206       0.00148041
C       -4.91617134       9.98473927       3.89243610       0.00500284       0.00054080       0.00260734
C        2.47014512       1.43654491       3.83978402      -0.00081597      -0.00293156      -0.00046939
C        1.14762955       3.56475084       4.12291635       0.00038307      -0.01058885       0.00763533
C       -0.05929718       5.67339108       3.97271978       0.00159299      -0.00045717      -0.00391616
C       -1.22838902       7.82761167       3.84309857       0.00110498       0.00758574      -0.00554792
C       -2.45380964       9.97719594       3.81034116      -0.00248857       0.00890791       0.00628706
C        4.93380683       1.41684560       3.55132825       0.00132806      -0.00311748       0.00534435
P        3.44409680       3.72456458       2.78403144      -0.00465629       0.00600378      -0.00615795
C        1.25357509       7.74489976       3.90820439       0.00327073       0.00169808      -0.01192536
C        0.01169798       9.93430779       3.75531813       0.00014046      -0.00283644      -0.00184164
C        7.39840778       1.38699277       3.63133428       0.00041400       0.00048791      -0.00058896
C        6.20101109       3.55692963       3.38082876       0.00693756       0.00471136       0.00420378
C        5.05263063       5.76485131       3.40560438       0.00050748      -0.00032439      -0.00539175
C        3.76189532       7.76580146       3.80674366      -0.00390569       0.00447395      -0.01467368
C        2.47533179       9.89452435       3.80993901       0.00281377      -0.00031930      -0.00451138
C        9.85059653       1.37727041       3.83027971      -0.00357526       0.00787283       0.00852398
C        8.63282886       3.53399860       3.67734443       0.00052860       0.00198036       0.00320671
C        7.45328963       5.69903205       3.57383388      -0.00469841      -0.00671347       0.00076346
C        6.21822291       7.85778415       3.70788558      -0.00418676      -0.00938598       0.00667001
C        4.94538699       9.94807865       3.86238946       0.00624531      -0.00203713       0.00090251
Ir       2.56990488       4.95513904       4.40952050       0.00717850       0.01450191      -0.00253635
O        2.98770170       5.61622172       6.17512907       0.00043265      -0.00739413      -0.00436109
O        2.11065499       4.92114030       7.11172858      -0.00538007       0.00365378       0.00220215
H        2.76586511       4.71894735       7.81582614      -0.01668036      -0.00007585      -0.00743828
