50
Lattice="12.336457 0.0 0.0 -6.168228499999997 10.683685154694365 0.0 0.0 0.0 15.0" Properties=species:S:1:pos:R:3:forces:R:3 energy=-446.52067811893295 free_energy=-446.52067811893295 stress="-0.00866242428650644 -0.002839949840789182 7.354325332590593e-06 -0.002839949840789182 0.0012962601764493413 -1.6257680324863675e-05 7.354325332590593e-06 -1.6257680324863675e-05 -2.112705963798727e-05" pbc="T T T"
C       -0.01367473       0.00458083       3.88517460       0.00160487       0.00874869       0.00576345
C       -1.27863177       2.10607408       3.90770581      -0.00035177      -0.00167401      -0.01553614
C       -2.50455152       4.25708795       3.81423463      -0.00064011      -0.01074919       0.00615000
C       -3.69793098       6.41825273       3.74646785       0.00862506       0.00483910      -0.00195083
C       -4.92334590       8.57104018       3.80133004       0.00097865       0.00025441       0.00169828
C        2.46046489       0.01868529       3.85881047      -0.00445063      -0.00392385       0.00820993
C        1.20650051       2.16825888       3.94579151       0.00676890       0.00331856       0.00521264
C       -0.08720046       4.25387525       4.00123301      -0.00295177       0.00141308      -0.00415096
C       -1.28091551       6.41583896       3.89253238      -0.00495031      -0.00453508      -0.00661655
C       -2.47322384       8.56032829       3.83941004      -0.00500517      -0.00089482      -0.00960539
C        4.92956383      -0.00514377       3.71123956      -0.00662198      -0.00686738       0.00182375
C        3.66189965       2.09962066       3.48510742      -0.00068988       0.00170219      -0.00965671
C        1.14372352       6.35480069       4.03546183       0.00940747      -0.00535197      -0.00533423
C       -0.00181881       8.51564130       3.84659325      -0.00567787       0.00079976       0.01219899
C        7.39365331      -0.04018249       3.71614641       0.01115905      -0.00612552       0.00927831
C        6.15977559       2.12331511       3.48219145       0.00064858      -0.00805255       0.00743853
C        5.03337992       4.35459941       3.18407081      -0.00438537       0.00180953      -0.01286298
N        3.85305911       6.40744972       3.63088624      -0.00570740       0.00976288      -0.00584392
C        2.47524487       8.47272830       3.82588671      -0.00363732      -0.00340110       0.00574109
C        9.84679274      -0.04098964       3.80741006      -0.00126816       0.00647488       0.00925160
C        8.61023744       2.10884836       3.70701723      -0.00069846      -0.00514824      -0.00307435
C        7.41146164       4.27366767       3.55136659       0.01052546      -0.00276693       0.00096933
C        6.23345019       6.45958455       3.52429456       0.00697926      -0.00370640       0.00350610
C        4.94874751       8.53756403       3.75184042       0.00271061       0.01257381      -0.01052111
C       -0.02949254       1.42497084       3.93904271       0.00511978       0.00622479       0.00479392
C       -1.30022542       3.52682826       3.91826041      -0.00099270      -0.00456824       0.00174622
C       -2.49140029       5.69124926       3.81968383      -0.00238032      -0.00923902       0.00532114
C       -3.69722239       7.84750544       3.80272701       0.00057374       0.00339313      -0.00201573
C       -4.93689361       9.99084891       3.87416002      -0.00391719      -0.00063757       0.00496716
C        2.45091260       1.44163833       3.80043701       0.00594028      -0.00341284       0.00516411
C        1.12711564       3.57463182       4.05932058      -0.00186998       0.00307342      -0.00177400
C       -0.07853668       5.68221406       3.97740052       0.00051631       0.00358492      -0.00184653
C       -1.24814950       7.83685553       3.86188139      -0.00870576      -0.00109277      -0.00065614
C       -2.47292438       9.98440941       3.81260627      -0.00891216      -0.00580635      -0.00330937
C        4.91944460       1.42040542       3.54225867      -0.00398333      -0.00798411      -0.01229893
P        3.45311022       3.70820259       2.73385755      -0.01567313      -0.00275451      -0.00944385
C        1.23424216       7.75816469       3.90289335      -0.00431477      -0.00393313       0.00725989
C       -0.00675941       9.94179580       3.75087353       0.00238348       0.00188871       0.00954869
C        7.38117045       1.39574764       3.62626889       0.00390191      -0.00835807       0.00199629
C        6.18526644       3.56344607       3.37974127       0.00212679       0.00050135      -0.00036962
C        5.03051827       5.76720736       3.36205950      -0.00077135       0.00693079      -0.00745059
C        3.73665701       7.77616472       3.74505980      -0.00012303       0.00983374      -0.01087002
C        2.45645218       9.90529000       3.78093848       0.00734661      -0.00616062       0.00983049
C        9.83257707       1.38660983       3.81618422      -0.00196654       0.00241288      -0.01189085
C        8.61333136       3.54331633       3.69181832       0.00281246      -0.00986047       0.00736531
C        7.42908487       5.70495250       3.59948300       0.01475219       0.00070130      -0.00962628
C        6.19473884       7.86240999       3.69852034       0.00303620       0.00102623      -0.00591635
C        4.92522208       9.95535213       3.82674461       0.00017497       0.01356243       0.01339705
Ir       2.53421314       4.99245014       4.38408959       0.00521746       0.01423248       0.00920986
O        3.04186834       5.05623941       6.06547557      -0.01266360       0.00794165       0.00477929
