50
Lattice="12.336457 0.0 0.0 -6.168228499999997 10.683685154694365 0.0 0.0 0.0 15.0" Properties=species:S:1:pos:R:3:forces:R:3 energy=-446.4553914356354 free_energy=-446.4553914356354 stress="-0.008851916165105885 0.0029273608301678814 1.0211162762203557e-05 0.0029273608301678814 0.0016428958077699337 8.047701429962539e-06 1.0211162762203557e-05 8.047701429962539e-06 -1.7688242961975067e-05" pbc="T T T"
C       -0.00966163       0.01420189       3.78043512       0.00369359      -0.00085128       0.00499243
C       -1.24432974       2.12610860       3.89715651       0.00090942       0.00175344      -0.00366279
C       -2.47843851       4.27124429       3.83567456      -0.00277268       0.00819833       0.00185751
C       -3.71489843       6.41872149       3.68714542      -0.00097271       0.00696361       0.00283161
C       -4.95343748       8.56445426       3.63249645      -0.00007002       0.01511919       0.00148403
C        2.45230202       0.04720035       3.80164625       0.00559280      -0.00230583       0.00389206
C        1.23012194       2.19705586       3.91312286       0.00057267       0.00080206       0.00447830
C       -0.05580304       4.29307443       3.98271651      -0.00040012      -0.00151552      -0.00295431
C       -1.29723629       6.44204591       3.91688036       0.00587642      -0.00542916       0.00619052
C       -2.50152630       8.57539145       3.82387747       0.00547477      -0.01017201      -0.01131409
C        4.92786769       0.00825208       3.83980735      -0.00400843      -0.00267765       0.00316068
C        3.71950948       2.17028467       3.74532088      -0.00042414      -0.01691141       0.00143090
N        1.08614508       6.41272152       4.03610183       0.00474345      -0.00387190      -0.00028303
C       -0.03185101       8.53442252       3.93443357       0.00684962       0.00294695       0.00575917
C        7.40199998      -0.03257361       3.88838835      -0.00263560       0.00369918       0.00717088
C        6.20043673       2.10059489       3.70077885       0.00202610      -0.00026269      -0.00190702
C        5.04399952       4.21301848       3.32016591      -0.00309658      -0.00686831      -0.00658691
P        3.48269436       6.24938153       2.69217308      -0.01408624       0.00383553      -0.00349589
C        2.44437043       8.50296802       3.79637813      -0.00126954      -0.00323022       0.00559486
C        9.86264656      -0.03023471       3.84266893      -0.00724159       0.00748445      -0.00532790
C        8.64419324       2.11094449       3.82136683      -0.00444644       0.00885877      -0.00260247
C        7.44330601       4.25422033       3.57921799       0.00063500      -0.00475426      -0.00258190
C        6.20756155       6.40713897       3.33483613       0.01152008      -0.00036886      -0.00199350
C        4.91720549       8.53536236       3.54588382      -0.00321296       0.00437433      -0.01031802
C       -0.00564173       1.44176965       3.87656895       0.00229248      -0.00277674       0.00498074
C       -1.26324308       3.55379306       3.91896145      -0.00091095       0.00525359      -0.01063012
C       -2.49750838       5.70381911       3.81994680      -0.00079819       0.00756055       0.00237291
C       -3.72361479       7.85223420       3.70851920      -0.00520684       0.00665266       0.00283081
C       -4.94466165       9.99661000       3.73897933       0.00748130       0.00899870      -0.00223583
C        2.46513403       1.47742479       3.83938129      -0.00447485      -0.00795965      -0.00011399
C        1.15890830       3.61403440       4.02315004       0.00735339       0.00183865      -0.00001325
C       -0.08381928       5.73423568       3.98950389       0.00043044      -0.00667183       0.00452035
C       -1.27774459       7.85749968       3.90761621       0.01165563      -0.00624601      -0.01271241
C       -2.48909585      10.00288815       3.82246430       0.00098666      -0.01030934       0.00343521
C        4.95091622       1.42262778       3.76140821       0.00235794      -0.00637284      -0.00833453
C        3.83573569       3.56753859       3.63121173      -0.00044294      -0.01835507      -0.00700222
C        1.18480358       7.78275623       3.93565124       0.00352795      -0.00238954       0.00391453
C       -0.01178294       9.95720660       3.89206082      -0.00290575       0.00515279       0.01378598
C        7.41866018       1.38790418       3.81363995      -0.00033129       0.00428837       0.00492927
C        6.24677154       3.50533911       3.50414899       0.00004479      -0.00186334       0.00093912
C        5.06397762       5.62050456       3.11540715       0.00575240       0.00142076      -0.01031488
C        3.65982676       7.85202726       3.47885596      -0.00358894      -0.00106860      -0.00584251
C        2.45779750       9.93023261       3.87616251      -0.00486757      -0.00117080       0.00852419
C        9.86611257       1.39740709       3.87310157      -0.00498193       0.00990411      -0.01278335
C        8.65000552       3.54218213       3.75261429      -0.00099123       0.00514263       0.00064239
C        7.42651985       5.68845679       3.52564810       0.00814954      -0.00519158       0.00490598
C        6.16467914       7.84017274       3.47062762       0.00381988       0.00824134       0.00647104
C        4.92782978       9.96000936       3.73653627      -0.00331263       0.00515257       0.00066670
Ir       2.59735611       4.92636243       4.34214235      -0.01403838       0.00159693       0.00533944
O        2.86155187       5.16379685       6.06430262      -0.01025780      -0.00564503       0.00590930
