49
Lattice="12.336457 0.0 0.0 -6.168228499999997 10.683685154694365 0.0 0.0 0.0 15.0" Properties=species:S:1:pos:R:3:forces:R:3 energy=-436.6595770075287 free_energy=-436.6595770075287 stress="-0.0060010866230907 6.407880368287362e-07 -2.7350939149219856e-05 6.407880368287362e-07 -0.001686807513453358 3.0590752222449595e-07 -2.7350939149219856e-05 3.0590752222449595e-07 -1.2042463454388257e-06" pbc="T T T"
C       -0.01064807       0.00897115       3.92606838       0.00200226       0.00276389       0.00080920
C       -1.25519069       2.12153252       4.07095064       0.00119035      -0.00414224      -0.00099184
C       -2.49309988       4.26678222       4.10500436       0.00290023       0.00103502      -0.00050871
C       -3.71080056       6.41465224       3.96185144       0.00065340       0.00069338      -0.00090250
C       -4.94394876       8.55580791       3.84827491       0.00652073       0.00221613      -0.00501965
C        2.45651684       0.01019469       3.89841906      -0.00140666      -0.00058004      -0.00059814
C        1.22525948       2.16479743       3.86746883      -0.00201518       0.00083982       0.00087049
C       -0.05494190       4.26888469       4.09965543       0.00507702       0.00123446       0.00011197
C       -1.27739906       6.42555499       4.14244514       0.00242428       0.00769042       0.00368027
C       -2.48686328       8.55966162       4.02246373      -0.00025144      -0.00328342       0.00385192
C        4.92953180      -0.00460651       3.85772557      -0.00222055      -0.00427212       0.00189911
C        3.69080037       2.06226965       3.42406122      -0.00163340      -0.00209737       0.00294187
C        1.14540817       6.39477802       3.90632257       0.00067469      -0.00483060       0.00056589
C       -0.01495359       8.53612807       3.98394451       0.00023213      -0.00508192       0.00501172
C        7.39334032      -0.01569131       3.91175312       0.00487181      -0.00232147       0.00303572
C        6.18379080       2.11738777       3.60679166       0.00357528       0.00748190      -0.01114606
C        5.15833665       4.27611931       2.87331746      -0.01730971      -0.00361270       0.00533195
P        3.64208242       6.49133483       2.31568316      -0.00673936      -0.00968111       0.00018968
C        2.46148093       8.53406325       3.73942068      -0.00717347       0.00117275       0.00000296
C        9.85775958      -0.01459690       3.93560517       0.00323996       0.00414660      -0.00023244
C        8.62261345       2.12334053       3.96030190       0.00579606      -0.00343873       0.00185501
C        7.43062935       4.26787980       3.71231816      -0.00074133      -0.00431281      -0.00511353
C        6.24975064       6.43461915       3.39097131       0.00182253      -0.00441656      -0.00331025
C        4.94266673       8.56213239       3.61670062      -0.00174607       0.00749166      -0.00615644
C       -0.01536653       1.43041192       3.98382138       0.00237700      -0.00040221       0.00766427
C       -1.27762464       3.54064262       4.14281324       0.00421135      -0.00341653       0.00160150
C       -2.49306650       5.69947136       4.10556199       0.00298250       0.00671439      -0.00561020
C       -3.71348095       7.84347061       3.96044310       0.00440256      -0.00187656       0.00117435
C       -4.94302380       9.98211765       3.91147859       0.00170037       0.00261579       0.00090880
C        2.46108768       1.43234940       3.73948462      -0.00359228      -0.00100359      -0.00044602
C        1.14503290       3.57172671       3.90501723       0.00259767       0.00179303       0.00362784
C       -0.05472353       5.69731621       4.09988759       0.00249412       0.00312556      -0.00097121
C       -1.25475627       7.84481820       4.07005839      -0.00088595       0.00329845       0.00590563
C       -2.47826457       9.98115690       3.93563426      -0.00400328      -0.00556560      -0.00036666
C        4.94253704       1.40416000       3.61672827       0.00194286       0.00090747      -0.00505432
P        3.64202354       3.47473887       2.31634519      -0.00234434       0.01368689       0.00016301
C        1.22573973       7.80170547       3.86821551      -0.00434491      -0.00443882      -0.00076505
C       -0.01047333       9.95749696       3.92581514       0.00122600      -0.00503646       0.00449199
C        7.39230043       1.41063256       3.84911799       0.00603530       0.00033982      -0.01257821
C        6.25045767       3.53179619       3.38977947      -0.00770670       0.00565149       0.00023097
C        5.15755376       5.69043566       2.87419182      -0.00689735      -0.00385550       0.00611870
C        3.69107676       7.90446409       3.42282310      -0.00730171       0.00025647       0.00686099
C        2.45630808       9.95616479       3.89883587       0.00516745       0.00219287      -0.00367106
C        9.84905000       1.40699770       4.02241870       0.00374024      -0.00140749       0.00681209
C        8.62556249       3.55212303       3.96088802       0.00154761      -0.00319653       0.00415590
C        7.43052466       5.69922177       3.71260022       0.00052518      -0.00471016      -0.00173707
C        6.18374356       7.84876251       3.60726976       0.00430568       0.00380436      -0.01211981
C        4.92928854       9.97107595       3.85751176       0.00082601       0.00668423       0.00481679
Ir       2.59376488       4.98329445       3.60045932      -0.00874891      -0.00085631      -0.00739143
