52
Lattice="12.336457 0.0 0.0 -6.168228499999997 10.683685154694365 0.0 0.0 0.0 15.0" Properties=species:S:1:pos:R:3:forces:R:3 energy=-446.43379476664006 free_energy=-446.43379476664006 stress="-0.004036186014242702 -0.0004271287779056899 9.297935935686718e-06 -0.0004271287779056899 -0.0028963190176400496 -2.693880041082571e-05 9.297935935686718e-06 -2.693880041082571e-05 -3.9021882828830746e-07" pbc="T T T"
C        0.11332377      -0.01673382       3.86699502      -0.00343670       0.00120984       0.00092149
C       -1.12765484       2.11615773       3.62037502       0.00065724      -0.00184522      -0.01183380
C       -2.39546989       4.25802915       3.58346358       0.00252726      -0.00220281       0.00930417
C       -3.59291388       6.39981257       3.78452668       0.00063320       0.00159427       0.00734398
C       -4.81121906       8.53606637       3.90996756      -0.00126227      -0.00242710       0.00422882
C        2.58607076      -0.03806935       3.94069633      -0.00334632       0.00582868       0.00033734
C        1.36723256       2.06359800       3.68133883       0.00383962      -0.00211517      -0.00723193
C       -0.06976275       4.27356225       2.96291346       0.00258658      -0.00138487      -0.00920164
C       -1.19712562       6.42243374       3.28753540       0.00112910      -0.00319686      -0.00184601
C       -2.34684517       8.53139109       3.73278116       0.00488596       0.00683253       0.00291229
C        5.05745167      -0.02524135       3.97297357      -0.00141405      -0.00127399      -0.00192650
C        3.80081277       2.05389803       4.32313163      -0.00760883       0.01233804       0.00745836
P        1.54877295       6.37288983       2.52117888       0.00126495       0.00380196       0.00363840
C        0.11446025       8.54388747       3.58505271       0.00749308      -0.00769363       0.00421518
C        7.51885663      -0.01507748       3.93743021       0.00230098       0.00316289      -0.00262518
C        6.29642182       2.11687721       4.22271613      -0.00543413      -0.01026496       0.00160634
C        5.16512480       4.32006736       4.56305382       0.00503518      -0.00291653      -0.00665288
C        3.86759792       6.40521243       4.26119455      -0.00065403       0.00552559      -0.00062603
C        2.58594692       8.53377977       3.82575364      -0.00025321      -0.00169715       0.00429653
C        9.98826214      -0.01334701       3.90888717      -0.00225581      -0.00137436      -0.00251191
C        8.75090632       2.12343021       3.91227201       0.00330722       0.00607680       0.00419183
C        7.53486668       4.26630920       4.06189097      -0.00076342      -0.00006337       0.00139033
C        6.32273782       6.42229851       4.12728765      -0.00535802      -0.00554892      -0.00050293
C        5.05367729       8.53018393       4.01019477      -0.00023706      -0.00435258      -0.00319401
C        0.11265739       1.41003468       3.70874858       0.00127116       0.00104371      -0.00405558
C       -1.18297419       3.52228510       3.37338278       0.00215689      -0.00084077      -0.00282708
C       -2.39427531       5.68649859       3.54638547      -0.00127038      -0.00437768       0.00268419
C       -3.58447227       7.82360527       3.80379657       0.00457965       0.00454569       0.00360032
C       -4.81995353       9.95383248       3.89904111      -0.00227537       0.00046567      -0.01215332
C        2.58115294       1.37951656       4.01634893      -0.00209892       0.00514301       0.00802637
S        1.53076532       3.59178560       2.88719492      -0.00270062      -0.00495358       0.00003469
C       -0.06799449       5.67501019       2.87966769       0.00295880      -0.00033588      -0.00522227
C       -1.13176664       7.83397810       3.51324874       0.00431138       0.00023427      -0.00035484
C       -2.34237832       9.94595897       3.89407571      -0.00227633       0.00544406       0.00789722
C        5.05520669       1.39520498       4.20389602      -0.01209085      -0.00251652       0.00802531
P        3.69827848       3.59526259       5.21499760      -0.00161913       0.00682985       0.00177434
C        1.37109697       7.88796998       3.47409791       0.00772809      -0.00739610       0.00206330
C        0.11709010       9.95488908       3.84762240       0.00419159      -0.00485402       0.00179634
C        7.51903723       1.41091201       4.03955114       0.00399831       0.00277250       0.00457007
C        6.32307504       3.55084625       4.31057465       0.00221815      -0.00866478      -0.00074396
C        5.10826516       5.72172519       4.35539963      -0.00543140      -0.00359558      -0.00296652
C        3.81597398       7.80300876       4.02625704      -0.00150909       0.00061977      -0.00554339
C        2.58683176       9.95841408       3.91141972      -0.00160079      -0.00132705       0.00331586
C        9.99023836       1.41358619       3.81954439      -0.00087257       0.00113204      -0.00645435
C        8.74246364       3.54900316       3.86188730      -0.00188667       0.00325450      -0.00721805
C        7.53200371       5.69101580       4.00330267      -0.00385456      -0.00051733      -0.00268368
C        6.29665221       7.83400647       4.01491355      -0.00203169      -0.00769124      -0.00000247
C        5.05088183       9.95257018       3.92361645      -0.00288959      -0.00347769       0.00453274
Ir       2.27564912       5.22492478       4.40357971       0.00696878       0.00359922       0.01010921
O        1.42000871       5.76346803       6.07262238      -0.00011806       0.00414487      -0.01007083
O        0.22584681       4.94222511       6.15597525      -0.00490730       0.01523812      -0.01184053
H       -0.02936282       5.12861543       7.08733889       0.00541402      -0.00193213       0.01001469
