50
Lattice="12.336457 0.0 0.0 -6.168228499999997 10.683685154694365 0.0 0.0 0.0 15.0" Properties=species:S:1:pos:R:3:forces:R:3 energy=-442.7413679863694 free_energy=-442.7413679863694 stress="-0.006050096495514615 -1.951404198800716e-07 2.6163267064358717e-06 -1.951404198800716e-07 -0.0009514356648313206 -6.7310399046769e-08 2.6163267064358717e-06 -6.7310399046769e-08 -2.913688285806444e-05" pbc="T T T"
C       -0.01795125       0.01241563       3.92248768       0.00772576      -0.00218592       0.00772370
C       -1.26500477       2.12315249       4.03916372       0.00183293       0.00165007      -0.00331963
C       -2.50135327       4.26801436       4.01413342      -0.00574602      -0.00156212      -0.00079414
C       -3.71825316       6.41371872       3.87191887      -0.00183231       0.00544222       0.00223306
C       -4.95347621       8.55655577       3.80617689       0.00196203      -0.00441192       0.00468156
C        2.44654281       0.01164337       3.91035638      -0.00433208       0.00401597       0.00360682
C        1.21801281       2.17670391       3.93142684      -0.00235278       0.00624798       0.00411074
C       -0.06825006       4.26635241       4.08676548       0.00338637       0.00366048       0.00326300
C       -1.28521640       6.42242815       4.07957824      -0.00296464      -0.00225066      -0.00156901
C       -2.49577373       8.55742289       3.98547778      -0.00074702       0.00265941      -0.00860537
C        4.92205668      -0.00707123       3.85223254       0.00188534      -0.00853943       0.00062655
C        3.67889216       2.06048870       3.46125205      -0.00191806       0.00269351      -0.00317851
C        1.15171108       6.37755808       4.00046303       0.00098959      -0.00346476      -0.00310223
C       -0.01873983       8.52878738       3.99343201       0.00023821       0.00135293       0.00255441
C        7.38327909      -0.01556490       3.90157393       0.00639552       0.00727507       0.00552187
C        6.17369326       2.11554362       3.57441341      -0.00177289      -0.00431197      -0.00153502
C        5.13011342       4.27350288       2.87037867       0.00019105      -0.00189529      -0.00271726
P        3.55369970       6.42112253       2.48272903       0.00023591      -0.00511143      -0.00371324
C        2.45180789       8.53399084       3.79593499      -0.00695441      -0.01068587       0.00012942
C        9.84954215      -0.01301420       3.92855592      -0.00551417      -0.00047341      -0.00873039
C        8.61425395       2.12380642       3.89828256       0.00124866      -0.00305674       0.00616082
C        7.42257676       4.26732000       3.62717403       0.00405018      -0.00180454      -0.00070786
C        6.23162552       6.43518268       3.34571250       0.00313060       0.00362881      -0.00260506
C        4.92999272       8.56155090       3.61747910      -0.00166697       0.01083183      -0.00620759
C       -0.01873564       1.43768699       3.99344734       0.00015486      -0.00149945       0.00257930
C       -1.28521864       3.54403501       4.07957419      -0.00296944       0.00230258      -0.00147983
C       -2.50135018       5.69843974       4.01413924      -0.00574046       0.00177421      -0.00083648
C       -3.72219625       7.84265817       3.89828732       0.00126027       0.00311859       0.00614304
C       -4.95316547       9.98204197       3.90160107       0.00627511      -0.00732175       0.00542988
C        2.45181021       1.43248966       3.79593271      -0.00699482       0.01065237       0.00018173
C        1.15169941       3.58890467       4.00048937       0.00120157       0.00357904      -0.00319094
C       -0.06824380       5.70011446       4.08676280       0.00331631      -0.00360533       0.00322024
C       -1.26500693       7.84331597       4.03914052       0.00193470      -0.00174442      -0.00324491
C       -2.48690859       9.97948807       3.92855308      -0.00566578       0.00044062      -0.00870973
C        4.92997652       1.40493034       3.61750262      -0.00151000      -0.01071285      -0.00633821
P        3.55370389       3.54535575       2.48267435       0.00028945       0.00513279      -0.00341407
C        1.21801204       7.78976647       3.93141084      -0.00231470      -0.00626573       0.00413326
C       -0.01795789       9.95406146       3.92247999       0.00774124       0.00207460       0.00770749
C        7.38296904       1.40991701       3.80615209       0.00199848       0.00447234       0.00480746
C        6.23161331       3.53129994       3.34573187       0.00310143      -0.00365097      -0.00269150
C        5.13011468       5.69298851       2.87038255       0.00027056       0.00167946      -0.00275280
C        3.67890213       7.90600199       3.46126435      -0.00201633      -0.00277144      -0.00316882
C        2.44653094       9.95483579       3.91034784      -0.00413095      -0.00405597       0.00359293
C        9.84068154       1.40904830       3.98550190      -0.00081723      -0.00273710      -0.00873079
C        8.61819754       3.55274255       3.87191752      -0.00184641      -0.00534455       0.00224384
C        7.42258119       5.69915229       3.62716353       0.00411983       0.00175849      -0.00064111
C        6.17371135       7.85093373       3.57439946      -0.00190693       0.00446508      -0.00147418
C        4.92205958       9.97355078       3.85221739       0.00194017       0.00854676       0.00070814
Ir       2.63077865       4.98321848       4.06696173       0.00677429       0.00003647      -0.00721313
O        3.17281826       4.98325402       5.73639805      -0.00193605      -0.00002806       0.01931255
