50
Lattice="12.336457 0.0 0.0 -6.168228499999997 10.683685154694365 0.0 0.0 0.0 15.0" Properties=species:S:1:pos:R:3:forces:R:3 energy=-437.96074848747537 free_energy=-437.96074848747537 stress="-0.010068464021129783 0.00300205614833306 -7.566780871480312e-06 0.00300205614833306 -0.0066569756994887585 1.6360987726530777e-05 -7.566780871480312e-06 1.6360987726530777e-05 1.1817932205479451e-05" pbc="T T T"
C       -0.01575991       0.01458215       3.69067847      -0.00637362       0.00611269      -0.00472161
C       -1.23920151       2.15173002       3.48015728       0.00029319       0.00312372       0.01147483
C       -2.50017276       4.29233150       3.48192272      -0.00629469      -0.00325587       0.00713737
C       -3.71893362       6.43274100       3.66797166       0.00433982      -0.00998667      -0.00792190
C       -4.96670962       8.55793509       3.72571211       0.00385543      -0.00391817       0.00182062
C        2.44231763      -0.01494727       3.92159208       0.00635914      -0.00110117       0.00156048
C        1.26331372       2.10107489       3.68895006      -0.00224687       0.00886534       0.00962402
C       -0.12420144       4.35686231       3.09956911      -0.00522627      -0.00377393      -0.00283146
C       -1.33719214       6.48224817       3.31020172      -0.01259495       0.01095049      -0.00182208
C       -2.50655544       8.58049696       3.67800778      -0.00552302       0.00120207       0.00269622
C        4.92511909       0.00433358       3.96714721       0.00214382       0.00252873       0.00830702
C        3.67907983       2.00926711       4.47891777      -0.00872029      -0.00735569      -0.00034384
C        1.04271506       6.47895905       3.52844045       0.00156379      -0.00770106      -0.00039885
C       -0.04937135       8.58821644       3.58093561       0.00707194      -0.00065288       0.00803818
C        7.39153123       0.01342412       3.82001192      -0.01030314      -0.00077570      -0.00119601
C        6.19682294       2.12602410       4.23187503       0.00118589      -0.00168027      -0.00598134
C        5.12375641       4.34466592       4.56100645       0.01217684       0.00338718       0.01079781
S        3.68105850       6.19745873       3.15813159      -0.00974416       0.01175702      -0.00135400
C        2.43822568       8.56076776       3.59991414       0.01086376       0.01360982      -0.00347939
C        9.85695444       0.01352337       3.66745848      -0.00122279      -0.00568063      -0.00311181
C        8.64029610       2.14376311       3.78467235       0.00474613      -0.00148476      -0.00804970
C        7.44951304       4.27784931       3.99326025      -0.00633167       0.01296889      -0.00616032
C        6.21335324       6.43443793       3.88680099       0.00138226       0.00247392      -0.00327309
C        4.91563886       8.55303282       3.64220056       0.00602043      -0.00577387       0.00404961
C        0.00206178       1.44540627       3.59692569      -0.00129598       0.01131568       0.00710231
C       -1.27791474       3.57486006       3.30537923      -0.00526476      -0.00070682       0.00722781
C       -2.51781891       5.72288436       3.46278760      -0.00139146      -0.00654885      -0.00509848
C       -3.73076247       7.85696715       3.68507659       0.00144481      -0.01227731      -0.00625384
C       -4.96143964       9.97986758       3.76819107      -0.00019040       0.00348369      -0.00467266
C        2.44539225       1.38979172       4.06563711       0.00100856       0.00135350      -0.00432507
P        1.51148388       3.71153860       2.93420866       0.00351249      -0.01502790       0.01068563
C       -0.12820325       5.76941334       3.20454653      -0.01355783       0.00399724      -0.00296682
C       -1.28911256       7.88650248       3.50960534      -0.00430060       0.01129164       0.00181101
C       -2.48664109       9.98302448       3.87363801       0.00536626      -0.00013800       0.00849350
C        4.94849350       1.39973651       4.26093487      -0.00512606      -0.00118954      -0.00558632
P        3.64356471       3.60776916       5.14464359       0.01328910       0.00314484       0.00385855
C        1.18107798       7.86303143       3.54016985       0.01393342      -0.00124913      -0.00111974
C       -0.02030501       9.99246113       3.78665822      -0.00393309      -0.00347479       0.01280091
C        7.40779208       1.43068237       3.95765265       0.00268351      -0.00357479      -0.00693902
C        6.26821769       3.55206116       4.31558069       0.00520911      -0.00081162      -0.00774456
C        5.06315811       5.65791989       4.06223131       0.00619385      -0.00127392       0.00069315
C        3.66709679       7.88661319       3.53730124       0.00822240       0.00304937      -0.00066253
C        2.45168987       9.99028846       3.69802461      -0.00675859       0.01025234      -0.01507310
C        9.86881445       1.44141441       3.63423310       0.00635949      -0.00653365      -0.00175357
C        8.64892776       3.56854041       3.75473484      -0.01048568       0.00553842      -0.00470437
C        7.43086050       5.70436239       3.87701040      -0.00037283       0.00954094      -0.00527692
C        6.14809627       7.84317143       3.71165988       0.00404631      -0.00063978       0.00605782
C        4.91878813       9.98661083       3.65645787      -0.00211668      -0.00758423       0.00127430
Ir       2.21158941       5.21387433       4.47525192       0.00863306      -0.01634765       0.00332500
O        2.97721040       4.10520776       6.43016455      -0.01252938      -0.00942887      -0.00601372
