51
Lattice="12.336457 0.0 0.0 -6.168228499999997 10.683685154694365 0.0 0.0 0.0 15.0" Properties=species:S:1:pos:R:3:initial_magmoms:R:1:forces:R:3 energy=-451.40232520003514 free_energy=-451.40232520003514 stress="-0.008094323822519066 -0.003369281429083766 -2.3595013686025944e-06 -0.003369281429083766 0.0017833515251547349 -3.125002012909331e-07 -2.3595013686025944e-06 -3.125002012909331e-07 -1.2790969012002218e-05" pbc="T T T"
C       -0.03370954      -0.01191895       3.90363009       0.00000000       0.00406150      -0.00041362      -0.00586897
C       -1.30229742       2.08766775       3.90343714       0.00000000       0.00069778       0.00239945      -0.00447551
C       -2.52672504       4.23831028       3.76300342       0.00000000      -0.00678368      -0.00100626      -0.00003839
C       -3.71657111       6.40135379       3.68770266       0.00000000       0.00043898      -0.00203805       0.00561466
C       -4.94241111       8.55447367       3.78889838       0.00000000       0.00614121      -0.00127931       0.00358055
C        2.44071969       0.00083782       3.85954396       0.00000000      -0.00517444      -0.00083373       0.00047690
C        1.18453662       2.14855020       3.98167422       0.00000000      -0.00101732      -0.00030268       0.00096168
C       -0.11136959       4.23429938       3.97019652       0.00000000       0.00240732       0.00192382       0.00216768
C       -1.30066486       6.39614642       3.80060650       0.00000000      -0.00359335       0.00331422      -0.00340711
C       -2.49265328       8.54221848       3.78200140       0.00000000      -0.00445971      -0.00371182       0.00314930
C        4.90644872      -0.02034426       3.67404498       0.00000000      -0.00738922      -0.00165655       0.00222002
C        3.63281050       2.09025169       3.48789102       0.00000000      -0.00379819      -0.00083709      -0.00520988
C        1.13306210       6.32452887       3.93231956       0.00000000       0.00322348      -0.00468118       0.00267764
C       -0.02126461       8.49527744       3.77232330       0.00000000       0.00369259       0.00252358       0.00013959
C        7.37026480      -0.05607103       3.68062163       0.00000000       0.00389229       0.00086792       0.00307501
C        6.13318131       2.10817457       3.45037441       0.00000000       0.00383495       0.00062920       0.00196642
C        5.00706498       4.34243447       3.14550175       0.00000000       0.00071252       0.00025307      -0.00411232
N        3.84566499       6.39020646       3.68379818       0.00000000      -0.01321296      -0.00818543      -0.00714453
C        2.45362902       8.45811599       3.78796739       0.00000000       0.00137907      -0.00112584       0.00540780
C        9.82470627      -0.05733409       3.80002499       0.00000000       0.00314688       0.00200628       0.01005534
C        8.58586534       2.09200499       3.67593900       0.00000000       0.00366366      -0.00629888      -0.00187184
C        7.38737870       4.25785162       3.50331328       0.00000000       0.00171005      -0.00090587      -0.00058743
C        6.21379652       6.44479733       3.50252175       0.00000000       0.00221048       0.00584380      -0.00092289
C        4.93139613       8.52329360       3.75268781       0.00000000      -0.00022318       0.00490449      -0.00072514
C       -0.05076990       1.40894358       3.96131360       0.00000000      -0.00109277      -0.00065600      -0.00162535
C       -1.32376458       3.50727434       3.88978622       0.00000000      -0.00188298       0.00343252      -0.00200159
C       -2.51118865       5.67145462       3.74886998       0.00000000      -0.00270861      -0.00097701      -0.00039692
C       -3.71661658       7.83031822       3.75853760       0.00000000       0.00055275      -0.00505640      -0.00639079
C       -4.95712797       9.97391605       3.88080962       0.00000000       0.00192485      -0.00297479       0.00118773
C        2.43059765       1.42509783       3.81969812       0.00000000      -0.00303461       0.00046290       0.00495344
C        1.10822951       3.56068197       4.09468778       0.00000000       0.00965201       0.00085605      -0.00391615
C       -0.09815340       5.66182895       3.88857882       0.00000000      -0.00312252      -0.00066468       0.00149293
C       -1.26853268       7.81691002       3.77773121       0.00000000      -0.00067036       0.00420249       0.00724993
C       -2.49368094       9.96703368       3.78124577       0.00000000      -0.00972298      -0.00394335      -0.00501149
C        4.89137335       1.40815004       3.51867495       0.00000000      -0.00095786      -0.00021391      -0.00250168
P        3.39288247       3.71307958       2.75334319       0.00000000      -0.00096123       0.00535992      -0.01431308
C        1.21337134       7.73927888       3.82441987       0.00000000       0.00303686      -0.00278431       0.00266115
C       -0.02870335       9.92521992       3.70069246       0.00000000      -0.00035896       0.00376308       0.00352981
C        7.35577564       1.38033023       3.59437509       0.00000000       0.00502380      -0.00207716      -0.00538206
C        6.15529019       3.55038810       3.34396537       0.00000000       0.00278977       0.00048885      -0.00320438
C        5.00901745       5.75494498       3.34863003       0.00000000      -0.00007093       0.00017368      -0.00514741
C        3.72075508       7.75976314       3.73498381       0.00000000      -0.00140164      -0.00322121       0.00725757
C        2.43432728       9.88868154       3.75432443       0.00000000       0.00412914       0.00129285      -0.00097508
C        9.80874640       1.36985654       3.80134831       0.00000000       0.00421517      -0.00089731      -0.00340230
C        8.58960044       3.52617481       3.64759455       0.00000000      -0.00340818      -0.00701864       0.00282487
C        7.40888605       5.68897266       3.55095698       0.00000000       0.00199766       0.00029636       0.00928040
C        6.17628997       7.84615126       3.69353337       0.00000000       0.00363987       0.00833899      -0.00424222
C        4.90494749       9.94008560       3.83405107       0.00000000       0.00290464       0.00437210       0.00625869
Ir       2.49147711       4.97497140       4.35966376       0.00000000      -0.00891252       0.00530536       0.00348095
O        2.79489004       5.76122939       6.26045021       1.00000000       0.00665282       0.00655242       0.00166245
O        3.82235662       4.95018756       6.13207236       1.00000000      -0.00377390      -0.00580227      -0.00045802
