51
Lattice="12.336457 0.0 0.0 -6.168228499999997 10.683685154694365 0.0 0.0 0.0 15.0" Properties=species:S:1:pos:R:3:initial_magmoms:R:1:forces:R:3 energy=-442.5219283912484 free_energy=-442.5219283912484 stress="0.0027441956466645653 -0.0009679985779262963 -1.7490980022476522e-05 -0.0009679985779262963 0.0027522778891851565 9.525394358543496e-06 -1.7490980022476522e-05 9.525394358543496e-06 8.700285677758357e-06" pbc="T T T"
C        0.03722624       0.04715176       3.83423002       0.00000000       0.00214990      -0.00534568       0.00047826
C       -1.21997612       2.16025962       3.55482477       0.00000000      -0.00364636       0.00071047       0.00064454
C       -2.50279441       4.30505359       3.59224025       0.00000000      -0.00029294       0.00308510       0.00348228
C       -3.71082616       6.44520129       3.81905123       0.00000000       0.00556467      -0.00769917       0.00324966
C       -4.90348963       8.58182093       3.93323804       0.00000000       0.00024923      -0.01071017      -0.00631685
C        2.50915029       0.04975271       3.87491568       0.00000000      -0.00183857       0.01259657      -0.00042523
C        1.27785531       2.11507389       3.37748413       0.00000000      -0.00319211      -0.00155852      -0.00653148
C       -0.19323073       4.27647386       2.83680328       0.00000000      -0.00132949      -0.00789153       0.00432426
C       -1.27242603       6.45699092       3.43588112       0.00000000      -0.00175394       0.00009292       0.00143034
C       -2.42752621       8.56446401       3.87774538       0.00000000      -0.00718564       0.00335394      -0.00166871
C        4.97012371       0.01298383       3.97054664       0.00000000       0.00343908      -0.00732804       0.00596592
C        3.76062154       2.16558247       3.84037513       0.00000000       0.01128640      -0.00192353       0.00521140
S        1.10238994       6.38596946       1.82493405       0.00000000      -0.00995277      -0.00258278      -0.00041157
C        0.05932657       8.52988241       3.94162684       0.00000000      -0.00132556      -0.00646351      -0.00207360
C        7.42567668       0.03555290       4.02982338       0.00000000      -0.00192289       0.00053241       0.00012998
C        6.18124664       2.17158055       3.98288546       0.00000000       0.00488302       0.00071977      -0.00108732
C        4.92284727       4.27243995       3.93954944       0.00000000       0.00161732      -0.00141457      -0.00016908
C        3.69245287       6.49369490       3.94486720       0.00000000      -0.00104663      -0.00188293       0.00209652
C        2.52075887       8.61036038       4.06791638       0.00000000       0.00397018       0.00626821       0.00105898
C        9.90451251       0.05010273       3.94091787       0.00000000      -0.00108037       0.00263661       0.01053584
C        8.64875269       2.17697944       3.86607959       0.00000000       0.00199044      -0.00302915      -0.00118595
C        7.38177776       4.31292535       3.89360681       0.00000000       0.00865019       0.00166682      -0.01043746
C        6.13974428       6.43132863       3.94426245       0.00000000       0.00372303       0.00443156      -0.00128157
C        4.98319508       8.59840947       3.98946442       0.00000000      -0.00559607       0.00611820       0.00747088
C        0.03496591       1.46495922       3.58583833       0.00000000      -0.00046279       0.00004618       0.00689446
C       -1.28440598       3.57121958       3.33760191       0.00000000      -0.00717738      -0.00087454      -0.00264035
C       -2.48812967       5.73539802       3.61766981       0.00000000       0.00089023      -0.00259905      -0.00330593
C       -3.67662780       7.86507335       3.88284713       0.00000000       0.00082173      -0.00945944      -0.01049479
C       -4.89818220      10.01336496       3.89289527       0.00000000       0.00297056      -0.00675519       0.00348966
C        2.51535871       1.48112615       3.72003875       0.00000000       0.00648056       0.01405789      -0.00393663
S        1.31555611       3.54223614       2.40154077       0.00000000      -0.00643960       0.01125438       0.00814513
C       -0.15334300       5.71452428       2.87916359       0.00000000      -0.00216849       0.01070061      -0.00093599
C       -1.19291954       7.84007789       3.76026667       0.00000000      -0.00780612       0.00225580      -0.00735454
C       -2.42949578       9.99542288       3.93600934       0.00000000      -0.00574121       0.00767469      -0.00933270
C        4.95549932       1.45584581       3.95912655       0.00000000       0.01220823      -0.00760467       0.00086142
O        3.75701229       3.54261518       3.96825765       0.00000000      -0.00708281      -0.00194010       0.00928376
C        1.32327550       7.86509858       4.04708927       0.00000000       0.00486510       0.00207894      -0.00305301
C        0.03924081       9.97548895       4.01046411       0.00000000       0.00158642      -0.00759792      -0.00430271
C        7.41395106       1.46794872       3.98112774       0.00000000       0.00047115      -0.00123620      -0.00685498
C        6.14630842       3.59511665       3.95346895       0.00000000       0.00531739       0.00274406      -0.00354860
C        4.87745648       5.70872890       3.94897434       0.00000000       0.00565920       0.00003190       0.00357242
C        3.74743106       7.89178783       4.01526164       0.00000000       0.00082575      -0.00054839      -0.00050100
C        2.50094612      10.03371593       4.04003292       0.00000000       0.00044269       0.00531518       0.00850338
C        9.89986434       1.47081622       3.80367596       0.00000000      -0.00018633      -0.00168098       0.00351211
C        8.62103127       3.60011110       3.79958243       0.00000000       0.00591583      -0.00197572       0.00170900
C        7.37913012       5.73272814       3.89128039       0.00000000       0.00683679       0.00153492      -0.00303876
C        6.19354919       7.86337073       3.95849292       0.00000000      -0.00743634       0.00418291       0.00775724
C        4.97260571      10.02250019       3.93698014       0.00000000      -0.00240181       0.00361682      -0.00732542
Ir       1.79429870       5.95852761       3.90076829       0.00000000      -0.01170887      -0.00279131       0.00357106
O        2.28279221       5.05944678       5.65552330       1.00000000      -0.00355259       0.01029519       0.00684627
O        1.56508047       3.99955119       5.43379092       1.00000000      -0.00048745      -0.01510898      -0.01201054
