51
Lattice="12.336457 0.0 0.0 -6.168228499999997 10.683685154694365 0.0 0.0 0.0 15.0" Properties=species:S:1:pos:R:3:initial_magmoms:R:1:forces:R:3 energy=-451.4781910930593 free_energy=-451.4781910930593 stress="-0.008961394084178741 0.0013193791762042615 1.2508043867837874e-05 0.0013193791762042615 0.0008727058593710206 3.1485710373473315e-06 1.2508043867837874e-05 3.1485710373473315e-06 -9.488400463782137e-06" pbc="T T T"
C       -0.01319520      -0.02501906       3.72818963       0.00000000      -0.00397052      -0.00203345       0.01457099
C       -1.25768766       2.09178177       3.52513165       0.00000000       0.00406565      -0.00300978       0.00092206
C       -2.51766630       4.24127747       3.51235019       0.00000000       0.00235862      -0.00158414       0.00294688
C       -3.73768184       6.38970557       3.64875468       0.00000000       0.00007890       0.00681591      -0.00679069
C       -4.94919333       8.53160635       3.78005027       0.00000000       0.00183561       0.00771335      -0.00237664
C        2.45364649      -0.01718138       3.85328794       0.00000000       0.00382279      -0.00560131      -0.00183656
C        1.24877613       2.08235061       3.58871051       0.00000000       0.00254147      -0.00417353       0.00424736
C       -0.12953412       4.31139783       3.30369544       0.00000000      -0.00547779      -0.00112251      -0.00579587
C       -1.33085399       6.42263718       3.53821669       0.00000000       0.00490211       0.00465610      -0.00649775
C       -2.49981009       8.53936965       3.75933436       0.00000000      -0.00156142       0.00292937       0.01149219
C        4.92506649      -0.02726309       3.84305080       0.00000000       0.00415583      -0.00029736       0.00151164
C        3.70375654       2.13874646       3.88362123       0.00000000      -0.00416235       0.00281884       0.00561404
C        1.09458126       6.34763351       3.75802374       0.00000000      -0.00305419      -0.00102489       0.00460961
C       -0.02638598       8.50283789       3.75709549       0.00000000      -0.00677149      -0.00086525       0.00524274
C        7.39817746      -0.06761633       3.77987467       0.00000000       0.00146394       0.00342993       0.00445040
C        6.17417446       2.08701852       3.77800736       0.00000000      -0.00643684      -0.00438447      -0.00300891
C        4.95022110       4.24400208       3.75205194       0.00000000       0.00542205      -0.00054505       0.00431358
N        3.80749343       6.36545041       3.99566364       0.00000000      -0.00143170      -0.00152796       0.00345338
C        2.46303646       8.45267491       3.83545096       0.00000000       0.00098139      -0.00318684       0.00289306
C        9.85422887      -0.06304882       3.72235326       0.00000000      -0.00142484       0.00809089       0.01630379
C        8.62392913       2.08177763       3.64910311       0.00000000      -0.00358063       0.00182992      -0.00525792
C        7.38712765       4.23384715       3.65266167       0.00000000       0.00142175      -0.00304170      -0.00070022
C        6.17706078       6.39691380       3.71748586       0.00000000      -0.00161153      -0.00158929      -0.00689072
C        4.92626740       8.49745123       3.80768354       0.00000000       0.00916987      -0.00526471       0.00247895
C       -0.00803187       1.40073136       3.60406624       0.00000000       0.00397049      -0.00530159       0.00167234
C       -1.28914161       3.52407107       3.42412811       0.00000000      -0.00070172      -0.00523393      -0.00367292
C       -2.52828405       5.67465109       3.54910354       0.00000000       0.00260298       0.00423904      -0.00969567
C       -3.72622025       7.81774676       3.73138585       0.00000000      -0.00100080       0.00870698       0.00121286
C       -4.94951767       9.95634491       3.80216944       0.00000000       0.00057695       0.00284306      -0.00283727
C        2.46131717       1.40272667       3.82390433       0.00000000       0.00048220      -0.00790830       0.00065704
P        1.49912961       3.74569107       2.97619266       0.00000000      -0.00074478      -0.00028075      -0.01878278
C       -0.11873749       5.71525270       3.45747830       0.00000000       0.00320887       0.00067208      -0.01288799
C       -1.27973480       7.82860616       3.68663304       0.00000000      -0.00551650       0.00350174       0.00409715
C       -2.48463448       9.95610617       3.84305338       0.00000000       0.00701113       0.00016850      -0.00040052
C        4.93575493       1.39858592       3.85874497       0.00000000      -0.00804853      -0.00065999       0.00102325
C        3.74101774       3.56329862       3.91519404       0.00000000       0.00449567       0.01016229       0.00288175
C        1.20733904       7.74518955       3.78260443       0.00000000      -0.00620937      -0.00157223       0.00724034
C       -0.01318344       9.92201292       3.80281577       0.00000000       0.00442069      -0.00224783       0.00550364
C        7.40244161       1.36127407       3.74015811       0.00000000      -0.00312534       0.00202892      -0.00166042
C        6.17299139       3.51368212       3.71793148       0.00000000       0.00324422      -0.00520608      -0.00109264
C        4.96332847       5.69602479       3.75699001       0.00000000      -0.00203993      -0.00219243      -0.00092087
C        3.71211428       7.73249378       3.87173007       0.00000000       0.00509063      -0.00370503      -0.00904525
C        2.46118631       9.87846408       3.78082778       0.00000000       0.00042274       0.00202239       0.01073843
C        9.85746703       1.36861345       3.62747267       0.00000000      -0.00134558       0.00827952      -0.00346838
C        8.61156131       3.51509009       3.60104186       0.00000000       0.00142190      -0.00140770       0.00180920
C        7.38562445       5.66467457       3.66478267       0.00000000      -0.00158090       0.00018664      -0.01260559
C        6.16263656       7.81442361       3.77485971       0.00000000       0.01084385      -0.00139162      -0.00714807
C        4.92169816       9.92501422       3.75307637       0.00000000      -0.00492205      -0.00281804       0.01112749
Ir       2.33719383       4.97725132       4.53865035       0.00000000      -0.00824745       0.00157890      -0.00898612
O        2.42608619       6.12903805       6.29591984       1.00000000       0.00788728      -0.01239888      -0.00105223
O        3.31769885       5.17118074       6.37397028       1.00000000      -0.01493334       0.00890229       0.00039784
