49
Lattice="12.336457 0.0 0.0 -6.168228499999997 10.683685154694365 0.0 0.0 0.0 15.0" Properties=species:S:1:pos:R:3:forces:R:3 energy=-431.00359192049734 free_energy=-431.00359192049734 stress="-0.008895757471377736 -0.002372570489217025 -6.82326889115934e-06 -0.002372570489217025 -0.0045473203848707035 7.99053196112883e-06 -6.82326889115934e-06 7.99053196112883e-06 2.2560815159069583e-06" pbc="T T T"
C       -0.00544063       0.00126583       3.95417230      -0.00031895      -0.00974790       0.00701385
C       -1.27956627       2.11593752       4.20341334      -0.00015648       0.00741571      -0.00033177
C       -2.52377437       4.26740798       3.99113345      -0.00133036      -0.00037545      -0.00294546
C       -3.69917945       6.42026942       3.69654238       0.00090390      -0.00777325       0.00555905
C       -4.91790195       8.56858574       3.71153339       0.00163399      -0.00811770      -0.00203003
C        2.47154713      -0.01246349       3.90560748       0.00481300       0.00478239      -0.01022007
C        1.23615139       2.06332631       4.35638433      -0.01021058       0.01654970       0.00417636
C       -0.17525960       4.31433610       4.50691286       0.00815019      -0.00054381       0.01082111
C       -1.28777079       6.41371729       3.85965592       0.00168852       0.00219525       0.00415438
C       -2.46047565       8.54893756       3.73744877      -0.00494360       0.00679261      -0.00331331
C        4.93310422       0.00156297       3.70460274       0.00078950      -0.00162611      -0.01589315
C        3.66061989       2.09451913       3.64775279      -0.00387900      -0.00486053      -0.00967378
P        1.26950819       6.13484224       3.05125575       0.00137535       0.00451091       0.01080858
C       -0.00097250       8.53945458       3.61984136       0.00009594       0.00278346      -0.00353524
C        7.39530619      -0.00295033       3.67384323      -0.00558170      -0.00221596       0.00081439
C        6.15560716       2.13696800       3.50077795       0.00100542      -0.00388124      -0.00394406
C        5.04493153       4.32766215       3.09471053       0.00019781       0.00310843      -0.00575945
C        3.85477428       6.44275574       3.47164325       0.00457827       0.00040636       0.01130059
C        2.47156641       8.54632961       3.57461138       0.00757722      -0.00406046       0.00918941
C        9.86063010      -0.00338288       3.82254464      -0.01104288      -0.00234835       0.00313194
C        8.61383413       2.13038128       3.80031245       0.00552963       0.00266515       0.00165811
C        7.41643036       4.27881432       3.52886666      -0.00084082       0.00398717      -0.00526681
C        6.24497809       6.46159355       3.37134031      -0.00492554       0.00390941       0.00777759
C        4.96153243       8.57033825       3.61579564      -0.00296705      -0.00239210       0.00897593
C       -0.02094948       1.41025754       4.20487157      -0.00446452       0.00286814      -0.00136600
C       -1.33537691       3.54029866       4.29358620       0.00067845       0.00776807      -0.00276059
C       -2.50627477       5.69288805       3.87155280       0.00224195      -0.00546080      -0.00728351
C       -3.69363776       7.84628063       3.71109380       0.00101011      -0.00663450       0.00993965
C       -4.93453303       9.97819805       3.87424929       0.00837587      -0.00513467      -0.00876670
C        2.45972993       1.41103630       4.01881655      -0.00683295       0.00304524      -0.00501702
P        1.28132339       3.61170738       5.26737583       0.01365486      -0.01366617      -0.00319553
C       -0.12033746       5.63869892       4.03377595       0.00858385      -0.00321484       0.00596360
C       -1.23916007       7.83050348       3.70397474      -0.00476019       0.00607717      -0.00436267
C       -2.46483772       9.97319020       3.77612624       0.00203785       0.00677613      -0.00586146
C        4.92124548       1.43300489       3.60184427      -0.00002401      -0.00836702      -0.00149715
S        3.50091859       3.58427765       2.73354476       0.00340221       0.00511542       0.00244050
C        1.24322586       7.86805085       3.48115272       0.00556070      -0.00393342       0.00597667
C       -0.00240543       9.97016397       3.66017579      -0.00370128      -0.00005462       0.00085163
C        7.38261126       1.42676394       3.65519387       0.00404618      -0.00150221      -0.00492516
C        6.19645911       3.55600034       3.33512047      -0.00255507       0.00178923      -0.00180023
C        5.03131267       5.73871451       3.22286881       0.00127494       0.00517833      -0.00439453
C        3.72824743       7.83956945       3.54245939       0.00608712       0.00060125       0.00543513
C        2.46583803       9.97343705       3.69440144      -0.00750581      -0.00496518      -0.00365508
C        9.84538525       1.41521497       3.95645508       0.00455679       0.00405321      -0.01096300
C        8.61134292       3.55556727       3.77849284      -0.00117397       0.00263831       0.00344142
C        7.43036579       5.71002028       3.51702274      -0.00297086       0.00241211      -0.00247098
C        6.19825347       7.86904787       3.56101041      -0.00399359       0.00008004      -0.00755572
C        4.93841543       9.97889433       3.79991666      -0.00916233      -0.00557416       0.01249901
Ir       2.72005104       4.96655371       4.25893443      -0.00650806      -0.00105872       0.00685956
