50
Lattice="12.336457 0.0 0.0 -6.168228499999997 10.683685154694365 0.0 0.0 0.0 15.0" Properties=species:S:1:pos:R:3:forces:R:3 energy=-446.51994138599997 free_energy=-446.51994138599997 stress="-0.00911734255305804 0.0012095102514816938 1.846526484578777e-05 0.0012095102514816938 0.0014384872959478608 -3.180747422853026e-06 1.846526484578777e-05 -3.180747422853026e-06 3.80352505401415e-06" pbc="T T T"
C       -0.00023985      -0.00458930       3.74637894      -0.00214197      -0.00100851       0.00348081
C       -1.24410508       2.11350209       3.49981590       0.00419147       0.00201579       0.00002621
C       -2.50040784       4.26697917       3.53204259       0.00256702      -0.00098640       0.00329515
C       -3.71376938       6.41635861       3.73140589       0.00554194       0.00012135      -0.00357733
C       -4.93101164       8.55992843       3.85549050       0.00203970      -0.00579260      -0.00356196
C        2.47148136       0.01643120       3.86721995      -0.00991915       0.00761555      -0.00232605
C        1.25751666       2.09643947       3.51582479      -0.00118100       0.00996693       0.00081369
C       -0.13131122       4.33051518       3.17099418       0.00264857      -0.00268059      -0.00493753
C       -1.31121401       6.44883914       3.50292179       0.00672808      -0.00867317      -0.00432731
C       -2.48128703       8.56724324       3.79274711       0.00397337      -0.00079039       0.00301571
C        4.94249421       0.00175668       3.87640458       0.00071144       0.00040124       0.00326547
C        3.71783225       2.17264324       3.90947757       0.00406535       0.00196989       0.00255865
C        1.10684931       6.38051813       3.65239296      -0.00170289      -0.00654244      -0.00823832
C       -0.01087561       8.53180913       3.75603479       0.00559487      -0.00670898       0.00769231
C        7.41724885      -0.04420105       3.82855392       0.00421775      -0.00117209      -0.00472038
C        6.19691231       2.10961849       3.87926602      -0.00328080       0.00498218       0.00662710
C        4.99383469       4.27136740       3.93259396      -0.00610545      -0.00898024      -0.00390995
N        3.81937179       6.38022410       4.01822108       0.00192958       0.00820085       0.00761396
C        2.47731176       8.47115450       3.85711642       0.00245888       0.00274076       0.00000175
C        9.87054795      -0.04185905       3.75912086       0.00141653       0.00458848       0.00228680
C        8.64473367       2.10573181       3.71353916      -0.00301161      -0.00415902      -0.00261229
C        7.41824596       4.25864442       3.79361182       0.00254607       0.00263996      -0.00134434
C        6.20485171       6.42203180       3.88288198      -0.00953219      -0.00200854      -0.00577612
C        4.94129739       8.51659498       3.88037634      -0.00257863       0.00743714       0.00263974
C        0.00180966       1.41747856       3.57172848       0.00605233       0.00074611       0.00282270
C       -1.28054152       3.54617018       3.36873245       0.00632091       0.00562667      -0.00322069
C       -2.50872502       5.70165330       3.57236109       0.00488577      -0.00088874       0.00028787
C       -3.70703320       7.84593680       3.79781289       0.00632758      -0.00267501       0.00411477
C       -4.93182547       9.98527272       3.83593242      -0.00424022      -0.00635978      -0.00438478
C        2.47680393       1.43864646       3.80325441      -0.00525091       0.00437516       0.00155588
P        1.46096580       3.70896450       2.78567871      -0.00035563      -0.00129071      -0.00278738
C       -0.10608000       5.73788226       3.35007378      -0.00276189      -0.00259395       0.00518617
C       -1.26263630       7.85533489       3.68628318       0.00202865      -0.00624322       0.00489890
C       -2.46782535       9.98604387       3.87034525      -0.00547974       0.00318389       0.00155943
C        4.95227457       1.42563876       3.91148880      -0.00508873       0.00172265       0.00895707
C        3.78466929       3.59080866       3.97965101       0.00268526      -0.00175451       0.00633099
C        1.22180369       7.77477798       3.75953942      -0.00149616      -0.01269188      -0.00309598
C        0.00371507       9.94915183       3.83231868       0.00433817      -0.00313534       0.01261896
C        7.42392014       1.38462076       3.81791016      -0.00748020      -0.00009831      -0.00652410
C        6.21067301       3.53556461       3.87726573      -0.00947854       0.01223554      -0.00803324
C        5.00238599       5.70948348       3.93283657      -0.00139508       0.00716778      -0.00235018
C        3.72421434       7.75926363       3.92537674       0.01122126      -0.00020271      -0.00347289
C        2.47827784       9.90297754       3.82139951       0.00547074      -0.00688823      -0.00304874
C        9.87453219       1.39078008       3.65216309       0.00314296       0.00294483       0.00149589
C        8.63658839       3.53998464       3.68151131       0.00090805      -0.00271610       0.00372529
C        7.41392565       5.69026561       3.80585246       0.00202865       0.00678326      -0.00190081
C        6.18180273       7.83946002       3.88319251       0.00009844       0.00468747      -0.01392105
C        4.93705080       9.94405003       3.79353009      -0.00220992       0.00452198       0.01121163
Ir       2.36482970       5.01650029       4.39505194      -0.01428545      -0.01212806      -0.00595749
O        2.36984869       5.19530947       6.14845157      -0.00716323       0.00249407      -0.00405399
