51
Lattice="12.336457 0.0 0.0 -6.168228499999997 10.683685154694365 0.0 0.0 0.0 15.0" Properties=species:S:1:pos:R:3:initial_magmoms:R:1:forces:R:3 energy=-442.67844227438064 free_energy=-442.67844227438064 stress="-0.002847969785033785 -0.0012186392166541695 -2.794613209310232e-05 -0.0012186392166541695 -0.0007800987489604936 -1.8214553165100394e-05 -2.794613209310232e-05 -1.8214553165100394e-05 5.557623462376282e-06" pbc="T T T"
C       -0.08016894      -0.09034385       3.92241948       0.00000000      -0.00026008      -0.00778350      -0.00884002
C       -1.32841357       2.04974751       4.13173171       0.00000000       0.00222780      -0.00356052       0.00393342
C       -2.55567125       4.20268461       3.87548305       0.00000000       0.00358272       0.00135154      -0.00190544
C       -3.75418970       6.34213240       3.58700628       0.00000000      -0.00193074       0.00870894      -0.00302364
C       -5.00926283       8.47446921       3.58639313       0.00000000      -0.00796160       0.00265827       0.00726626
C        2.38922344      -0.10636624       3.91571981       0.00000000       0.00014113       0.00326243      -0.00340145
C        1.15677511       1.95695426       4.40679204       0.00000000      -0.00473098       0.00220149       0.00213779
C       -0.20591073       4.26696717       4.42751491       0.00000000      -0.00149846       0.00886232      -0.00483876
C       -1.33061859       6.35563809       3.91354715       0.00000000      -0.00148105      -0.00771342      -0.01069918
C       -2.53883441       8.47494310       3.74841444       0.00000000       0.00132040      -0.00970249      -0.00955720
C        4.86410322      -0.07749383       3.78981268       0.00000000      -0.00078882       0.00374763       0.00465355
C        3.60053841       2.02232365       3.85306868       0.00000000       0.00441947      -0.00006327      -0.00270875
C        1.12553114       6.33675953       4.27091204       0.00000000      -0.00768291       0.00410249       0.00184497
C       -0.06065784       8.45660392       3.85740340       0.00000000       0.00395762      -0.00233812       0.00760826
C        7.32557831      -0.07598766       3.79574949       0.00000000       0.00128844       0.00123785       0.00344314
C        6.09323507       2.06805510       3.60949619       0.00000000       0.00320575       0.00444484      -0.00072678
C        4.98190437       4.24689745       3.04377119       0.00000000      -0.01356437      -0.01048929      -0.00395661
S        3.55226793       6.42197611       2.31108385       0.00000000      -0.00634044       0.00018156      -0.00505969
C        2.40410531       8.46265308       3.70316076       0.00000000      -0.00010294       0.00111398      -0.00438581
C        9.79313364      -0.07922019       3.82733174       0.00000000       0.00110802      -0.00280628       0.00352423
C        8.55859197       2.06209715       3.79100352       0.00000000      -0.00094080      -0.00303174      -0.00453481
C        7.36129965       4.20283280       3.46442865       0.00000000      -0.00166410       0.00702838      -0.00223048
C        6.17025391       6.37703063       3.13115735       0.00000000       0.00552427       0.00093579      -0.00436925
C        4.87249505       8.49249135       3.43955966       0.00000000      -0.00108974       0.00035602       0.00281653
C       -0.09127984       1.31950854       4.19006169       0.00000000       0.00054904      -0.01141768       0.00558398
C       -1.35332136       3.48788131       4.16421585       0.00000000       0.00498185       0.00288690      -0.00363052
C       -2.54176581       5.62723482       3.79010379       0.00000000      -0.00194182       0.00126481      -0.01131445
C       -3.76586078       7.76469194       3.62839315       0.00000000      -0.00803991       0.00390118      -0.00134374
C       -5.01645308       9.88228928       3.82249224       0.00000000       0.00001186       0.00059937      -0.00197478
C        2.38726701       1.29536520       4.09273491       0.00000000       0.00297971       0.00447700       0.00220739
P        1.20600002       3.56708697       5.19449839       0.00000000       0.00711355       0.01740323      -0.00139664
C       -0.11813060       5.66374750       4.20418250       0.00000000      -0.00537992       0.00248655      -0.00692379
C       -1.30736889       7.76752542       3.82580702       0.00000000       0.00491656      -0.01090745       0.00323512
C       -2.53699631       9.89089963       3.80782504       0.00000000      -0.00083639      -0.00522328       0.00473458
C        4.85411591       1.35674947       3.73379792       0.00000000       0.00505023       0.00563194       0.00926315
P        3.35181680       3.72644314       3.43405967       0.00000000      -0.00272175      -0.01160748      -0.00508416
C        1.17754263       7.71328852       3.92220072       0.00000000       0.00288409      -0.00202981       0.00854527
C       -0.06955535       9.88641023       3.79811521       0.00000000       0.00099903       0.00251677       0.00880873
C        7.32189784       1.35273943       3.72815505       0.00000000      -0.00258093      -0.00017626       0.00332209
C        6.13162949       3.48526218       3.37555815       0.00000000       0.00238244       0.00080489      -0.00754612
C        5.02932893       5.64016105       2.81133478       0.00000000      -0.00124048      -0.00823562       0.01255897
C        3.61839735       7.85405212       3.27302112       0.00000000       0.00183298       0.00270084       0.00652255
C        2.39277233       9.88673084       3.78574254       0.00000000       0.00154620      -0.00054950       0.00184614
C        9.79018640       1.34844182       3.92822931       0.00000000       0.00052914      -0.00243011       0.00525672
C        8.56748186       3.48814934       3.71181657       0.00000000      -0.00000674      -0.00062006      -0.00224648
C        7.37441481       5.63156121       3.37787620       0.00000000       0.00348425       0.00777595       0.00124766
C        6.11174826       7.78696586       3.33951585       0.00000000      -0.00456301      -0.00009264       0.00525125
C        4.86154406       9.89397098       3.74941122       0.00000000      -0.00096747      -0.00281275      -0.00059918
Ir       2.65057404       5.18944552       5.04626766       0.00000000       0.00138571       0.00494019      -0.00443799
O        3.42213229       6.52082965       6.22423935       1.00000000       0.01383844       0.00185056      -0.00678387
O        4.61517575       6.37546663       5.72224852       1.00000000      -0.00294522      -0.00584243       0.00790783
