50
Lattice="12.336457 0.0 0.0 -6.168228499999997 10.683685154694365 0.0 0.0 0.0 15.0" Properties=species:S:1:pos:R:3:forces:R:3 energy=-446.23528762321297 free_energy=-446.23528762321297 stress="-0.003671944669360882 0.004163541234132618 -2.5066416818340223e-06 0.004163541234132618 -0.007463017406023866 4.717355956885784e-06 -2.5066416818340223e-06 4.717355956885784e-06 1.0461055497989765e-06" pbc="T T T"
C       -0.02223109      -0.00987807       3.82299930      -0.00326403      -0.00214809      -0.00356389
C       -1.22968587       2.15133078       3.88399086      -0.00680552      -0.00536559       0.00436516
C       -2.46053598       4.27355378       3.92051381       0.00429311      -0.00433868      -0.00720916
C       -3.72701341       6.39580771       3.87060167      -0.00487486       0.00328246       0.00784801
C       -4.97126185       8.52637847       3.80069006      -0.00112521       0.00807731       0.00397709
C        2.43539663      -0.03039997       3.82870401       0.00336529      -0.00579524      -0.00313783
C        1.22484441       2.11975636       3.81556209      -0.00154330      -0.00550650       0.00411094
C        0.02626039       4.31981200       3.96233877       0.00578807      -0.00337961       0.00236114
C       -1.26113405       6.41571386       4.01736218       0.00313461       0.00202050       0.00124311
C       -2.50726489       8.53156303       3.92450950       0.00137683      -0.00005876      -0.00043204
C        4.90854725      -0.02168671       3.82599721      -0.00492772       0.00097800      -0.00306329
C        3.69227444       2.05715366       3.63706377      -0.00004611       0.00361234      -0.00366300
C        2.50895433       4.15203137       3.64615215       0.00406653       0.01151112      -0.00247870
O        1.10113442       6.53855950       4.31498848       0.01363127       0.00702010       0.00603446
C       -0.06446290       8.55855949       3.91913416      -0.00109686      -0.00133672      -0.00081384
C        7.37788801      -0.00798267       3.81633833      -0.00063063       0.00199783      -0.00026839
C        6.16769542       2.09995634       3.70783934      -0.00260431       0.00564248       0.00080272
C        4.95420488       4.16490759       3.40168455      -0.00331871      -0.00031705      -0.00422242
P        4.00166215       6.53789792       1.98586928       0.00295278       0.00361648       0.00223160
C        2.38196994       8.56419278       3.64835425       0.00009669      -0.00246415       0.00312519
C        9.85178434       0.00816892       3.79045169       0.00694918       0.00080974      -0.00518621
C        8.63366141       2.13183462       3.83283290      -0.00172824      -0.00020235       0.00182112
C        7.40919455       4.25061695       3.73470683      -0.00454759      -0.00428251      -0.00550082
C        6.16497747       6.39616274       3.58680251      -0.00483380      -0.00049376       0.00136168
C        4.90977452       8.54781500       3.59868351       0.00392733      -0.00262317       0.00432144
C       -0.00845162       1.41949770       3.85739748      -0.00750727      -0.00390363      -0.00166016
C       -1.21253265       3.58482846       3.93254047       0.00355461      -0.00807191       0.00787893
C       -2.48655229       5.69153715       3.94686169       0.00088922       0.00022089      -0.00460110
C       -3.74258175       7.81706471       3.87820039      -0.00172333       0.00711164       0.00246237
C       -4.96805476       9.94846319       3.82785180      -0.00045967       0.00460738       0.00399457
C        2.44532106       1.38690835       3.76034515       0.00115677      -0.00637537      -0.00342394
C        1.25074845       3.55975451       3.82268346       0.00781578      -0.00093409      -0.00172154
C       -0.03671082       5.72883915       4.07070329      -0.00061493      -0.00134439      -0.00903821
C       -1.28502466       7.83361502       3.97909577       0.00119031       0.00334517       0.00471320
C       -2.49956425       9.95317810       3.86522881       0.00059545      -0.00579648      -0.01067519
C        4.92827111       1.38476140       3.71485940      -0.00122926       0.00463254      -0.00093478
C        3.72787126       3.46710729       3.49943288       0.00110665       0.00446067      -0.00396875
C        1.15259021       7.89860203       3.90218665      -0.00068570      -0.00690149       0.00348461
C       -0.02854648       9.97275589       3.85183149      -0.00543492       0.00054709      -0.00083191
C        7.39646149       1.41168611       3.79789630      -0.00205586       0.00363124       0.00168992
C        6.18732448       3.51542807       3.60226522      -0.00685581       0.00191321      -0.00470878
C        4.92839857       5.62544616       3.35863776      -0.00231041      -0.00319139       0.00133619
C        3.64317880       7.88352715       3.36476521       0.00172649       0.00427678       0.00706517
C        2.43697400       9.98169978       3.75646881       0.00369200       0.00202268       0.00324825
C        9.86902351       1.43128580       3.85115573      -0.00324326      -0.00037836      -0.00136347
C        8.63938194       3.55385533       3.83911915      -0.00085696      -0.00247407       0.00310466
C        7.38273854       5.68007699       3.74741527      -0.00445481      -0.00308679      -0.00775130
C        6.12837584       7.80982277       3.64859637       0.00096258       0.00044175       0.00182019
C        4.91139154       9.96826027       3.76085855       0.00310544      -0.00541500       0.00325949
Ir       3.05161312       5.99487912       3.78009095       0.00340208       0.00040575       0.00255750
