50
Lattice="12.336457 0.0 0.0 -6.168228499999997 10.683685154694365 0.0 0.0 0.0 15.0" Properties=species:S:1:pos:R:3:forces:R:3 energy=-438.3221874674374 free_energy=-438.3221874674374 stress="-0.003898583837007069 -0.0032557519013190193 -3.269066789947878e-06 -0.0032557519013190193 -0.006606346480913792 9.718807644153518e-06 -3.269066789947878e-06 9.718807644153518e-06 -7.060619142653587e-07" pbc="T T T"
C        0.00437878      -0.00460237       3.70846176      -0.00721097      -0.01122762      -0.01084276
C       -1.25314736       2.12269088       3.47088163      -0.00098131      -0.00318790      -0.00777525
C       -2.49082339       4.26941105       3.63414569      -0.00189970       0.01561806       0.00345489
C       -3.68076300       6.41560530       3.87479780       0.00051701      -0.00491564      -0.00851645
C       -4.90901541       8.55309805       3.87471686       0.00739561      -0.00578354      -0.00166797
C        2.47375229      -0.03199249       3.77477622      -0.00647368       0.00218119       0.00081280
C        1.23991713       2.03860881       3.30713849       0.00046292       0.00018101       0.00360117
C       -0.17599094       4.26591192       2.88912597      -0.01210663       0.00472206       0.00920454
C       -1.24965716       6.41557855       3.55790328       0.00728705       0.00306018       0.00537167
C       -2.44338684       8.53827367       3.81433290       0.00792318      -0.00130430       0.00102298
C        4.94369139      -0.00450319       3.94104022      -0.00552816       0.00830146      -0.00202457
C        3.64602567       2.07024525       4.04611266      -0.00138234      -0.00064401      -0.00299461
P        1.36870262       6.50921276       2.38476103      -0.00951130      -0.00767732       0.00378528
C        0.01454583       8.55431051       3.71164888       0.00157226      -0.01010543       0.00338637
C        7.40416882       0.01781519       3.92957275      -0.00380785      -0.00995817      -0.00411363
C        6.15611808       2.15086491       4.12187420       0.00225831       0.00365617       0.00041328
C        5.02563971       4.36471107       4.37484176       0.00312122      -0.00035503       0.00568395
C        3.74015578       6.45741997       4.08269074      -0.00686277       0.00768680       0.01165769
C        2.49186018       8.57916314       3.80741031       0.00404020       0.00336953      -0.00476033
C        9.87703101       0.01485944       3.82386691      -0.00023831       0.00026463       0.01171356
C        8.63011791       2.14619424       3.86359918       0.00448123       0.00155735       0.00373037
C        7.41986739       4.28854337       4.04153420       0.00227188      -0.00249438       0.00285476
C        6.21499554       6.45414933       4.06804252      -0.00779656      -0.00093669       0.00855659
C        4.96170373       8.56657307       3.92177315       0.00087155       0.00105109      -0.00206735
C       -0.00990516       1.40966387       3.47436091      -0.00047460      -0.00869044      -0.00617485
C       -1.29905554       3.53487312       3.30600576      -0.01102983       0.00572376       0.00703132
C       -2.46441199       5.69652603       3.70315035       0.00549127       0.00991058      -0.00416911
C       -3.67781840       7.83636780       3.86157794       0.00997759      -0.00673880      -0.00420126
C       -4.92881798       9.96244488       3.77370254      -0.00457117      -0.00439974      -0.00034860
C        2.44701718       1.37807156       3.70265055      -0.00037142       0.00112375      -0.00525891
S        1.32546161       3.53033175       2.38825262       0.01302570       0.00826724      -0.00756971
C       -0.06485624       5.65274640       3.20677361      -0.00164600       0.00711950       0.00242907
C       -1.21258791       7.82700204       3.69721067       0.00455314      -0.00395574      -0.00625876
C       -2.44964410       9.95712601       3.85885080      -0.00356329       0.00484862       0.00930245
C        4.92439529       1.42245468       4.07059998      -0.00053113       0.01081237      -0.00302251
P        3.45657476       3.69182406       4.58718175       0.00999306      -0.00236444      -0.00216388
C        1.27496738       7.88610940       3.57755526       0.00615528       0.00150866       0.00175815
C        0.01073424       9.97282708       3.89056423      -0.00805232      -0.00562876      -0.01343883
C        7.39384557       1.44216163       3.99215462       0.00213435      -0.00461036      -0.00423385
C        6.18879011       3.58185164       4.20141293       0.00638717      -0.00272384       0.00723566
C        4.97457349       5.77113454       4.20255345      -0.00920437       0.00103315       0.01671087
C        3.72017560       7.84928345       3.92733634       0.00036028       0.00731810      -0.00476283
C        2.47631283       9.99658817       3.88226739       0.00156182       0.00026070      -0.01143782
C        9.86994117       1.43479532       3.72797106       0.00341466      -0.00129929      -0.00239225
C        8.63204481       3.56835866       3.85812541       0.00549619       0.00537763       0.00636892
C        7.42751506       5.71499381       4.01098070      -0.00600741      -0.00433497      -0.00625302
C        6.19732878       7.86168231       3.95615075       0.00194608       0.00065564       0.00872820
C        4.94410317       9.97949449       3.81892892      -0.00708364      -0.00272291       0.00256913
Ir       1.93040804       5.43988963       4.13045344       0.00932571      -0.00561557      -0.00974853
O        2.47738960       4.26161237       5.69443402      -0.00568999      -0.00393436      -0.00118601
