52
Lattice="12.336457 0.0 0.0 -6.168228499999997 10.683685154694365 0.0 0.0 0.0 15.0" Properties=species:S:1:pos:R:3:forces:R:3 energy=-455.5087485294117 free_energy=-455.5087485294117 stress="-0.009367765951303312 0.003387008033860353 -1.6605289211318727e-05 0.003387008033860353 0.0016436232701764713 -4.5989495163784016e-05 -1.6605289211318727e-05 -4.5989495163784016e-05 6.273944959358459e-06" pbc="T T T"
C        0.05358502       0.00574807       3.77580815      -0.00831612       0.00454432       0.00310253
C       -1.18006633       2.11907034       3.87374237       0.00363309      -0.00420629      -0.00259295
C       -2.41372561       4.26566479       3.83608660      -0.00090528      -0.00552807      -0.00596067
C       -3.65278186       6.41220757       3.71069220       0.00118166       0.00069888      -0.00014459
C       -4.89181853       8.55697602       3.65337559       0.00025536      -0.00172583      -0.00462820
C        2.51601950       0.03868456       3.83340922      -0.00495906      -0.00367836      -0.00647131
C        1.29425517       2.19024306       3.89832821      -0.00192585       0.00654651      -0.01212222
C        0.00708018       4.28620002       3.95507606      -0.00632357      -0.00144226      -0.00765156
C       -1.23577732       6.43629303       3.93433296       0.00605322       0.00106825       0.00516813
C       -2.44008253       8.56763932       3.86541523       0.00168614       0.00417695      -0.01085477
C        4.99108643      -0.00025104       3.90335150       0.00428541      -0.00622655      -0.00570430
C        3.78730042       2.15942495       3.80574780      -0.00394044       0.00303661      -0.00365156
N        1.14156457       6.40966849       4.10558075       0.00794860      -0.00042476       0.00148547
C        0.02909617       8.52852794       3.98874914      -0.00623527      -0.00322535       0.01158952
C        7.46740456      -0.04192757       3.94491965       0.00339002      -0.00563510      -0.01087710
C        6.26705756       2.09047441       3.75539409      -0.00222700      -0.00015403      -0.00230578
C        5.11359335       4.20100389       3.37534857       0.00955708       0.00326992       0.01070861
P        3.53685849       6.22245784       2.72342819      -0.00336579       0.00624215       0.00373904
C        2.50842653       8.49100927       3.83926053      -0.00107567      -0.00180255      -0.00166847
C        9.92618594      -0.03915369       3.85718312      -0.00179940       0.00392526      -0.01605705
C        8.70987007       2.10303308       3.84153020      -0.00033159       0.00153346       0.00171189
C        7.50905978       4.24604154       3.60863044       0.00174765       0.00272531      -0.01551879
C        6.27107196       6.39823657       3.36017330      -0.00881485      -0.01038098       0.00368739
C        4.97643671       8.52453401       3.55908338       0.00574179      -0.00549952       0.00039016
C        0.05841609       1.43431755       3.85556887       0.00217519       0.00316499       0.01502609
C       -1.19810493       3.54762916       3.89220557      -0.00411932      -0.00890468       0.00585421
C       -2.43479538       5.69808770       3.83366533       0.00442886      -0.00175386      -0.00154406
C       -3.66213159       7.84517059       3.73865723       0.00271743       0.00431479      -0.00341938
C       -4.88111686       9.98933830       3.75159497      -0.01052231       0.00060658       0.01339282
C        2.52960334       1.46808081       3.86571976      -0.00616385      -0.00006113      -0.00029963
C        1.22484275       3.60837845       3.98282227      -0.00415137       0.00722173       0.00396578
C       -0.02293106       5.72860771       4.00008847       0.00695898      -0.00021935      -0.00311039
C       -1.21604401       7.85177941       3.94573021      -0.00519343       0.00066553       0.01870953
C       -2.42616475       9.99472195       3.87468720       0.00185204      -0.00029873      -0.01441669
C        5.01704598       1.41310132       3.82326768      -0.00371050      -0.00349215      -0.00220736
C        3.90754169       3.55861938       3.70931702       0.01204485       0.00385892       0.01014163
C        1.24579199       7.77371912       3.98902343      -0.00387703       0.00144598      -0.00536232
C        0.05167683       9.94972330       3.95594959       0.00360302      -0.00660705       0.00471736
C        7.48486859       1.37857230       3.86127508      -0.00069926      -0.00143829      -0.00496177
C        6.31410757       3.49410140       3.55087610       0.00483435       0.00335725       0.01055009
C        5.12895170       5.60633413       3.14830942      -0.00850247      -0.00363270      -0.00216416
C        3.71811640       7.83714225       3.50707228       0.00418451      -0.00288510       0.01037096
C        2.52246810       9.91951112       3.91628703       0.00284582      -0.00261119      -0.00308335
C        9.93089465       1.38944600       3.87275198       0.00247831       0.00222157       0.00271856
C        8.71601165       3.53445250       3.76816921      -0.00361227       0.00053439       0.00503475
C        7.48988984       5.68028366       3.54958970      -0.00359515      -0.00002010       0.00412842
C        6.22619689       7.83191751       3.48872697       0.00387477      -0.01142844      -0.00645852
C        4.98970709       9.95055328       3.73941529      -0.00297931      -0.00108875       0.00563626
Ir       2.66134107       4.92950954       4.32851670      -0.00007241       0.00034316      -0.00392780
O        2.70370359       4.94039817       6.23991487       0.00120382       0.00658469       0.01166864
O        1.43073581       5.45184191       6.73978154       0.01042870       0.01268440       0.00168236
H        1.45605411       5.06185247       7.64155355      -0.00169208       0.00959958      -0.00801545
