49
Lattice="12.336457 0.0 0.0 -6.168228499999997 10.683685154694365 0.0 0.0 0.0 15.0" Properties=species:S:1:pos:R:3:forces:R:3 energy=-427.4536415375212 free_energy=-427.4536415375212 stress="-0.0036363848316152696 0.00033001583111572563 -3.0020682640533944e-05 0.00033001583111572563 0.001020374829897416 -1.890003233153049e-05 -3.0020682640533944e-05 -1.890003233153049e-05 3.9204788630966194e-06" pbc="T T T"
C       -0.01375313      -0.00043297       3.76580196       0.00286138      -0.00471263      -0.00013527
C       -1.24515683       2.13941326       3.84141092      -0.00512865      -0.00055028       0.00900704
C       -2.48671792       4.27247723       4.18939915      -0.00285420       0.00297877      -0.00046316
C       -3.72174707       6.42060171       4.17347352       0.00568823      -0.00514681      -0.01214733
C       -4.95609178       8.55285692       3.91923274       0.00997771      -0.00309427      -0.00183657
C        2.45164018       0.00379799       3.81551172       0.01255685       0.00473493      -0.00403867
C        1.21363892       2.09833450       3.38730563      -0.00258809       0.00734956       0.00628461
C       -0.10213002       4.35102981       3.82718366      -0.01410803      -0.00387382      -0.00089450
C       -1.28479451       6.44166754       4.27016973       0.00500107       0.00516591      -0.00006549
C       -2.49463355       8.56430295       4.12560922      -0.00443147       0.00010941      -0.00941107
C        4.92381887      -0.01015058       3.89612078       0.00442642      -0.00434030       0.00371368
C        3.71047432       2.07689946       3.38194376      -0.00912235      -0.00338927      -0.00433309
N        1.11866711       6.40349818       3.95095201       0.00436518       0.00485257      -0.00813580
C       -0.01735322       8.52305754       4.04316449      -0.00218833       0.01043740       0.00822821
C        7.39782890      -0.03410967       3.92631526       0.00451277      -0.00149158       0.00918533
C        6.17946502       2.11240355       3.76955734       0.00521922      -0.00206292       0.00661214
C        5.14004058       4.29287035       3.22284272      -0.00660557      -0.00194411      -0.00769053
S        3.72959564       6.42441891       2.30922547      -0.00997936      -0.01225423       0.00955989
C        2.45471532       8.48519551       3.72316833      -0.00262722      -0.00507785      -0.00159251
C        9.85423297      -0.02325081       3.83701854      -0.01160510       0.00111236       0.00903228
C        8.63182850       2.11934679       4.00682461      -0.00002662       0.00234605      -0.00101211
C        7.41804085       4.26652974       3.98943133       0.01507377       0.00723256      -0.00013034
C        6.23326805       6.42783307       3.63804095       0.00001552       0.00441915      -0.00666787
C        4.92374992       8.53430532       3.60649424      -0.00846921      -0.00465109       0.00201765
C       -0.01202146       1.43615393       3.67047470      -0.00051920       0.00113880       0.00523279
C       -1.26286605       3.56142491       3.99651647      -0.00991203      -0.00344241       0.01505084
C       -2.49602798       5.70283877       4.26603456       0.00600873       0.00293807      -0.00556828
C       -3.72598826       7.84685792       4.10157293       0.00359628      -0.01019850      -0.00733103
C       -4.94994483       9.98024756       3.84475805       0.01519987      -0.00067963       0.00200761
C        2.45416640       1.42387681       3.51215957      -0.00596159       0.00281557      -0.00147616
S        1.08990560       3.73472649       2.69362564      -0.00189761       0.00542118      -0.00513306
C       -0.05855324       5.73866758       4.08346282       0.01075596      -0.00451024       0.00151167
C       -1.26030745       7.85086796       4.18572505      -0.00510602       0.00756617      -0.00054807
C       -2.48688052       9.98207461       3.95893423       0.00634604      -0.00095657      -0.00023309
C        4.93530892       1.41143101       3.68256494      -0.00086584      -0.00516922      -0.00007568
S        3.80571926       3.52645132       2.37592265      -0.01039927      -0.01251636       0.00433125
C        1.20627304       7.76422675       3.91053766      -0.00045294       0.00560513       0.01031946
C       -0.00941217       9.94695701       3.96400991       0.00452927       0.00463670       0.00212659
C        7.39699549       1.39948361       3.92691598       0.00429855      -0.00308611       0.00602949
C        6.23287364       3.53108840       3.70580426       0.01275466       0.00302179      -0.00782574
C        5.14381983       5.67621960       3.13748437       0.00397490      -0.00072584      -0.00180877
C        3.67663236       7.85392726       3.38845969      -0.00719307      -0.00237775      -0.00596335
C        2.45736239       9.93033560       3.85946712      -0.00285975      -0.00639708       0.00553232
C        9.86746600       1.41297453       3.92293905      -0.00587704       0.00363863       0.00756807
C        8.63255677       3.54588492       4.11210761       0.00845654       0.00166216      -0.00238953
C        7.41280737       5.69712038       3.98097541       0.00259219       0.00582601      -0.00605225
C        6.16911416       7.84311116       3.71120581       0.00077054       0.00537229      -0.01422328
C        4.91941772       9.96041471       3.75770549      -0.01129071      -0.00264475       0.00752980
Ir       2.68034923       4.97829001       3.58915749      -0.00691238       0.00491245      -0.01369813
