50
Lattice="12.336457 0.0 0.0 -6.168228499999997 10.683685154694365 0.0 0.0 0.0 15.0" Properties=species:S:1:pos:R:3:forces:R:3 energy=-434.35582824290384 free_energy=-434.35582824290384 stress="-0.006059005631579709 0.0014305017133890276 -1.3778082948846606e-05 0.0014305017133890276 -0.0006378394435545917 2.0207254187475974e-05 -1.3778082948846606e-05 2.0207254187475974e-05 -2.9718114803530247e-05" pbc="T T T"
C       -0.02168241      -0.00922894       3.87434083       0.00264883      -0.00120952      -0.00230536
C       -1.25356154       2.13124877       3.95442090      -0.00123146      -0.00279366      -0.00485590
C       -2.50917901       4.27307873       4.21196962      -0.00246949      -0.00127099       0.00559526
C       -3.73390848       6.41536575       4.12247335       0.00099858       0.00111971       0.00925070
C       -4.96817034       8.54334543       3.92483403      -0.00029884      -0.00674618      -0.00020156
C        2.44667768      -0.00258120       3.85474966      -0.00715640       0.00302515      -0.00414953
C        1.20616471       2.07822970       3.50159808      -0.00392699       0.00746419       0.00333308
C       -0.15139569       4.35496445       3.87038962      -0.00001771      -0.00335573       0.00304833
C       -1.30511056       6.44520352       4.25647159      -0.00417593      -0.00511397       0.00601310
C       -2.50548059       8.56216845       4.12480265       0.00323583       0.00662733      -0.00098450
C        4.91962124      -0.01141223       3.88818913       0.00094402      -0.00407579       0.00254975
C        3.70786657       2.04463437       3.31757217       0.00017896      -0.00367924      -0.00309442
N        1.09887410       6.40198506       3.91309150      -0.00367129       0.00733917       0.00054379
C       -0.02687827       8.52326692       4.05180163      -0.00014116      -0.00192678       0.00316562
C        7.38767559      -0.03254168       3.95637741       0.00028822       0.00236636      -0.00212734
C        6.18416042       2.10638624       3.65839852      -0.00687834       0.00367144       0.00839123
C        5.21726142       4.28142642       2.93079946       0.00095673       0.00256737       0.00223936
S        3.67370460       6.43292768       2.42923647      -0.00994162       0.01446130      -0.00794379
C        2.44259476       8.49496461       3.78551538       0.00363519      -0.00675816      -0.00254506
C        9.84818019      -0.02902478       3.93949075      -0.00183839      -0.00407909       0.00345528
C        8.62209754       2.11610815       4.01733277      -0.00045809       0.00296394       0.00462225
C        7.42223809       4.26144327       3.85571765       0.00168730       0.00163656       0.00256424
C        6.23640653       6.42022598       3.51609463       0.00612765       0.00251472      -0.00072726
C        4.91293748       8.53068630       3.66451642      -0.00070965       0.00174351      -0.00555215
C       -0.01637343       1.42722216       3.80088358      -0.00123718       0.00041406      -0.00014163
C       -1.28392426       3.55886052       4.07585529      -0.00417520      -0.00322708      -0.00303127
C       -2.51533284       5.70139825       4.25538186      -0.00333287      -0.00425829       0.00562720
C       -3.73601639       7.84107554       4.08172645       0.00531110       0.00149187       0.00173221
C       -4.95836069       9.97252848       3.90568504      -0.00093838      -0.00638574      -0.00278485
C        2.45376914       1.40606521       3.55760444      -0.00540917       0.00489674      -0.00232900
S        1.10793090       3.71199017       2.88901360      -0.00019410      -0.00337651      -0.00465110
C       -0.09563477       5.74659593       4.06720775       0.00304384       0.00028770       0.00895475
C       -1.27587583       7.85501858       4.18305573       0.00099811      -0.00420986       0.00487207
C       -2.49034088       9.97904278       3.97190595      -0.00371171       0.00745311      -0.00510310
C        4.93419082       1.40288208       3.61662863      -0.00015778      -0.00582455       0.00336304
S        3.75935731       3.51477698       2.35727977      -0.00168703       0.00339727      -0.00823834
C        1.18808439       7.77078531       3.91890505       0.00432441       0.00412649      -0.00096252
C       -0.01718173       9.94922955       3.97691419       0.00173444      -0.00256479       0.00243150
C        7.38819929       1.39985832       3.90311755      -0.00227997       0.00668828      -0.00055821
C        6.25942832       3.52433635       3.48758932      -0.00037041       0.00143814       0.00448065
C        5.18986307       5.67321766       2.94908674       0.00695499       0.00492736      -0.00293800
C        3.66832142       7.87352103       3.44081815       0.00263897      -0.00582857      -0.00819630
C        2.44741041       9.92825533       3.93380135      -0.00063921      -0.00495053      -0.00603357
C        9.85957003       1.40721666       4.00983771      -0.00214635      -0.00294405       0.00120759
C        8.61978733       3.54325408       4.08200305      -0.00014711       0.00139885       0.00424944
C        7.41275721       5.69107052       3.86716224       0.00542978      -0.00002150       0.00052116
C        6.16032039       7.83439898       3.69546145      -0.00410356       0.00123430      -0.00720829
C        4.91158151       9.95291190       3.86330466       0.00069621       0.00191326      -0.00169832
Ir       2.68464809       4.99680824       3.85053466       0.01098133      -0.00896117      -0.01176668
O        3.05046973       5.16164754       5.56394085       0.01063092      -0.00360644       0.00791645
