51
Lattice="12.336457 0.0 0.0 -6.168228499999997 10.683685154694365 0.0 0.0 0.0 15.0" Properties=species:S:1:pos:R:3:initial_magmoms:R:1:forces:R:3 energy=-438.9700473303039 free_energy=-438.9700473303039 stress="-0.005918622166051536 0.0010026065488216796 -1.116757240003659e-05 0.0010026065488216796 -0.000725137295427418 -2.003562185352102e-06 -1.116757240003659e-05 -2.003562185352102e-06 3.886417031751011e-06" pbc="T T T"
C       -0.00922041      -0.02226143       3.87220593       0.00000000       0.00348370       0.00561132       0.00798117
C       -1.24542068       2.11554740       3.91188224       0.00000000       0.00426105       0.00030573       0.00412545
C       -2.49406791       4.25819930       4.18919423       0.00000000       0.01050053      -0.00527166       0.01083508
C       -3.71985592       6.40173546       4.15556291       0.00000000       0.00960481      -0.00320245       0.00357170
C       -4.95418707       8.53126238       3.95309377       0.00000000       0.00389507       0.00236271       0.00217199
C        2.45849792      -0.01411518       3.86398612       0.00000000       0.00535358      -0.00129536       0.00605141
C        1.21430290       2.05732367       3.46091056       0.00000000      -0.00607997       0.00629363      -0.00005080
C       -0.15579592       4.33858432       3.71894450       0.00000000      -0.01218573      -0.00235957      -0.00288628
C       -1.28627800       6.42514771       4.20202120       0.00000000       0.00262332       0.01083672      -0.00198235
C       -2.49021256       8.54698728       4.13233869       0.00000000       0.00150401       0.00950920       0.01345732
C        4.93021230      -0.02522796       3.89900728       0.00000000      -0.00243992      -0.00285144       0.00196167
C        3.71834735       2.03583096       3.33276311       0.00000000      -0.00723804      -0.01678128      -0.00484886
N        1.10683665       6.38877260       3.80578250       0.00000000      -0.00458433      -0.00513872      -0.01310881
C       -0.01319973       8.50655812       4.01778040       0.00000000       0.00009922       0.00142393      -0.00597781
C        7.39890668      -0.04766598       3.95033007       0.00000000      -0.00266060      -0.00762734      -0.00232159
C        6.19104301       2.09371170       3.70190625       0.00000000      -0.00566441       0.00049084       0.00354461
C        5.22144851       4.27294791       2.99602772       0.00000000      -0.00132306       0.00036877       0.01004800
S        3.74795995       6.44805874       2.36595520       0.00000000       0.00163150      -0.00231403       0.00823135
C        2.45784116       8.48324133       3.72726014       0.00000000       0.00480342      -0.00821505      -0.00554725
C        9.85877179      -0.04315950       3.92464863       0.00000000       0.00172414       0.01452241       0.00901508
C        8.63267145       2.10145476       4.02764142       0.00000000      -0.00152937       0.00205384       0.00635010
C        7.42722030       4.24819145       3.91664551       0.00000000       0.01328839       0.00193459      -0.00725670
C        6.24560850       6.40639791       3.57881328       0.00000000      -0.01082696       0.00060210       0.00162682
C        4.92814197       8.52058565       3.66430468       0.00000000      -0.00696240       0.00303601      -0.01161123
C       -0.00729348       1.41089009       3.77221664       0.00000000       0.00094832       0.00536597      -0.00341451
C       -1.27287152       3.54663991       3.99962807       0.00000000      -0.00258143      -0.00897292      -0.00261243
C       -2.49800141       5.68563014       4.24249612       0.00000000       0.01292499      -0.00254854       0.00416321
C       -3.72159764       7.82742435       4.10834831       0.00000000       0.00691959       0.00135054       0.00197417
C       -4.94540606       9.96042068       3.91736950       0.00000000       0.00586532       0.00387754       0.00393178
C        2.46406139       1.39327166       3.55332886       0.00000000      -0.00764546      -0.00589309       0.00089305
S        1.09798273       3.64870729       2.74913424       0.00000000      -0.01489339      -0.00133967      -0.01216817
C       -0.08713896       5.72850172       3.93695270       0.00000000      -0.00380984      -0.00172279       0.00475288
C       -1.25979364       7.83727215       4.16240814       0.00000000      -0.00078165       0.01203917      -0.00488299
C       -2.47857315       9.96533803       3.98252303       0.00000000       0.00345326       0.00159204      -0.00068551
C        4.94224478       1.39187847       3.64454020       0.00000000      -0.00523131      -0.00898720      -0.00698844
S        3.78657383       3.50056440       2.36016699       0.00000000       0.00921694       0.00989991       0.00376100
C        1.19928451       7.75462351       3.84178705       0.00000000       0.00346190      -0.00530892       0.00092996
C       -0.00509159       9.93353149       3.96779441       0.00000000      -0.00568601      -0.00196110       0.01592290
C        7.39847362       1.38527825       3.92391069       0.00000000      -0.00508452      -0.00336010      -0.00103153
C        6.25759440       3.51443472       3.56388957       0.00000000       0.00721166       0.00242094      -0.00383937
C        5.20656655       5.66020196       2.99916487       0.00000000      -0.00528526       0.00081432      -0.00750573
C        3.69037015       7.87207972       3.39690305       0.00000000      -0.00046060      -0.01787090      -0.00204288
C        2.45859468       9.91191018       3.90711477       0.00000000       0.00555857      -0.00113745      -0.00731866
C        9.86956380       1.39230876       3.99592359       0.00000000       0.00180543       0.01300767      -0.00594369
C        8.63069277       3.52822016       4.10336037       0.00000000       0.01050002      -0.00041241       0.00874967
C        7.42165993       5.67729494       3.92757276       0.00000000       0.00237230       0.00234780      -0.00186605
C        6.17493831       7.82337466       3.72486210       0.00000000      -0.00667235       0.00443212      -0.00047975
C        4.92389002       9.94121574       3.85803132       0.00000000      -0.00197079       0.00710200       0.00737191
Ir       2.64379594       5.00130054       3.64556584       0.00000000      -0.00216381      -0.00284916      -0.01288470
O        2.11899400       4.90473835       5.93113006       1.00000000      -0.00315074      -0.00226115      -0.01080704
O        3.01756968       5.80570361       5.56103215       1.00000000      -0.00609908      -0.00391956      -0.00135911
