49
Lattice="12.336457 0.0 0.0 -6.168228499999997 10.683685154694365 0.0 0.0 0.0 15.0" Properties=species:S:1:pos:R:3:forces:R:3 energy=-425.4153934569213 free_energy=-425.4153934569213 stress="-0.002571598074037323 -0.0008236775503367839 -2.744887648043347e-06 -0.0008236775503367839 -0.0043566300247324915 -1.205676299626422e-06 -2.744887648043347e-06 -1.205676299626422e-06 -7.205244910313966e-07" pbc="T T T"
C        0.01869640      -0.01972277       3.71077691      -0.00440948       0.00790012      -0.00462023
C       -1.21956433       2.12137402       3.60678592      -0.00743622       0.00998432       0.00178098
C       -2.44452331       4.25975280       3.80225000       0.00439295      -0.00018058      -0.00130289
C       -3.65889601       6.40267049       3.96695023       0.00434138      -0.00203046      -0.01129631
C       -4.91998431       8.52497259       3.84499760       0.00410752      -0.00184129      -0.01157125
C        2.48379159      -0.03638890       3.85159576       0.00604217      -0.00521247       0.00233132
C        1.27689061       2.06079502       3.42257068       0.00300960      -0.00540282       0.00005687
C       -0.11905697       4.28453479       3.01704395       0.00242216      -0.00458217       0.00231909
C       -1.25460656       6.43049493       3.55448209      -0.00747884       0.00351445       0.00022376
C       -2.44048906       8.53577776       3.85402304       0.00189632      -0.00127018      -0.00469773
C        4.95135525      -0.00391022       4.01603334      -0.00263650       0.00068892      -0.00258165
C        3.66802298       2.06676075       4.19810019       0.00587010       0.00714999       0.00625293
S        1.05390062       6.59921971       2.07025972       0.00853201      -0.00081644      -0.01065160
C        0.00966028       8.56524226       3.61302289       0.00018157       0.00591669       0.00527901
C        7.41982022       0.00630019       3.93149275       0.00005459      -0.00715972       0.00665563
C        6.19382297       2.12559272       4.28648331      -0.00364225      -0.00328502      -0.01081341
C        5.03977631       4.32620940       4.46007276      -0.00695663      -0.00661499      -0.00284355
S        3.72393465       6.20270409       3.06832026      -0.00570399      -0.00096389       0.00855303
C        2.47488280       8.57465134       3.47524503       0.00313457       0.00479369      -0.00861900
C        9.88926835      -0.00391315       3.78684567       0.00322662      -0.00157486      -0.01193595
C        8.66725622       2.12797014       4.01022721      -0.00399054      -0.00493367      -0.01107970
C        7.45924201       4.26327442       4.20424482       0.00175285       0.00633492       0.00591505
C        6.23920106       6.41031016       3.97354280      -0.00397423       0.00497611       0.00399143
C        4.95118949       8.52924185       3.67498722      -0.00287361      -0.00092471       0.00037441
C        0.02103470       1.40242985       3.55371140      -0.00970304       0.01096849      -0.00453287
C       -1.25743882       3.53738394       3.49484669       0.00424919       0.00444172       0.01365550
C       -2.44074030       5.68941857       3.81471192       0.00040770      -0.00389570      -0.00463652
C       -3.67471070       7.82111201       3.89802495       0.00554415      -0.00404704       0.00215408
C       -4.91904458       9.94697545       3.78602010      -0.00156083       0.00178884       0.00570387
C        2.48171533       1.38535181       3.81582823       0.01135097      -0.00292135      -0.00043143
P        1.38680773       3.51249013       2.33261152      -0.00444714      -0.00445457       0.00215599
C       -0.13840233       5.70453187       3.04032960      -0.01230157      -0.00213515       0.00338208
C       -1.21843103       7.83796570       3.66779099      -0.00018781       0.00643269       0.00137658
C       -2.44461772       9.95874483       3.92202350       0.00288556      -0.00472112       0.00592582
C        4.93921382       1.41927859       4.20398997      -0.00075122      -0.00044018      -0.00464571
P        3.40454935       3.72376954       4.83140201       0.00416862       0.00271181       0.00060831
C        1.22591959       7.91204596       3.27567183       0.00071299       0.00437827      -0.00011833
C        0.01641356       9.97876608       3.88619593      -0.00268511       0.00090616       0.01258580
C        7.42475562       1.42298817       4.10893916      -0.00413870      -0.00828089      -0.00296009
C        6.23273891       3.54984113       4.38042318      -0.00222911      -0.00069556       0.00369454
C        5.06266691       5.64322392       4.01210685      -0.00136707      -0.00598262      -0.00329484
C        3.70986960       7.88638379       3.45511483      -0.00162435      -0.00505341       0.00224782
C        2.48048554       9.98696100       3.76355783       0.00437860      -0.00144749      -0.00020818
C        9.89525834       1.42073892       3.82247784      -0.00198808      -0.00130478      -0.00468454
C        8.67781887       3.55008755       4.03838538       0.00446658      -0.00012358       0.00883442
C        7.46184899       5.68666671       4.08969159       0.00011513       0.01010358       0.00722899
C        6.18976468       7.81564330       3.79676156      -0.00225691       0.00424340       0.00324782
C        4.95159681       9.96218799       3.72609239       0.00144232      -0.00144764       0.00284474
Ir       1.94472917       5.06964792       3.83765619       0.00565700      -0.00348982      -0.00185410
