50
Lattice="12.336457 0.0 0.0 -6.168228499999997 10.683685154694365 0.0 0.0 0.0 15.0" Properties=species:S:1:pos:R:3:forces:R:3 energy=-432.45220426944525 free_energy=-432.45220426944525 stress="-0.0044648539625105794 -0.0019540365142091116 -2.1041223530027367e-05 -0.0019540365142091116 -0.005215727186091162 -1.6282469076936759e-06 -2.1041223530027367e-05 -1.6282469076936759e-06 -1.360741584543245e-05" pbc="T T T"
C        0.00480829       0.00053709       3.73710879       0.00798800       0.00253776      -0.00633407
C       -1.24641730       2.13195333       3.58638441      -0.00074303       0.00135578       0.00016506
C       -2.47674718       4.27151148       3.77398230       0.00295404      -0.00587542       0.00408244
C       -3.67317167       6.41841126       3.97946270       0.00294762      -0.00557716      -0.00253570
C       -4.92811108       8.54452486       3.86786004      -0.00131025      -0.00003845       0.00576368
C        2.46952319      -0.02374137       3.88656837      -0.00127351      -0.00147259      -0.00333896
C        1.25836659       2.07566377       3.43703084      -0.00049209       0.00076743      -0.00689287
C       -0.19471990       4.28636485       2.91302641      -0.00731169       0.01154368      -0.00613334
C       -1.27441832       6.43713216       3.55829780      -0.00027407       0.00033885      -0.00253246
C       -2.45043333       8.54657674       3.88336179       0.00127369       0.00458284       0.00396128
C        4.94020888       0.00211642       4.05352032      -0.00525825       0.00130352       0.00022725
C        3.64664634       2.06527654       4.25255876      -0.00139438      -0.00661078       0.00939318
S        1.07554264       6.59666715       2.12126917      -0.00740118      -0.00874676      -0.01182259
C        0.00125411       8.56541019       3.66620200       0.00534645       0.00047809       0.00768181
C        7.40465093       0.01491986       3.96610695      -0.00942734       0.00474034       0.00728793
C        6.17264570       2.14012346       4.30003201       0.00792817      -0.00076769       0.00634600
C        5.03876025       4.36016881       4.45006089       0.00021658      -0.00334580      -0.00546527
S        3.74481735       6.25129294       2.99193820      -0.01305587      -0.00046533      -0.00339197
C        2.46954155       8.58568145       3.52544915      -0.00105063       0.00177666      -0.00660418
C        9.87354578       0.01154915       3.81262199       0.00031931      -0.00634003      -0.00390168
C        8.64399216       2.13967073       4.01026970       0.00443007       0.00434167      -0.00111421
C        7.44336010       4.27894992       4.21424663      -0.00086511       0.00122281       0.00342204
C        6.23287429       6.43325525       3.97628235      -0.00113260       0.00286835      -0.00400900
C        4.94594719       8.55367733       3.69861164      -0.00460631      -0.00426660       0.00266493
C        0.00261822       1.42162664       3.56318227      -0.00048207       0.00510203      -0.00480202
C       -1.30038549       3.54580193       3.42761207       0.00400497       0.00257378       0.00166459
C       -2.46324295       5.69972505       3.80728283       0.00282570      -0.00967456      -0.00130760
C       -3.68525925       7.83711768       3.91936738       0.00146851      -0.00096076       0.00759641
C       -4.93321139       9.96511585       3.81591294       0.00299435      -0.00067838       0.00324452
C        2.45566953       1.39328210       3.84990270      -0.00173348      -0.00360783       0.00375175
P        1.37995281       3.56971251       2.40040146      -0.00492827      -0.00091847       0.00127007
C       -0.17697331       5.70090254       3.02682343       0.00414960       0.01033952      -0.00404960
C       -1.22841757       7.84401726       3.70286002       0.00301377       0.00099954      -0.00028143
C       -2.45637086       9.96825157       3.95969138      -0.00409331       0.00442319       0.00316872
C        4.92494664       1.42477952       4.23712165       0.00376570      -0.00265362       0.00411270
P        3.41904329       3.73438362       4.73161780       0.00870550       0.01217603      -0.00099539
C        1.22500372       7.90575814       3.35087684       0.00517477      -0.00034028      -0.00097017
C        0.00556481       9.98133674       3.92790576      -0.00713089       0.00130324       0.01221079
C        7.40446389       1.43444185       4.12440988       0.00600162       0.00499271       0.00358420
C        6.21784453       3.56737927       4.38406163       0.00199826      -0.00389264      -0.00118148
C        5.06050509       5.67068597       3.97494573       0.00336694      -0.00260077      -0.00466601
C        3.70725804       7.91252783       3.47250300      -0.00557544      -0.00702909       0.00098873
C        2.46775231       9.99944807       3.80310560      -0.00858897       0.00223724      -0.00207633
C        9.87420925       1.43453498       3.82377007       0.00059757      -0.00323818      -0.00087968
C        8.65542750       3.56189729       4.03344314       0.00129121       0.00229984       0.00667727
C        7.44988982       5.70382292       4.10643425      -0.00059875       0.00007969      -0.00617317
C        6.18451655       7.83987415       3.81192321      -0.00499470       0.00354315       0.00461466
C        4.93956716       9.98377263       3.75713271       0.00724634      -0.00271266      -0.01106258
Ir       1.94964955       5.23830838       3.86653690       0.00499744      -0.00573577       0.00652048
O        2.61963400       4.22199915       5.94504374      -0.00128402      -0.00037810      -0.00787873
