52
Lattice="12.336457 0.0 0.0 -6.168228499999997 10.683685154694365 0.0 0.0 0.0 15.0" Properties=species:S:1:pos:R:3:forces:R:3 energy=-441.40802591340264 free_energy=-441.40802591340264 stress="-0.0021125502632790413 0.0011193222708869527 -1.3556239363261696e-05 0.0011193222708869527 -0.006249463101980121 8.970803396646385e-06 -1.3556239363261696e-05 8.970803396646385e-06 -1.4582696104146346e-05" pbc="T T T"
C        0.11348480      -0.03969447       3.76613517       0.01412945      -0.00291120      -0.01328140
C       -1.11632433       2.10754691       3.55919282      -0.01052743       0.00672889      -0.00986189
C       -2.38072854       4.23870094       3.47454661      -0.00670437       0.00464716      -0.00198899
C       -3.59928397       6.36710250       3.67090831      -0.01362357       0.01081493      -0.02026561
C       -4.83741463       8.49009876       3.82644566      -0.00009370      -0.00344815       0.00208484
C        2.58063749      -0.09137676       3.88079858      -0.00321841       0.00385474      -0.00777408
C        1.37730839       2.03749216       3.77312822       0.00939864      -0.00666699       0.01412078
C        0.00404672       4.27156053       3.02722345       0.00758271      -0.01235172      -0.00389018
C       -1.18324175       6.40279504       3.17713497      -0.00528331      -0.00516952       0.00028477
C       -2.35450415       8.49354363       3.61734315       0.00885035       0.01100894       0.00147488
C        5.05135338      -0.06091942       3.89570181      -0.00997995       0.00017119       0.00425346
C        3.80502310       1.96471554       4.38479928       0.01188414       0.00678095      -0.00865218
S        1.48095070       6.43657148       2.46077848      -0.00320723       0.00972231      -0.00597698
C        0.10468508       8.51887759       3.48762713       0.00673906       0.00033215      -0.00950756
C        7.50865278      -0.02510022       3.78929317      -0.00541204      -0.00175966       0.01214216
C        6.29882514       2.08209256       4.13619096      -0.00020196       0.00483923       0.00234766
C        5.21156914       4.26181753       4.67079756      -0.00902410      -0.01227255       0.00044150
S        3.77750819       6.48332334       5.14742732       0.00885773       0.00546974       0.01438082
C        2.56866752       8.54171814       3.77672262       0.01146526      -0.00228151      -0.03154088
C        9.98704042      -0.01863176       3.76903703       0.00565661      -0.00113144      -0.00078582
C        8.75075348       2.10657814       3.76452103      -0.00625689      -0.01177396      -0.00731276
C        7.53596183       4.23263424       3.96445706       0.00490362      -0.00749493      -0.00904938
C        6.32422254       6.38589468       4.16733254      -0.00065318       0.00238870       0.01778133
C        5.04166581       8.51974055       3.98924452      -0.01735038       0.00008474      -0.00500721
C        0.12289936       1.39061977       3.66979579       0.00347088       0.00416472       0.00345725
C       -1.15083780       3.52083859       3.34388120      -0.00667093       0.00775080       0.00836806
C       -2.38968754       5.66252403       3.42381283      -0.01335125       0.00716418       0.00597161
C       -3.59876082       7.78531904       3.69327287       0.00963251       0.00905226       0.00906969
C       -4.83265854       9.91215215       3.80646615       0.00640243      -0.00582196       0.00194707
C        2.57933066       1.30902787       4.03245148       0.00946212       0.00076940       0.01071574
P        1.66867770       3.72000169       3.32160201       0.01207035       0.01986679      -0.00899064
C       -0.03451071       5.66823849       2.85498547      -0.00278757      -0.00880708       0.01487372
C       -1.13407802       7.80754256       3.38838630       0.00851932      -0.00041316      -0.00458431
C       -2.34688268       9.90363253       3.80826960      -0.00931600       0.00661700       0.01884728
C        5.06280350       1.34372702       4.17021031       0.00471180       0.00099966       0.00746294
P        3.71456111       3.50640345       5.25103250      -0.01574955      -0.01718133      -0.00367080
C        1.35523469       7.87430429       3.39177241       0.01694331      -0.00241320       0.00209401
C        0.11150955       9.93278305       3.74051493      -0.00856308      -0.00321638       0.00376422
C        7.51538648       1.39489205       3.89619988      -0.00634363      -0.00076801       0.00826514
C        6.34314382       3.50698597       4.26232617       0.00098408       0.00136472       0.00017609
C        5.19897819       5.65859482       4.59842668      -0.00062613      -0.01450677      -0.00252791
C        3.78685352       7.87677528       4.13694880      -0.01797325      -0.00873034      -0.00731358
C        2.57848866       9.95963473       3.77122929       0.00237615       0.00368827      -0.01476468
C        9.98999528       1.40389206       3.68365227      -0.00532611      -0.00400253       0.00801702
C        8.74788133       3.52720898       3.72638808       0.00467255      -0.01258243       0.01192128
C        7.53188263       5.65531391       3.92894141      -0.00684968      -0.00220654      -0.01368931
C        6.27501845       7.79619032       4.01528759      -0.01382708       0.00639426       0.00318678
C        5.04615817       9.94524548       3.80824578       0.00909954       0.00073850       0.00079990
Ir       2.04627826       4.80221925       5.41158533       0.00410000       0.00205367      -0.00335766
O        0.79964892       6.37494727       5.85143310       0.00979692      -0.00005379       0.01186083
O        0.14170387       5.16817340       6.29838941      -0.00017265       0.01020468      -0.01510832
H        0.29491275       5.17481955       7.26940227       0.00738389       0.00029259       0.00879132
