50
Lattice="12.336457 0.0 0.0 -6.168228499999997 10.683685154694365 0.0 0.0 0.0 15.0" Properties=species:S:1:pos:R:3:forces:R:3 energy=-442.0867048948637 free_energy=-442.0867048948637 stress="0.004621607569625839 -0.0010890302922770619 -3.8619748069838744e-06 -0.0010890302922770619 0.0004782258841765839 3.085767297732009e-06 -3.8619748069838744e-06 3.085767297732009e-06 9.616632400038697e-06" pbc="T T T"
C       -0.00927205      -0.01767156       3.73320458      -0.00218660      -0.00182132      -0.00238113
C       -1.23736237       2.13243151       3.74574302       0.00221839      -0.00122925       0.00783915
C       -2.46792416       4.25949874       3.66941758       0.00144341      -0.00355034       0.01248105
C       -3.71224878       6.38806868       3.60089996       0.00005538      -0.00642579       0.00435733
C       -4.95050983       8.51893771       3.63683190       0.00246249      -0.00253274      -0.00135114
C        2.45870062      -0.05515778       3.74755320      -0.00072037      -0.00805906      -0.00570624
C        1.24372272       2.08459973       3.82743045       0.00526887      -0.00220772      -0.01499165
C        0.04034584       4.29348424       3.81154678      -0.00531028      -0.00025873      -0.00405959
C       -1.24756844       6.40496857       3.69892446       0.00446815       0.00577139      -0.00122342
C       -2.47136542       8.51900319       3.67674029      -0.00103246       0.00245482      -0.00192781
C        4.92483498      -0.02044042       3.75306685      -0.00029068      -0.00074742       0.00106991
C        3.66181825       2.10164717       3.81616806       0.00473757      -0.00737768       0.00942382
N        1.13282225       6.42137907       4.13371221      -0.00385478       0.00280578       0.00294011
C        0.00268417       8.51649520       3.78764957      -0.00185366       0.00724392      -0.00062169
C        7.39335970      -0.01715289       3.76746452      -0.00203995       0.00259261       0.00703225
C        6.13668766       2.14503588       3.72951810      -0.00341713      -0.00045731      -0.00176857
C        4.84271444       4.32369453       3.68214730      -0.00064009       0.00320658       0.00588221
O        3.76615883       6.47438824       3.53037143       0.00356462       0.00174423      -0.00019078
C        2.47078496       8.48629263       3.82469763       0.00560221      -0.00207712       0.00305950
C        9.85355441      -0.01761894       3.74420071       0.00049900       0.00101117       0.00630005
C        8.61807371       2.12969281       3.70808476      -0.00116677       0.00165335      -0.00167325
C        7.36475299       4.26292912       3.62960877      -0.00972138       0.00156974       0.01165459
C        6.15653385       6.40672716       3.55687992      -0.00724716       0.00527135       0.00038525
C        4.92612936       8.53712009       3.67195772       0.00739401       0.00141529       0.00983173
C       -0.00270896       1.41460174       3.77620580       0.00228543      -0.00193152      -0.01023883
C       -1.20547924       3.56386307       3.73366662      -0.00020374      -0.00392761       0.00108447
C       -2.47354907       5.67960848       3.64130528       0.00689572      -0.00274358       0.00215427
C       -3.70875115       7.80916461       3.62598919       0.00162244      -0.00455363       0.00017994
C       -4.94858241       9.94056849       3.70735965      -0.00252163      -0.00385602      -0.00685010
C        2.45612848       1.36158054       3.80947299       0.00398390      -0.00729072       0.00023581
B        1.44106290       3.59954697       3.88787148      -0.00921405       0.00341487      -0.00530627
C       -0.01112126       5.72615146       3.85186475      -0.00003170       0.00038849      -0.00657745
C       -1.23663084       7.81510140       3.71346801      -0.00033066       0.00800733      -0.00029777
C       -2.46953266       9.93835075       3.72520891       0.00068689      -0.00063454      -0.00068467
C        4.90801591       1.41948927       3.76994871       0.00291924      -0.00561197      -0.00222358
B        3.44311909       3.62380283       3.86425856       0.01374602      -0.00332487      -0.01338313
C        1.21456276       7.77336409       3.92424132      -0.00089714       0.00216819      -0.00592760
C       -0.00562039       9.94963039       3.76529507      -0.00210115       0.00460491      -0.00193968
C        7.37908197       1.42052269       3.73203789      -0.00277038       0.00206468      -0.00197258
C        6.09729941       3.57846080       3.67355642      -0.00762288      -0.00094462       0.00086987
C        4.93382879       5.72969959       3.58135150      -0.00199996       0.00344810       0.00186195
C        3.72232949       7.84082205       3.71442312       0.00887435       0.00086198      -0.00188831
C        2.45850062       9.92907305       3.77847564      -0.00005856      -0.00049879      -0.00139918
C        9.85915604       1.41908344       3.73003664       0.00135662       0.00192080       0.00665485
C        8.61885931       3.55370615       3.66286252      -0.00448504       0.00173216       0.00816600
C        7.38665767       5.67826542       3.58436174      -0.01029821       0.00157538       0.00187342
C        6.15801899       7.82217386       3.60504259       0.00236529       0.00346132      -0.00870879
C        4.92141559       9.96461614       3.71958530      -0.00043039      -0.00074019      -0.00149283
Mn       2.32600374       5.06092712       5.14978532      -0.00382582       0.00822281       0.00680101
O        3.06728254       5.30697275       6.60384097       0.00382262      -0.00580872      -0.00735252
