51
Lattice="12.336457 0.0 0.0 -6.168228499999997 10.683685154694365 0.0 0.0 0.0 15.0" Properties=species:S:1:pos:R:3:forces:R:3 energy=-449.9035230407345 free_energy=-449.9035230407345 stress="-0.005523262702455065 0.0002123332710996029 1.57551861204059e-05 0.0002123332710996029 -0.005768498177298162 8.677413674417317e-06 1.57551861204059e-05 8.677413674417317e-06 -2.016409455831072e-07" pbc="T T T"
C       -0.01499019      -0.00910180       3.73122598       0.00406502      -0.00210605       0.00459049
C       -1.25475538       2.12005960       3.78103252      -0.00216098       0.00207378      -0.00451306
C       -2.49071835       4.26104861       3.78101364      -0.00080888      -0.00377304      -0.00484145
C       -3.71493272       6.39923660       3.73087146       0.00186600       0.00422230       0.00518120
C       -4.95509152       8.53342723       3.68299806       0.00317070       0.00159351      -0.00090119
C        2.45037035      -0.00933518       3.78521530       0.00717510       0.00272079      -0.00376071
C        1.21578183       2.13018055       3.83758275      -0.00136044       0.01123002      -0.00205291
C       -0.04520878       4.24557749       3.87080422      -0.00444983      -0.00132822       0.00554566
C       -1.24671206       6.39545559       3.83749329       0.00821868      -0.00653538      -0.00209465
C       -2.48234665       8.53438041       3.78514328       0.00534533       0.00528001      -0.00447252
C        4.91799937      -0.01119124       3.78469280       0.00407558       0.00155516       0.01603418
C        3.68651362       2.12714729       3.81252823      -0.00063609      -0.00940852       0.00219330
B        2.45475371       4.38561119       4.00085936       0.00266344      -0.00264637       0.00220306
B        1.32592085       6.34075061       4.00098661      -0.00089284       0.00382828       0.00239874
C       -0.01410814       8.53688200       3.81244883      -0.00783051       0.00211783       0.00228438
C        7.37937227       0.00048429       3.74890022      -0.00139627      -0.00889755      -0.00355585
C        6.15881370       2.11439150       3.74895878      -0.00787114       0.00483410      -0.00362429
C        4.95035860       4.22632280       3.65788597      -0.00507811       0.00249626       0.00448816
S        3.54612491       6.31931941       2.59769773       0.01067309       0.00593797       0.00582849
C        2.43577574       8.58158310       3.65831233       0.00013476      -0.00470411       0.00463763
C        9.85731169      -0.00000331       3.70167460      -0.00240910       0.01385662      -0.00564062
C        8.62175959       2.12711047       3.74834508      -0.01624983      -0.00960647       0.00143198
C        7.39745319       4.26059974       3.70151791       0.01044529      -0.00806327      -0.00625518
C        6.15676167       6.40132684       3.56496287       0.00333172      -0.00199600      -0.00064930
C        4.92269001       8.53898402       3.56537259      -0.00113613       0.00246849      -0.00056910
C       -0.01971440       1.41060897       3.78629806       0.00133312       0.00147715       0.00270854
C       -1.27324089       3.53662651       3.80940631      -0.00315813      -0.00110827       0.00506701
C       -2.48769689       5.68536253       3.78619296       0.00221422      -0.00070997       0.00224621
C       -3.71812621       7.82290700       3.73463772       0.00506823       0.00744676      -0.00692908
C       -4.95191477       9.95993131       3.73481943       0.00922658       0.00023236      -0.00697681
C        2.45186273       1.41403232       3.82241676      -0.00353667       0.00211105       0.00136890
C        1.18369381       3.54693170       3.89440138      -0.00205585       0.01097822      -0.00225851
C       -0.03584867       5.65918118       3.89445198       0.00794924      -0.00565719      -0.00264091
C       -1.24890882       7.82404380       3.82219791      -0.00060366      -0.00424360       0.00224976
C       -2.48467274       9.95969001       3.78701660       0.00789935       0.00488420       0.00155927
C        4.92250200       1.40990439       3.77884323      -0.00010807      -0.00242799       0.00514585
C        3.72196566       3.55338530       3.80904417      -0.00227973      -0.00936223      -0.00036894
C        1.23870607       7.85434670       3.80930356      -0.00765563       0.00236801      -0.00082689
C       -0.01721654       9.96591224       3.77869821      -0.00232359      -0.00099914       0.00571672
C        7.38872380       1.41519353       3.75036819      -0.01622692      -0.00894843       0.00029184
C        6.18173302       3.53165142       3.69551158      -0.00030433       0.00661899      -0.00026222
C        4.94865741       5.64502349       3.47595608       0.00163809       0.00290827       0.00378017
C        3.66363665       7.87080166       3.47663536       0.00256366      -0.00101526       0.00272545
C        2.44995874       9.99529202       3.69560607       0.00442913      -0.00230585       0.00026785
C        9.85250166       1.41575691       3.74729437      -0.00866064       0.01156477      -0.01138025
C        8.62119806       3.54865824       3.74722050       0.00420115      -0.01392157      -0.01116354
C        7.38746852       5.68717920       3.67164139       0.00579388      -0.00575771       0.00128779
C        6.14538853       7.81982639       3.58204057       0.00032675       0.00023466      -0.00513446
C        4.91959850       9.96186088       3.67209299      -0.00353131       0.00663990       0.00048389
Mn       3.09386511       6.05792841       4.96771857      -0.00885430      -0.00477351      -0.00532552
O        3.38278987       6.22466813       6.53668794      -0.00222916      -0.00138376       0.00448144
