52
Lattice="12.336457 0.0 0.0 -6.168228499999997 10.683685154694365 0.0 0.0 0.0 15.0" Properties=species:S:1:pos:R:3:forces:R:3 energy=-447.84430799640165 free_energy=-447.84430799640165 stress="-0.001644706200720425 0.001435403352476205 6.501307196331371e-05 0.001435403352476205 -0.006058073736652366 -3.7657226157869594e-05 6.501307196331371e-05 -3.7657226157869594e-05 -1.0800631497679903e-05" pbc="T T T"
C        0.00124815       0.02715335       3.70249681      -0.00924574      -0.00096270       0.00122295
C       -1.24031870       2.15421028       3.44883742       0.00334202       0.01336352      -0.00218205
C       -2.50667719       4.29331659       3.49650641       0.00013884      -0.00214447      -0.00262096
C       -3.73211802       6.41731869       3.72053846       0.00068286      -0.00186961       0.00460179
C       -4.95394038       8.54827651       3.80793372       0.00049381      -0.00136430      -0.00803643
C        2.46757276      -0.00007111       3.81989810      -0.00177307       0.00447530      -0.00540470
C        1.26409359       2.13147951       3.48949243      -0.00272960      -0.01944425       0.00054064
C       -0.11252402       4.30591556       3.05230871       0.00749569      -0.00459196      -0.00506051
C       -1.24851358       6.42418437       3.60250519       0.00707144      -0.00660343       0.00100624
C       -2.47282222       8.54319153       3.83189191       0.00153940      -0.00551244       0.00329677
C        4.93535969      -0.00314015       3.88406407      -0.00000706      -0.00672119       0.00304355
C        3.73055238       2.12499293       3.89750672       0.01012330       0.00838427      -0.00661027
P        1.56927288       6.19735418       3.96997564       0.01461845      -0.00172651       0.00789161
C       -0.00170735       8.55376590       3.92141194       0.00279846       0.00711650      -0.00122939
C        7.39323189       0.03541182       3.86908291       0.00456808       0.00204672      -0.00097964
C        6.16497910       2.14535039       3.84570585      -0.00607158      -0.00119387      -0.00161118
C        4.91844444       4.23169892       3.95470940       0.00195017       0.00347298      -0.00620423
B        3.53335200       6.41215980       3.85864774       0.00704463       0.00411083      -0.00210480
C        2.47539599       8.64301445       3.93650568      -0.00447301      -0.00103637       0.00343508
C        9.87652277       0.05031310       3.75874395       0.00246067      -0.00036774      -0.00096406
C        8.62783424       2.16265019       3.68140841      -0.00224029      -0.00577424      -0.00625779
C        7.37453163       4.28542848       3.74600734      -0.00524816       0.00888637      -0.00205780
C        6.10975651       6.40183266       3.83059811      -0.00273679       0.00265707      -0.00288976
C        4.92927836       8.57928500       3.82422608       0.00416838       0.00206671       0.00203619
C        0.00606247       1.44973188       3.52909793      -0.00519545      -0.00413633       0.00742494
C       -1.28912530       3.56893670       3.29242822       0.00715448       0.00692707       0.00029859
C       -2.49661603       5.71552362       3.59339907       0.00177888      -0.00292755       0.00505026
C       -3.71796562       7.83822339       3.79208905       0.00153090      -0.00710996       0.00068624
C       -4.94276486       9.97732825       3.78354689      -0.00569646       0.00200340       0.00063285
C        2.48140742       1.42238569       3.76283258       0.00919117       0.00501602      -0.00465433
P        1.40890131       3.60839791       2.51932018      -0.01564687      -0.00643222       0.00752538
C       -0.04263418       5.68578660       3.38365948       0.00548240      -0.01136706       0.00291087
C       -1.23750888       7.83358658       3.80796352       0.00618304      -0.00027934       0.01000439
C       -2.47027513       9.96680318       3.86842884      -0.00378290      -0.00303093       0.01037639
C        4.94572736       1.42104616       3.87448471      -0.00073003      -0.00480373      -0.00101822
N        3.77126492       3.48350454       4.11999077       0.00603290       0.00418679       0.00379447
C        1.25679194       7.91389212       4.00415702      -0.00342948      -0.00423271      -0.00365282
C       -0.00032704       9.98288592       3.90737469       0.00599026       0.00554915      -0.00210643
C        7.39810401       1.45124582       3.80150660      -0.00591195      -0.00218552       0.00010146
C        6.15343826       3.55802950       3.83888156      -0.00206507       0.00105963      -0.00188409
C        4.86757077       5.66437204       3.89806912       0.00154553      -0.00020737      -0.00704159
C        3.68482184       7.91662263       3.87023143       0.00243494       0.00767065       0.00160083
C        2.46976217      10.04638445       3.86932486       0.00223968      -0.00022134       0.00070376
C        9.87085187       1.46004441       3.62792110       0.00708768       0.00370295      -0.00451075
C        8.61093915       3.58163989       3.63640679      -0.00520349      -0.00142055      -0.00360145
C        7.36202828       5.70630712       3.76341727      -0.00536043       0.01005510       0.00234322
C        6.14486647       7.83662113       3.81795711       0.00110119       0.00064975      -0.00374050
C        4.93806585      10.01204297       3.76365738      -0.00348043      -0.00101230      -0.00027210
Mn       2.27714448       4.19586331       5.12359250       0.00093247      -0.00979562      -0.00005003
O        3.04482805       4.19206675       6.83572364      -0.01168772      -0.00230900       0.00093463
O        1.98659287       4.26640850       7.84522171      -0.01182271       0.01239346       0.00002038
H        2.54294586       4.20999345       8.64428713      -0.01264342       0.00499036       0.00526238
