49
Lattice="12.336457 0.0 0.0 -6.168228499999997 10.683685154694365 0.0 0.0 0.0 15.0" Properties=species:S:1:pos:R:3:forces:R:3 energy=-433.75854767052374 free_energy=-433.75854767052374 stress="-0.0028278929308195593 -0.002991794601779124 -3.2884526607208714e-06 -0.002991794601779124 -0.007190615696213223 5.684960625053904e-06 -3.2884526607208714e-06 5.684960625053904e-06 2.7352701230056726e-07" pbc="T T T"
C       -0.01130037       0.00481243       4.00796969       0.00723637      -0.00767216       0.00476493
C       -1.25719151       2.13817755       4.04888306       0.00200344      -0.00627073      -0.00821867
C       -2.47959421       4.27922374       3.88811037       0.00283776      -0.00037078       0.00309757
C       -3.69451448       6.41428617       3.76528191      -0.00573850       0.00773460      -0.00059530
C       -4.93454158       8.54889941       3.85704980      -0.01188758       0.00181293       0.00861396
C        2.45358750      -0.00224340       3.89496150       0.00608182       0.00139456       0.00179773
C        1.18938115       2.13349024       3.98853760      -0.01303265      -0.00236758       0.00569840
C       -0.03026558       4.21604206       3.93740278       0.00457791       0.00575010       0.00089717
C       -1.20398238       6.38966684       3.72690287       0.00067238      -0.00510448      -0.00866624
C       -2.45611647       8.54127967       3.78730351      -0.00321900      -0.00613283      -0.00363019
C        4.92061832       0.01303598       3.76462051       0.00248592      -0.00519240      -0.00248849
C        3.65269743       2.10758740       3.56045735      -0.00326721      -0.00178021      -0.00170660
P        1.54953050       6.27163858       3.03027213      -0.00450228       0.00994053       0.00759454
C        0.00318744       8.56137083       3.67247342       0.00661579      -0.00336540       0.01209197
C        7.37693672       0.03853948       3.84457055      -0.00282533       0.00024468       0.00782987
C        6.14762051       2.15530768       3.61481367       0.01027953      -0.00700149       0.00089629
C        5.01235946       4.30928523       3.19656194      -0.01225169      -0.00898211       0.00505066
B        3.58497022       6.43987205       3.48532026       0.00041893      -0.00213404      -0.01420153
C        2.46885246       8.63572717       3.75437320       0.00411678       0.00427611      -0.01057464
C        9.85856798       0.03220610       3.99475515      -0.01087568       0.00170359       0.00231941
C        8.61041882       2.15832979       3.89444289       0.00472551       0.00901773      -0.00248107
C        7.40328655       4.28976450       3.65851724      -0.00195900       0.00239203      -0.00336013
C        6.16710309       6.43426127       3.59876745       0.00270015       0.00011023       0.00477756
C        4.93634341       8.57429672       3.84388854      -0.00657916       0.00468612      -0.00827762
C       -0.02651608       1.42668395       4.04185879      -0.00247610      -0.00977896       0.00217672
C       -1.26111109       3.54656666       3.99117423       0.00777444      -0.00265298       0.00198990
C       -2.45916411       5.69829512       3.80096489      -0.00583756      -0.00012087       0.00769700
C       -3.69478409       7.83683932       3.80366686      -0.01261096       0.00687020       0.00506947
C       -4.94280266       9.97037885       3.94362569       0.00869562      -0.00075318       0.00498769
C        2.43326166       1.41959299       3.84520066      -0.01069914       0.00133149      -0.00978297
N        1.15264068       3.50618286       4.05830020      -0.00538220      -0.00310384      -0.00647804
C        0.00016277       5.61983693       3.68994628       0.01637181       0.01065864       0.00056141
C       -1.22005564       7.82625606       3.70383825       0.00315928      -0.00703591      -0.00458351
C       -2.47369307       9.96976504       3.81736842       0.00339719      -0.00611026       0.00414831
C        4.91148453       1.43718914       3.64383759       0.00230346      -0.00548710       0.00058561
P        3.59655411       3.51308129       2.48493663       0.00217713       0.00807542       0.00331922
C        1.25929165       7.92579771       3.55151754       0.00651396       0.00413383       0.00040673
C       -0.01340724       9.99401072       3.77066086       0.00209109      -0.00249101      -0.00876665
C        7.37206548       1.45661356       3.80133469       0.01221948       0.00027017       0.00885673
C        6.18432134       3.57146141       3.47227646      -0.00126093      -0.00486255       0.00179095
C        4.94717838       5.72903306       3.37044718       0.00382681      -0.00033771      -0.00318018
C        3.69395075       7.92083270       3.71680700      -0.00188474       0.00050675      -0.00720500
C        2.45045771      10.03463399       3.90797807      -0.00817588       0.00017899      -0.00457369
C        9.84473704       1.44619940       4.01023523      -0.00382516       0.00167487       0.00314604
C        8.61977898       3.57697982       3.83124607      -0.00099454       0.00792092      -0.00509980
C        7.40410136       5.71480926       3.67285621       0.00219161       0.00194595       0.00106241
C        6.17084561       7.84835837       3.78000232      -0.00870451      -0.00044689      -0.00240197
C        4.92603804       9.99350893       3.98037678      -0.00290841       0.00423614      -0.00609926
Mn       2.73410223       4.51078450       4.44802530       0.01542404       0.00268890       0.01114330
