51
Lattice="12.336457 0.0 0.0 -6.168228499999997 10.683685154694365 0.0 0.0 0.0 15.0" Properties=species:S:1:pos:R:3:initial_magmoms:R:1:forces:R:3 energy=-446.8802227888067 free_energy=-446.8802227888067 stress="-0.0020959544260475867 -0.0010269129356927358 8.154299757162584e-06 -0.0010269129356927358 -0.005478203268700473 3.092000984352945e-05 8.154299757162584e-06 3.092000984352945e-05 -4.429394459623502e-05" pbc="T T T"
C        0.02983152      -0.05682690       3.75027236       0.00000000      -0.00410177       0.00955855      -0.01402656
C       -1.19330008       2.10925522       3.68832364       0.00000000      -0.00327585      -0.01325601      -0.01493280
C       -2.41861373       4.23961515       3.70681911       0.00000000       0.01506338      -0.01063556       0.00099999
C       -3.65086088       6.37020832       3.76520422       0.00000000       0.00390625       0.00349697      -0.01508039
C       -4.88918686       8.50109398       3.80620421       0.00000000      -0.00902724       0.01317015      -0.00475706
C        2.50725296      -0.09108227       3.62561027       0.00000000      -0.00088493      -0.00537424       0.00214784
C        1.27598236       2.03465481       3.58298502       0.00000000      -0.00517414       0.00378844       0.01789958
C        0.06449025       4.28115398       3.84824627       0.00000000      -0.00638196       0.00543533      -0.00708797
C       -1.19443102       6.37067522       3.95318555       0.00000000      -0.00611051       0.00542593       0.00072557
C       -2.41591645       8.49679847       3.77231518       0.00000000       0.00260132      -0.01180883      -0.00383040
C        4.97337086      -0.03949449       3.54388564       0.00000000      -0.01238391       0.00104937       0.00764564
C        3.70301470       2.02047316       3.28247342       0.00000000      -0.01104280       0.00733824       0.00304254
B        1.08286300       6.54154233       4.83456819       0.00000000      -0.01494188       0.00944039       0.01964681
C        0.04320842       8.53908270       3.89058939       0.00000000       0.01172912       0.01214988       0.00796645
C        7.43804581      -0.01715796       3.64176689       0.00000000       0.01126609      -0.00250329       0.00733923
C        6.19592522       2.11577051       3.41703117       0.00000000       0.00960387      -0.00623902      -0.00321784
C        4.99234813       4.31029191       3.46117008       0.00000000      -0.00952926      -0.01210426       0.01462586
C        3.77449708       6.37454041       4.02199827       0.00000000      -0.00129508       0.01282381       0.00513260
C        2.48622106       8.53226706       3.99302741       0.00000000       0.01064942      -0.00186652       0.00073946
C        9.90278180      -0.02699032       3.74996953       0.00000000       0.00944862      -0.00257924       0.00308185
C        8.67246040       2.11086298       3.59096087       0.00000000       0.00315101       0.00597616      -0.00091637
C        7.44258138       4.24562226       3.58529082       0.00000000       0.01026340       0.01231565       0.00388924
C        6.23626463       6.39556029       3.78038559       0.00000000      -0.01173417       0.00117429      -0.00332428
C        4.96690405       8.50512544       3.90189189       0.00000000       0.00082607      -0.00088320      -0.00163573
C        0.03330528       1.37118259       3.68165576       0.00000000      -0.00489150       0.00406425       0.01431204
C       -1.17533150       3.53707446       3.72099005       0.00000000       0.00367815      -0.01692464      -0.00405790
C       -2.42337667       5.65908640       3.78692853       0.00000000       0.00136077      -0.01478848       0.01224281
C       -3.65354530       7.79043693       3.79426135       0.00000000      -0.00676911       0.00595342      -0.02941996
C       -4.90100674       9.91032872       3.74469668       0.00000000      -0.00395992       0.01744623      -0.00175058
C        2.49392174       1.31100569       3.49002844       0.00000000      -0.00806590      -0.00747766       0.00433963
B        1.40944777       3.53683616       3.64565644       0.00000000       0.00175543       0.01585812      -0.00881975
C        0.00358831       5.65228052       4.14941247       0.00000000      -0.00868333      -0.00271570      -0.00564550
C       -1.19167703       7.79968366       3.89444548       0.00000000       0.01355573       0.01176405       0.01056234
C       -2.41780313       9.91274984       3.64151467       0.00000000      -0.00517519      -0.01621814       0.00374333
C        4.96123565       1.38808924       3.38013068       0.00000000      -0.00778202       0.00280409       0.00392021
P        3.37569857       3.72100342       2.89473511       0.00000000      -0.00291988       0.00515047       0.00708371
C        1.25573337       7.89865010       4.14741731       0.00000000       0.00749624      -0.00554193      -0.00342378
C        0.03682193       9.95635259       3.66374080       0.00000000      -0.00044284       0.01228222      -0.00242822
C        7.43105116       1.40755449       3.52882136       0.00000000       0.01557123      -0.00497311       0.00719580
C        6.19311130       3.54732889       3.45155331       0.00000000       0.01393346      -0.00083516       0.00582012
C        4.99403606       5.71049026       3.75862084       0.00000000      -0.01689761      -0.01163306      -0.01461836
C        3.72954425       7.77585748       4.01489010       0.00000000      -0.00056508       0.00481495       0.00030731
C        2.49987128       9.95392506       3.78157232       0.00000000       0.01015037      -0.01005399      -0.00116958
C        9.90774666       1.39897349       3.67089943       0.00000000      -0.00663296      -0.00179013      -0.01189490
C        8.67648391       3.53371441       3.61072501       0.00000000       0.00627816       0.00762412       0.00403636
C        7.45261485       5.66527110       3.70255705       0.00000000      -0.00406617       0.00648039       0.00685083
C        6.21237474       7.80616520       3.85050686       0.00000000      -0.00295104      -0.00009700       0.01393566
C        4.96516632       9.92667441       3.81512464       0.00000000       0.00400096      -0.00432079       0.00138586
Mn       2.70865113       4.86402682       4.95677889       0.00000000       0.01777376       0.00276977      -0.15334470
O        2.10719987       5.62170857       6.61386021       1.00000000      -0.02275737       0.04100337      -0.05263060
O        1.14664335       6.64110697       6.28423650       1.00000000       0.01438063      -0.07653862       0.16739457
