50
Lattice="12.336457 0.0 0.0 -6.168228499999997 10.683685154694365 0.0 0.0 0.0 15.0" Properties=species:S:1:pos:R:3:forces:R:3 energy=-444.8549730937939 free_energy=-444.8549730937939 stress="-0.004984634550438501 -0.0006271404978121456 -1.709076639263314e-06 -0.0006271404978121456 -0.004216510182961394 3.5959351212469008e-06 -1.709076639263314e-06 3.5959351212469008e-06 4.072941188103844e-06" pbc="T T T"
C       -0.01491319      -0.00659909       3.75270800      -0.00412065      -0.00837552      -0.00606826
C       -1.26285775       2.11543593       3.79834325       0.00966270       0.00183563       0.00378222
C       -2.49815985       4.25695357       3.79847363      -0.00432205      -0.00205763       0.00480556
C       -3.71342533       6.39829942       3.74938173       0.00499698      -0.00066427      -0.00161299
C       -4.94815107       8.53780355       3.70067080       0.00915257       0.00269036      -0.00322616
C        2.45109798      -0.00682947       3.82019684      -0.00140797       0.00422199      -0.01093819
C        1.21269873       2.13172593       3.87711688      -0.00311149       0.00243645      -0.00864363
C       -0.05478298       4.23971012       3.91916688      -0.00476544       0.00398860      -0.01577803
C       -1.24693915       6.39205182       3.87512637      -0.00226447      -0.00075340      -0.00461896
C       -2.48025378       8.53394444       3.81633490       0.00313798       0.00040070      -0.00379134
C        4.91628014      -0.01138781       3.81477172       0.01122169      -0.00267426      -0.00846661
C        3.67727322       2.13565473       3.83284651      -0.00273880       0.00248811       0.00353336
B        2.42714708       4.42419072       4.00957645      -0.00610355       0.00341224       0.00308225
B        1.34554466       6.29708098       4.00977640      -0.00874116      -0.00069128       0.00302547
C       -0.01250691       8.52538737       3.82915432       0.01109410      -0.01389074       0.00610908
C        7.37494820      -0.00750805       3.74546989      -0.00407617       0.00168988      -0.00678400
C        6.14987340       2.11441009       3.74876000       0.00222156      -0.00053359      -0.01390125
C        4.93553467       4.22808568       3.62611430      -0.00281568      -0.00781829      -0.00667187
S        3.65895625       6.38467174       2.37427475      -0.00480548       0.00035919      -0.00546327
C        2.42940964       8.56656152       3.62844399      -0.00491026       0.01496472      -0.00527067
C        9.85115620      -0.00537750       3.69014920      -0.00483826       0.00735324       0.00634767
C        8.61275227       2.12191015       3.73807618      -0.00326337      -0.00496026       0.00404631
C        7.39046768       4.25758508       3.69143196      -0.00052421      -0.00151982      -0.00158394
C        6.16618451       6.40660415       3.55647178       0.00843262       0.00524332       0.01020864
C        4.93248732       8.54429028       3.56175554      -0.00241252      -0.00379358      -0.00030720
C       -0.02321100       1.41118265       3.81432120       0.00468238      -0.00652954       0.01043793
C       -1.28198739       3.53145305       3.84294684      -0.00183282       0.00202587       0.00447771
C       -2.48921948       5.68272369       3.81311311       0.00076578      -0.00167676       0.00585116
C       -3.71435317       7.82371339       3.75703607       0.00574158      -0.00017296       0.01102353
C       -4.94936919       9.96339629       3.76099817       0.00155449       0.00065090       0.00375672
C        2.44897325       1.41811664       3.85632648      -0.00389413       0.00394689       0.00038121
C        1.17782142       3.54834788       3.93730479      -0.00789306       0.00059818      -0.00032323
C       -0.03769824       5.65289399       3.93736496      -0.00524190       0.00241107      -0.00536621
C       -1.24740229       7.81971186       3.85309033       0.00268089      -0.00428374      -0.00395847
C       -2.48447509       9.96005163       3.82106720       0.00275778       0.00293426       0.00828063
C        4.91379843       1.41294942       3.79864070       0.00416989       0.00087533      -0.00692603
C        3.69880173       3.56970291       3.81201127      -0.01106282      -0.00010699      -0.00379767
C        1.23979025       7.82580591       3.81129988       0.00727440      -0.00714344      -0.00417134
C       -0.01969425       9.95785680       3.79456625       0.00919988      -0.01221643       0.00154689
C        7.37972285       1.40983969       3.74406301      -0.00317750      -0.00156203       0.00373721
C        6.16840749       3.53334045       3.67690870      -0.00027778      -0.00168436       0.00842087
C        4.94531879       5.65693125       3.41660784       0.00357416       0.00353750       0.01281093
C        3.67283534       7.86001459       3.42417353      -0.00740104       0.00323397      -0.00266938
C        2.44470145       9.98163216       3.67587573      -0.00631337       0.01233117       0.00580927
C        9.84450944       1.41034018       3.74070186       0.00416650       0.00621100       0.01245992
C        8.61341452       3.54465276       3.74232030      -0.00434309      -0.00679101       0.00769002
C        7.38814864       5.68643894       3.67309253       0.00690459      -0.00004017       0.00240312
C        6.15230510       7.82375844       3.58244758       0.00960158       0.00597241      -0.01016180
C        4.91979031       9.96294999       3.67542154      -0.00852125      -0.00430016       0.00454014
Mn       3.25752833       6.15224607       4.78436708       0.00218622      -0.00157276      -0.00806733
