52
Lattice="12.336457 0.0 0.0 -6.168228499999997 10.683685154694365 0.0 0.0 0.0 15.0" Properties=species:S:1:pos:R:3:forces:R:3 energy=-447.79361737719546 free_energy=-447.79361737719546 stress="-0.001513965162078148 -0.0026492668262734823 -6.709517916301679e-06 -0.0026492668262734823 -0.00648248593802264 2.813249430151881e-05 -6.709517916301679e-06 2.813249430151881e-05 -1.3737548545402499e-05" pbc="T T T"
C       -0.03812112       0.02928947       4.02448423       0.00423908      -0.00648478      -0.00203895
C       -1.28352113       2.16426606       4.04955853      -0.00425754      -0.00223868       0.00119597
C       -2.50397799       4.30463980       3.88522552       0.00096578       0.00424351       0.00249644
C       -3.72343006       6.43855183       3.78316450       0.00263605      -0.00315724      -0.00170830
C       -4.96378954       8.57179736       3.88528551       0.00029390      -0.00005329      -0.00621772
C        2.42735398       0.02324544       3.90998161       0.00210328       0.00405130      -0.00012436
C        1.16586413       2.16464322       4.03113110      -0.00027260      -0.00093249       0.00752574
C       -0.04586775       4.24228096       3.97285780       0.00157999       0.00300463       0.01388827
C       -1.22618595       6.41262165       3.72905907       0.00390983       0.00893623       0.00752707
C       -2.48411219       8.56415923       3.79331316      -0.00434307       0.00414129      -0.00017570
C        4.89299440       0.03564553       3.75234101      -0.00027198       0.00307924      -0.00288167
C        3.62592838       2.13570285       3.55695507       0.00339464      -0.00462239      -0.00480403
P        1.54730065       6.29044028       3.05764272      -0.01342067      -0.01377934      -0.00066056
C       -0.02558975       8.58590597       3.66014964       0.00511571      -0.00142698       0.00685376
C        7.34931214       0.06430242       3.82891291      -0.00211083      -0.00283198      -0.00555472
C        6.12056650       2.17968871       3.60538408       0.00178287      -0.00107616      -0.00389920
C        4.97127060       4.33149012       3.23123362      -0.00559344       0.00016185       0.01290714
B        3.53760620       6.45816352       3.50152120       0.00262345       0.00565698      -0.00489651
C        2.44173611       8.66379556       3.74311756       0.00168951       0.00523725      -0.00052738
C        9.83051725       0.05897273       3.99104211       0.00439535      -0.00786800      -0.00712183
C        8.58399432       2.18452344       3.88241960      -0.00035836      -0.00439092       0.00098859
C        7.37461108       4.31435958       3.66757567      -0.00167344      -0.00159130      -0.00369991
C        6.13166393       6.45479486       3.64346074       0.00350051       0.00888596      -0.01092577
C        4.90659212       8.59814818       3.86095657      -0.00378189      -0.00151030      -0.00701832
C       -0.05166536       1.45186079       4.05776986      -0.00225211      -0.00344929      -0.00437223
C       -1.28440361       3.57306774       3.99197714       0.00010128       0.00203771       0.00673620
C       -2.48465088       5.72349687       3.80618791       0.00658975       0.00447837      -0.00198964
C       -3.72400064       7.86069123       3.82435109      -0.00171051      -0.00248615      -0.00247893
C       -4.96971595       9.99437193       3.96588494       0.00615526      -0.00195022       0.00172660
C        2.41084626       1.44878476       3.86421824       0.00134531       0.00271857       0.00188402
N        1.12697189       3.53352819       4.15814950       0.00683970       0.00359459       0.00727088
C       -0.01262684       5.64644939       3.71088313       0.00033222       0.00303279       0.00603413
C       -1.24667783       7.84901846       3.70023780      -0.00042879       0.00600558       0.00640805
C       -2.50080776       9.99273853       3.82104263      -0.00088160       0.00550239      -0.00443245
C        4.88344156       1.46114159       3.62889104       0.00330984       0.00287572       0.00620341
P        3.52742914       3.58477575       2.55534522      -0.01160913      -0.00343784      -0.00051434
C        1.23302574       7.95095734       3.54087817       0.00694898       0.00094871      -0.00227734
C       -0.04094959      10.01841896       3.75391671      -0.00222385      -0.00184895      -0.00309865
C        7.34596007       1.48188290       3.78784546      -0.00135523      -0.00333431       0.00517176
C        6.15488319       3.59526253       3.48016326      -0.00244779      -0.00170147      -0.00318721
C        4.90083336       5.74447287       3.42635610       0.00505034       0.00681753      -0.01222141
C        3.66328789       7.94485343       3.72051389      -0.00447188       0.00057748       0.00817641
C        2.42281320      10.06251370       3.89513182       0.00064893       0.00265801      -0.00303463
C        9.81794120       1.47291600       4.00267304      -0.00121695      -0.00824690       0.00029226
C        8.59359404       3.60282157       3.82521081      -0.00061004      -0.00044440       0.00374726
C        7.37281155       5.73890255       3.70029148       0.00045818       0.00018608       0.00369504
C        6.13960339       7.86940694       3.81237054      -0.00298339       0.00602707      -0.00060118
C        4.89750508      10.01885295       3.98955497       0.00409936      -0.00693399      -0.00890279
Mn       2.70729219       4.53938528       4.88523315      -0.01125815       0.00873890      -0.00511572
O        3.88441266       3.85344574       6.23883253       0.00377464       0.00045616      -0.00716713
O        3.00216731       3.83520050       7.41727488      -0.01576227      -0.01149940      -0.00102588
H        3.46087156       4.49185174       7.97360839       0.01141180      -0.00675716       0.01194544
