52
Lattice="12.336457 0.0 0.0 -6.168228499999997 10.683685154694365 0.0 0.0 0.0 15.0" Properties=species:S:1:pos:R:3:forces:R:3 energy=-445.179855096214 free_energy=-445.179855096214 stress="0.0022010459839195157 -7.555851903897903e-05 3.802559461135004e-05 -7.555851903897903e-05 -0.006298884501563212 -1.0066615018829196e-05 3.802559461135004e-05 -1.0066615018829196e-05 1.6535429990236393e-05" pbc="T T T"
C        0.00332235       0.05519205       3.59794731      -0.00302758      -0.00155202      -0.00211087
C       -1.21453646       2.21523609       3.51182737      -0.00735725      -0.00002974      -0.00387194
C       -2.44594900       4.34098426       3.50348497       0.00037729       0.00490480       0.00456407
C       -3.69884968       6.46441328       3.58370225       0.00511463       0.00151786      -0.00257532
C       -4.94114588       8.58811751       3.66399913       0.00400592      -0.00285205      -0.00090514
C        2.46907972       0.00236279       3.54710527       0.00472255      -0.00069171       0.00034586
C        1.26452414       2.14561686       3.60169860       0.00502705       0.00064947      -0.00656021
C        0.06465763       4.34829803       3.70950024      -0.00027429      -0.00015000      -0.00056182
C       -1.24130448       6.47462182       3.80581118      -0.00470084      -0.00196986      -0.00969934
C       -2.45683384       8.58820765       3.66371807      -0.00212610      -0.00463315       0.00309137
C        4.93568285       0.05455039       3.58507289      -0.00266183       0.00480444       0.00306268
C        3.67435905       2.14554992       3.58615812       0.00093087       0.00408939       0.00039463
P        1.13561359       6.44353133       5.10713968       0.00053244      -0.00793915       0.01230358
C       -0.00395547       8.64254140       3.95877809       0.00257237      -0.00486799      -0.01029314
C        7.39994938       0.09445773       3.66381016       0.00309019      -0.00015957       0.00119569
C        6.15364359       2.21502995       3.49282474      -0.00052334      -0.00381742       0.00615967
C        4.87477088       4.34841801       3.69448294      -0.00709231      -0.00045728      -0.00541735
P        3.81049205       6.44409467       5.10271195      -0.00166774       0.00155334       0.00034954
C        2.46867635       8.70656059       4.18006371       0.00581534       0.00836259      -0.00155691
C        9.87493575       0.09450352       3.66876777      -0.00141403       0.00073812       0.00272669
C        8.63782739       2.21803340       3.47657919       0.00020815      -0.00178315      -0.00726263
C        7.38505668       4.34104753       3.49379174       0.00339124       0.00126815       0.00178803
C        6.17970466       6.47424002       3.79299809       0.00621279       0.00376243       0.00049921
C        4.94192816       8.64140912       3.95369247      -0.00265084       0.00026449       0.00026883
C        0.01595214       1.48712075       3.55146229      -0.00081503       0.00143843      -0.00414748
C       -1.18676824       3.63739374       3.52469614      -0.00374937       0.00105397      -0.00460551
C       -2.46085967       5.75921372       3.59507609      -0.00056049       0.00372689      -0.00626015
C       -3.69899086       7.88221885       3.62745427       0.00253468      -0.00439023       0.00092205
C       -4.94019921      10.00444363       3.59712226       0.00241739      -0.00308439      -0.00179660
C        2.46915624       1.41474712       3.56503987       0.00590650      -0.00015722       0.00566708
B        1.48645742       3.65214382       3.72913922      -0.00184875      -0.00098494      -0.00585605
C       -0.04782858       5.72563890       4.01255917      -0.00803617      -0.00315037       0.00932370
C       -1.22734311       7.89772448       3.83464861      -0.00446515      -0.00425788       0.00154446
C       -2.45774637      10.00423758       3.59010827       0.00193962      -0.00279749       0.00828126
C        4.92293697       1.48663225       3.53149980      -0.00358695       0.00538290       0.00210499
B        3.45279408       3.65248168       3.71762822       0.00414520      -0.01145205       0.00683893
C        1.21912898       8.02928273       4.33689626       0.00872079      -0.00209806      -0.00621097
C       -0.00117404      10.05349768       3.71502310      -0.00157405       0.00274853       0.00412777
C        7.39550735       1.51077676       3.51311722       0.00242484      -0.00393950       0.00355864
C        6.12584500       3.63750708       3.50709310      -0.00057888      -0.00356067       0.00792010
C        4.98697164       5.72520418       4.00014350       0.00426817      -0.00062969       0.00171471
C        3.71866538       8.02796323       4.33119463      -0.00050846      -0.00186755      -0.00601717
C        2.46886339      10.08673342       3.81089573       0.00438016       0.00738004       0.00963707
C        9.87997460       1.51104317       3.52297617      -0.00527762      -0.00250003      -0.00078635
C        8.63782693       3.63907842       3.45805259       0.00440479       0.00134771      -0.00362514
C        7.39975747       5.75909951       3.58605635       0.00676830       0.00425983      -0.00229880
C        6.16559771       7.89702059       3.82832835       0.00120467       0.00420939       0.00212507
C        4.93980149      10.05372602       3.71976049      -0.00550051       0.00036539       0.00462601
Mn       2.47889760       4.50836179       5.41969114      -0.00452779       0.00737315      -0.00461901
O        2.48734194       4.60295107       7.35955241      -0.00241100       0.00427664      -0.00074830
O        2.31303785       3.23701896       7.85185925      -0.00283746       0.00065103      -0.00011367
H        3.23172571       3.02506210       8.10977986      -0.01134216      -0.00035586      -0.00724183
