50
Lattice="12.336457 0.0 0.0 -6.168228499999997 10.683685154694365 0.0 0.0 0.0 15.0" Properties=species:S:1:pos:R:3:forces:R:3 energy=-441.10067418679864 free_energy=-441.10067418679864 stress="-0.0002794916862536289 0.0018894856628893864 -9.686824054899003e-06 0.0018894856628893864 -0.007381951240746725 -4.316291895315837e-05 -9.686824054899003e-06 -4.316291895315837e-05 5.8824659081074294e-05" pbc="T T T"
C        0.02233953       0.00083832       3.66911054      -0.00703882      -0.01246041      -0.01233772
C       -1.20805091       2.13966212       3.44583379      -0.01666658       0.00542179       0.00435118
C       -2.47842379       4.27459792       3.53986411      -0.00919998      -0.00250938      -0.00463065
C       -3.71103474       6.38990283       3.77656113      -0.01656478       0.02753394      -0.01677161
C       -4.93920442       8.51767968       3.80676042       0.03385241      -0.00281241      -0.00226673
C        2.49052220      -0.03462785       3.81067858      -0.01672048      -0.01124677       0.00471668
C        1.29025421       2.11340241       3.59177377       0.02624512      -0.01945722      -0.01597367
C       -0.05578837       4.30169811       3.23808623       0.02064602       0.00146360      -0.00793071
C       -1.21326195       6.39682893       3.70460456       0.00592750      -0.00357083       0.01246443
C       -2.44928240       8.51621343       3.83339678      -0.02385355       0.00578823       0.00403546
C        4.95843629      -0.02726396       3.79738811      -0.01130249      -0.02061594       0.00520127
C        3.76138120       2.08910046       3.93100572       0.00644778       0.03697106      -0.00722210
P        1.60141246       6.20729625       4.27019450       0.05797014      -0.04595128       0.09225692
C        0.02926179       8.54000323       3.87923524       0.00436510      -0.00767551       0.00881970
C        7.41242699       0.01770110       3.68659407       0.03272301       0.02761901       0.01023023
C        6.18734008       2.12617618       3.77315927      -0.00497884      -0.01617316       0.02761586
C        4.92744299       4.19677489       4.04852208      -0.00539358      -0.00427849      -0.02110890
B        3.54571397       6.39577360       3.92180316      -0.01608871      -0.04787391      -0.01026958
C        2.48600637       8.62741577       3.81514432      -0.02253501       0.01868010       0.02319764
C        9.89866505       0.02696038       3.60052868      -0.00833802       0.01755457       0.01966854
C        8.65019287       2.14606279       3.58228752      -0.00230577      -0.03090013      -0.00500208
C        7.39092280       4.26286940       3.76891736       0.02170357      -0.00313938      -0.01689217
C        6.11790097       6.37086047       3.88656326      -0.00888529       0.01993018      -0.01195014
C        4.94261388       8.54957307       3.76040547       0.01363705       0.01491304       0.00020101
C        0.03212693       1.42912227       3.55236813      -0.02890180      -0.02765764      -0.02183626
C       -1.25304191       3.55797413       3.36404422      -0.01160110       0.00667691      -0.00011326
C       -2.46997336       5.69119327       3.66771795      -0.02012013       0.01128014      -0.00880614
C       -3.69974772       7.81071529       3.81454721       0.01720959      -0.00206303       0.02579516
C       -4.92438170       9.94612006       3.76893515      -0.01078447      -0.02473461      -0.00765362
C        2.51128170       1.38263037       3.79756062       0.02169928      -0.00594562       0.01039271
P        1.48208303       3.64180492       2.71811100       0.01657866       0.00298785      -0.00450952
C       -0.00133036       5.66800559       3.55831321      -0.02217680      -0.01681355      -0.01734774
C       -1.21412261       7.81457752       3.83580923      -0.02472112       0.00819140       0.00969610
C       -2.44454402       9.93860887       3.83507802      -0.04515450      -0.02356989      -0.01618035
C        4.97268999       1.39536748       3.81648318      -0.00368302       0.00499141       0.00459572
N        3.79493678       3.43221275       4.24202328      -0.05628138       0.01974188       0.01771726
C        1.28091905       7.92848476       4.00424720      -0.00455418      -0.00064088       0.00169551
C        0.02276442       9.96667803       3.77665197       0.02599010       0.01888890       0.03187574
C        7.41796728       1.43464359       3.66094324       0.00624077       0.01223294       0.01237362
C        6.16858483       3.53554609       3.85683980       0.00564482      -0.01236928      -0.00510811
C        4.87199160       5.63433886       3.98637372      -0.01347164      -0.01417902      -0.00667928
C        3.69783387       7.88987539       3.81708720       0.03617827       0.01121876      -0.01857018
C        2.48735248      10.02869550       3.67056687       0.01133614       0.01960502       0.01667055
C        9.89482844       1.44136236       3.52375231      -0.00992582      -0.00437019       0.01108619
C        8.63046896       3.56442443       3.61981294       0.00745733      -0.03405773       0.00911031
C        7.37829164       5.68036406       3.82085636      -0.00854439       0.02656151      -0.01798943
C        6.15538715       7.80403159       3.81963236       0.02214867       0.01276188      -0.00875636
C        4.95751557       9.98470778       3.66370651      -0.00111347       0.01824176       0.01138728
Mn       2.14882929       3.92098427       5.30725495       0.08113651      -0.00725452      -0.10329033
O        1.48326186       5.69412098       5.78041190      -0.04423211       0.05306490      -0.00595840
