50
Lattice="12.336457 0.0 0.0 -6.168228499999997 10.683685154694365 0.0 0.0 0.0 15.0" Properties=species:S:1:pos:R:3:forces:R:3 energy=-443.69698523864054 free_energy=-443.69698523864054 stress="-0.002072107047491829 0.0013174956893576186 -1.9679873573294735e-05 0.0013174956893576186 -0.007419471795006569 6.409073494995326e-07 -1.9679873573294735e-05 6.409073494995326e-07 2.1276716323818144e-05" pbc="T T T"
C        0.00957744      -0.04555049       3.67080113      -0.00562402      -0.00214525      -0.00348902
C       -1.20152771       2.12182700       3.73155779      -0.00173525      -0.00363166       0.01033770
C       -2.44659597       4.24851733       3.64955956      -0.00280616      -0.00531603       0.00484067
C       -3.69310394       6.37500498       3.55321442       0.00633502       0.00394488       0.00597539
C       -4.92987036       8.50161277       3.55562676       0.00175423      -0.00060344      -0.00429702
C        2.48343791      -0.08790169       3.51539128       0.00397314      -0.00543017      -0.00885104
C        1.28804828       2.01694137       3.82862143      -0.00230135       0.00745369      -0.01057157
C       -0.00329465       4.33231502       3.96267311      -0.00712147       0.00261512      -0.01174982
C       -1.25333186       6.40126349       3.86849712      -0.00358480      -0.00054666      -0.00371528
C       -2.45237582       8.50272874       3.57224051      -0.00903586       0.00097579       0.00345741
C        4.95637783      -0.04297288       3.51315205       0.00571159      -0.00481083       0.00333898
C        3.71097078       2.04203971       3.56864175       0.00072071       0.00161371       0.00412922
B        1.04197098       6.55331097       4.86517212       0.00653680      -0.00504638       0.00865358
C        0.00945307       8.54561168       3.84918722      -0.01454777      -0.00692409       0.00201946
C        7.42279754      -0.01866768       3.64771522      -0.00310461       0.01035279       0.00390202
C        6.18776245       2.10876668       3.53814418      -0.00141407       0.00108234      -0.00232606
C        4.94051248       4.26161543       3.69308150      -0.00142308       0.00394592      -0.00892870
C        3.76637495       6.38720999       4.09107146      -0.00436242      -0.00041140      -0.00308076
C        2.45937559       8.53238731       4.00060140       0.00618678       0.00487945      -0.00813933
C        9.88526641      -0.02245678       3.72465684      -0.00316529      -0.00177137      -0.00305234
C        8.66037415       2.11466378       3.59774579       0.00905019      -0.00415678      -0.00285257
C        7.41279210       4.24392835       3.54686814      -0.00251132       0.00018747       0.00874717
C        6.18358102       6.38708014       3.60785131       0.00108611       0.00329910       0.00591046
C        4.93600548       8.50639798       3.77280785       0.00409709      -0.00247577      -0.00967926
C        0.02177006       1.38259748       3.75477238      -0.00238808       0.00037295       0.00323176
C       -1.20176253       3.55045489       3.75920682      -0.00335658      -0.00161948      -0.00314689
C       -2.46633995       5.67030066       3.65713340       0.00365397      -0.00476070       0.00755139
C       -3.69400368       7.79451583       3.53832929      -0.00159988       0.00315459       0.01495116
C       -4.93117077       9.91473702       3.57304438      -0.00017658      -0.00253760       0.00014026
C        2.50095950       1.31078176       3.60832424       0.00020599      -0.00098095       0.00161719
P        1.62258438       3.68061692       4.17048634       0.00342927      -0.00039991       0.00329304
C       -0.06791899       5.72049445       4.15479401       0.00340918       0.00744793      -0.00874446
C       -1.23507052       7.82168313       3.77855468      -0.01571084      -0.00472497       0.00131329
C       -2.44362912       9.91503150       3.50308244       0.00642947      -0.00558057      -0.00416582
C        4.95670319       1.38348223       3.51142263       0.00191409      -0.00223182      -0.00618814
B        3.58774768       3.53952263       3.77127482      -0.00322375       0.00690132      -0.01040159
C        1.21615154       7.89933655       4.16007000       0.00049432       0.00206100       0.00009013
C        0.01840003       9.95601750       3.63213765      -0.00030285      -0.00342995       0.00745191
C        7.42315380       1.40502126       3.56875481       0.00367492       0.00825037       0.00321362
C        6.16795632       3.53597133       3.56994475      -0.00600334       0.00057911       0.00244460
C        4.95674479       5.68801318       3.77341393       0.00211384       0.00239091       0.00075276
C        3.70632994       7.78249341       3.98792678       0.00546423       0.00086935      -0.00726119
C        2.48166025       9.95053069       3.77638636      -0.00375052       0.00963607       0.00296946
C        9.89734094       1.40630292       3.67077377       0.00448953      -0.00589483       0.00557518
C        8.65270328       3.53735142       3.57440071      -0.00145652      -0.00583610       0.00163919
C        7.40968854       5.66617055       3.54123181       0.00389016       0.00388486       0.01011469
C        6.16992619       7.80239942       3.63690262       0.00416346       0.00084167       0.00387840
C        4.94390260       9.93171517       3.72442469      -0.00584452      -0.00393080       0.00163173
Mn       2.93110972       5.15312129       5.39391319       0.00805307       0.00018053       0.00334231
O        1.53294960       6.26855030       6.09484829       0.00971378      -0.00172345      -0.01587324
