50
Lattice="12.336457 0.0 0.0 -6.168228499999997 10.683685154694365 0.0 0.0 0.0 15.0" Properties=species:S:1:pos:R:3:forces:R:3 energy=-438.87871030206657 free_energy=-438.87871030206657 stress="-0.0019113338987646474 -0.003187891505313261 4.792854917018765e-06 -0.003187891505313261 -0.007155965365967181 1.0071137167097563e-05 4.792854917018765e-06 1.0071137167097563e-05 -2.104789995339426e-05" pbc="T T T"
C       -0.01539364       0.00141708       3.99970566       0.01377924       0.00657148       0.01100253
C       -1.26122635       2.13676934       4.04367497      -0.00999411      -0.00222049      -0.00340473
C       -2.48493137       4.27744371       3.86855455       0.01153421       0.00265081      -0.00222644
C       -3.69919883       6.41216140       3.74284990      -0.00038616      -0.00723624       0.00766856
C       -4.93899002       8.54558957       3.84012500      -0.00117803      -0.00341254       0.00217670
C        2.45028069      -0.00886080       3.90030020       0.00172737      -0.00490257      -0.00053535
C        1.18693131       2.12678270       4.02907882      -0.00354304      -0.00471778       0.00148521
C       -0.03351328       4.21419323       3.95593219      -0.00691513       0.00120641       0.00432299
C       -1.20486474       6.38416619       3.70022693      -0.00660872       0.00483342       0.01263973
C       -2.45906468       8.53537430       3.76762498       0.00355040       0.00264893      -0.01229230
C        4.91679017       0.00639633       3.74682125      -0.00772667       0.00591763       0.01199896
C        3.64399290       2.10348795       3.57769120      -0.00004433      -0.00346616      -0.00990037
P        1.57565827       6.25179382       3.06932008      -0.00131834       0.00332106      -0.00419806
C        0.00056021       8.55607701       3.64530949       0.00136766      -0.00096471       0.00184760
C        7.37131016       0.03804001       3.81510767      -0.00640163      -0.00434656      -0.00368982
C        6.13880994       2.15388250       3.61872909       0.00652000      -0.00679628      -0.00372175
C        4.98965157       4.30732371       3.22898691       0.00043733       0.00478506      -0.00331018
B        3.57921080       6.45477657       3.39316757      -0.00683515      -0.00574772      -0.01735885
C        2.46680328       8.64164782       3.70442362      -0.00219851       0.00890498       0.00288122
C        9.85331936       0.03338058       3.96511773       0.01124123       0.00151247      -0.00416967
C        8.60430530       2.15815885       3.87558892       0.00232709       0.00809751       0.00497108
C        7.39387691       4.28917683       3.65622575       0.00600620      -0.00931460      -0.00740033
C        6.15974243       6.43300579       3.58531673       0.00755469       0.00160996       0.00694113
C        4.93395582       8.57795825       3.80658075      -0.00676822       0.00371847      -0.01660832
C       -0.02895951       1.42345840       4.05125619      -0.00622774       0.00390061       0.00281403
C       -1.26438836       3.54584540       3.98411322      -0.00143092      -0.00382167       0.00612240
C       -2.46239693       5.69551266       3.77526822       0.00039431      -0.00024032       0.00504194
C       -3.69918633       7.83352135       3.78305903       0.00287763      -0.00388607       0.00835645
C       -4.94741626       9.96583634       3.93717513       0.00575481      -0.00315266       0.00802903
C        2.42832723       1.41312825       3.87216287       0.00131275      -0.00624509       0.00181091
N        1.14410360       3.50233679       4.13112826      -0.00581055      -0.00191951       0.00639192
C        0.00449659       5.61293382       3.68424093      -0.00947557       0.00474688       0.00452102
C       -1.22130694       7.82004175       3.67831878       0.00278399       0.00273668       0.00477423
C       -2.47657475       9.96315409       3.80631912      -0.00116696       0.00185747      -0.00120633
C        4.90407882       1.43244450       3.64180127       0.00202635       0.00194686      -0.00273882
P        3.51744093       3.56450846       2.59953538      -0.00728733      -0.00472118      -0.00443622
C        1.25888457       7.92074689       3.52198992       0.00344674       0.00581741      -0.00750124
C       -0.01651685       9.98938402       3.74148517      -0.01203075      -0.00145794      -0.00542338
C        7.36579199       1.45612893       3.78588717       0.00531331      -0.00321041       0.00811445
C        6.16997093       3.57116672       3.48861114       0.00150942      -0.00615892      -0.00652836
C        4.93308594       5.72713098       3.36186003       0.00813974       0.00845625      -0.00623836
C        3.69210365       7.93047387       3.65321799      -0.00959217       0.00056777      -0.00925452
C        2.44614048      10.03714372       3.86722148       0.00276347       0.00678052       0.00806221
C        9.84026467       1.44685947       3.99109104      -0.00501744       0.00035271      -0.00283726
C        8.61230538       3.57625440       3.81539862       0.01294529       0.00659565       0.00119073
C        7.39713076       5.71373273       3.66280087       0.00284735      -0.01018064       0.00313720
C        6.16611441       7.84773893       3.75542073      -0.00486957       0.00220491      -0.00298724
C        4.92065462       9.99423823       3.95387277       0.01540932       0.00521770      -0.00358177
Mn       2.63610408       4.46531068       4.73846577      -0.00663034      -0.00006990       0.00150444
O        3.12322659       4.61015951       6.28458380      -0.00411251      -0.00876964       0.00374300
