51
Lattice="12.336457 0.0 0.0 -6.168228499999997 10.683685154694365 0.0 0.0 0.0 15.0" Properties=species:S:1:pos:R:3:forces:R:3 energy=-452.3576401646329 free_energy=-452.3576401646329 stress="-0.006910132519713718 0.002063031118865553 -1.4623876562052814e-05 0.002063031118865553 -0.005419884654151792 -1.7205809597586556e-06 -1.4623876562052814e-05 -1.7205809597586556e-06 1.8930781365479385e-05" pbc="T T T"
C       -0.01499577      -0.00497921       3.73799196       0.00701180       0.00047441       0.00478609
C       -1.24454866       2.13193790       3.80749680      -0.00146783       0.00477655      -0.00479638
C       -2.47379670       4.27041688       3.83095112       0.00072413      -0.00770134      -0.00947987
C       -3.70873841       6.40580632       3.76031077       0.00158078       0.00688714       0.00961034
C       -4.96037560       8.53867800       3.69372413      -0.00759666      -0.00146193      -0.00317608
C        2.44881371       0.00025283       3.76113424       0.00031306       0.00443579      -0.00593632
C        1.21723604       2.13804209       3.78047494      -0.00390086      -0.00148216       0.00044508
C       -0.02598387       4.27479400       3.87092953      -0.00384243       0.00467105       0.00829066
C       -1.25106410       6.41481514       3.85871520       0.00120471      -0.00397882       0.00159814
C       -2.49408598       8.54726073       3.78600345       0.00509236       0.00373717      -0.00004730
C        4.92135572      -0.00910113       3.77511007      -0.00726654      -0.00280051       0.00928643
C        3.70229602       2.12333387       3.74227372       0.00780443      -0.00496606      -0.00536803
B        2.48582673       4.31324038       3.82223569      -0.00589328      -0.00170168       0.00287218
C        1.20449384       6.43638321       3.97255859       0.01206671      -0.00971155       0.00013397
C       -0.02959691       8.54580416       3.79846762       0.00035901       0.00857451      -0.00331051
C        7.38730027      -0.00626201       3.77923943       0.00589746       0.00223809      -0.00169997
C        6.17684745       2.11025865       3.75735981      -0.00151617       0.00113256       0.00040761
C        4.98294497       4.22646262       3.61161529       0.00184774      -0.00299765       0.00113867
S        3.57474967       6.31728401       2.65675926       0.00183520      -0.00336797       0.01028588
C        2.43448607       8.56262108       3.67382404      -0.00780099      -0.01146164       0.00195978
C        9.85993485      -0.00360247       3.74452603       0.00327378       0.01051480      -0.00020601
C        8.63528498       2.12741760       3.79882330      -0.00697993       0.00186222       0.00301380
C        7.41902593       4.26110438       3.73813521       0.00985009      -0.00013922      -0.00631923
C        6.16885006       6.39988284       3.57829487      -0.00280631      -0.00581723      -0.00231833
C        4.91753610       8.53683596       3.59021252      -0.00939812       0.00452108       0.00023223
C       -0.01512908       1.41833648       3.77918314      -0.00284756      -0.00139048       0.00612058
C       -1.25131623       3.55663355       3.84327253       0.00078973       0.00125756       0.00137596
C       -2.47585262       5.69634766       3.82233910      -0.00279507      -0.00637246       0.00918801
C       -3.72231952       7.83036692       3.74727410       0.00125314       0.00929475      -0.00028425
C       -4.95365383       9.96695092       3.73151706       0.00420311      -0.00093428      -0.00893269
C        2.45398949       1.42386064       3.76678010       0.00286527       0.00284616      -0.00583552
C        1.18301496       3.56048333       3.80787387      -0.00952799      -0.00244709       0.00775687
C       -0.00734124       5.70896038       3.91481191       0.00494919       0.00094217      -0.00398998
C       -1.26170102       7.83622940       3.82371411       0.00495258       0.00070682       0.00263335
C       -2.48728318       9.96902539       3.77275095      -0.00508281       0.00081843       0.00386713
C        4.93693529       1.40612632       3.75699875       0.00279758      -0.00696007       0.00051753
C        3.75769338       3.53475723       3.68455756       0.00179823      -0.00408939       0.00166520
C        1.20442789       7.83110192       3.77743347      -0.00672423      -0.00637882      -0.00144199
C       -0.01562742       9.96547206       3.78120857      -0.00108359       0.01072169       0.00473932
C        7.40327336       1.40935663       3.78572200      -0.00364298       0.00244273       0.00335774
C        6.20742619       3.52844641       3.70375069       0.00665223       0.00204935      -0.00601271
C        4.98451095       5.63954296       3.46033769      -0.00046386      -0.00532235       0.00033838
C        3.65995970       7.87424187       3.48991841      -0.00548216      -0.00443999      -0.00147217
C        2.45281569       9.97849910       3.73876905       0.00582782      -0.00567704      -0.00067511
C        9.86332357       1.41812504       3.79263900      -0.00441119       0.01225755      -0.00508728
C        8.64152832       3.55094198       3.79943820       0.00335615      -0.00528650      -0.00825163
C        7.40484892       5.68717445       3.70155074       0.00515436       0.00073928      -0.00267064
C        6.14546138       7.82306732       3.59755382      -0.01354674      -0.00411756      -0.00228981
C        4.91963204       9.96303413       3.70069689       0.00325281       0.00911952       0.00356781
Mn       2.80420274       5.89609846       4.95556435      -0.00222649       0.00912571       0.00107104
O        3.02424006       5.99405413       6.54956720       0.00959033      -0.00514330      -0.01065795
