49
Lattice="12.336457 0.0 0.0 -6.168228499999997 10.683685154694365 0.0 0.0 0.0 15.0" Properties=species:S:1:pos:R:3:forces:R:3 energy=-435.9783317079549 free_energy=-435.9783317079549 stress="-0.002445418897646072 -0.0003345694116799397 2.6152984970086534e-06 -0.0003345694116799397 -0.01002611297813885 -3.343351951679658e-06 2.6152984970086534e-06 -3.343351951679658e-06 3.369957035141558e-06" pbc="T T T"
C       -0.00901633      -0.03415247       3.77833599       0.00754512       0.00022984      -0.00979209
C       -1.23161401       2.12301078       3.81020797       0.00162654       0.00331064      -0.00291762
C       -2.47397258       4.25646689       3.60718764      -0.00425327      -0.00231407       0.00017321
C       -3.71202802       6.38546659       3.51351700      -0.00619180       0.00278906      -0.00039653
C       -4.94522622       8.51376641       3.58948097       0.00391712      -0.00655981      -0.00386080
C        2.46303751      -0.07621258       3.70118403      -0.00345199       0.00390557      -0.00160439
C        1.25211477       2.01327691       4.07064991      -0.00421568       0.00056982      -0.00003216
C       -0.02289927       4.28936985       3.78412329      -0.00182491       0.00411460       0.01572909
C       -1.24425075       6.40172527       3.55907049       0.00143797      -0.00229290      -0.00328197
C       -2.46947456       8.51522104       3.54054014      -0.00433450      -0.00141093       0.00968064
C        4.92795855      -0.02202653       3.63704790      -0.00024196      -0.00401741       0.00716852
C        3.67716064       2.06202982       3.82070502       0.00724012      -0.00447276      -0.00254683
B        1.27427338       6.41103419       3.96873351      -0.00130794       0.00293111       0.00564440
C       -0.00695768       8.54838759       3.66981908       0.00058630       0.00817198      -0.00683415
C        7.39300689       0.00972998       3.69231558      -0.00739334       0.00704477      -0.00548065
C        6.15165742       2.13220776       3.69113875       0.00879615      -0.00468179      -0.00547196
C        4.90648566       4.28247413       3.79453047      -0.00268197      -0.00251001      -0.00222341
C        3.69555078       6.41773311       3.86950253      -0.00829353      -0.00757703       0.00526114
C        2.46571885       8.57853224       3.80947493       0.00076943       0.00796214      -0.00121056
C        9.86723729       0.00501137       3.74806037      -0.00331095      -0.00117421       0.00287513
C        8.62883020       2.13511915       3.68115278       0.00222184      -0.01161558      -0.00042567
C        7.38083175       4.26166102       3.61002778      -0.00174694      -0.00084441       0.00455963
C        6.15565485       6.39973133       3.59554958       0.00032543       0.00362916       0.00639615
C        4.92373646       8.53229811       3.70728785       0.00845177       0.00361923       0.00638791
C       -0.00597263       1.38782393       3.90757392      -0.00064540       0.00244706      -0.00567524
C       -1.23284583       3.54145869       3.72284251       0.00588851       0.00371207      -0.00644877
C       -2.47953309       5.67730177       3.53081484      -0.00627983       0.00208435       0.00280056
C       -3.70947082       7.80643253       3.52526553      -0.00174666      -0.00320785       0.00218971
C       -4.94835986       9.92481037       3.68830612       0.00417293      -0.00800894       0.00004706
C        2.47345085       1.32077002       3.86845788      -0.00225545       0.00836810      -0.00352529
P        1.54825499       3.69803893       4.34044324       0.01205959      -0.00704660       0.00108225
C       -0.02966077       5.69506310       3.69904172       0.00440009      -0.00437763      -0.00744320
C       -1.23431110       7.82100762       3.57399140      -0.00027587       0.00095418       0.00389853
C       -2.46611821       9.92847894       3.60668848      -0.00423334      -0.00056200       0.00805844
C        4.92190632       1.40523060       3.70655783       0.01116357      -0.00536551       0.00416329
B        3.55665016       3.57060863       3.96904333      -0.01276271      -0.00414613       0.01115434
C        1.23765481       7.88900969       3.81647207       0.00065722       0.00691502      -0.00406956
C       -0.00822978       9.97241304       3.65247548      -0.00084236       0.00683983      -0.00748908
C        7.38918996       1.43010872       3.67899449       0.00240866      -0.00265840      -0.00535163
C        6.13651808       3.55618660       3.68941056       0.00060302      -0.00543802      -0.00279102
C        4.92200045       5.70072243       3.74037568      -0.00001937      -0.00269349      -0.00080329
C        3.68440871       7.83198413       3.81091410       0.00462289       0.00062644      -0.00290661
C        2.46468030       9.99351155       3.73980739      -0.00968685       0.01052932       0.00440915
C        9.86829453       1.42538842       3.74248893       0.00361708      -0.00447025      -0.00005131
C        8.62219318       3.55458192       3.62287524      -0.00266637      -0.01068040       0.00170350
C        7.38509053       5.68083507       3.55725200      -0.00381484       0.00440169      -0.00169146
C        6.15280092       7.81588388       3.61910488       0.00509209       0.00244040      -0.00508840
C        4.92591445       9.95469906       3.74016324       0.00465477       0.00527488       0.00091879
Mn       2.65507160       5.45433753       5.15571515      -0.00778036       0.00525490      -0.00488778
