53
Lattice="12.336457 0.0 0.0 -6.168228499999997 10.683685154694365 0.0 0.0 0.0 15.0" Properties=species:S:1:pos:R:3:forces:R:3 energy=-461.3217686256474 free_energy=-461.3217686256474 stress="-0.006254391936603879 0.0020162738988639692 -1.5718211946002592e-05 0.0020162738988639692 -0.004994462900102998 1.234187165162801e-05 -1.5718211946002592e-05 1.234187165162801e-05 1.1554970174037774e-05" pbc="T T T"
C        0.00495833      -0.09392737       3.75676002       0.00279237      -0.00248961       0.00126467
C       -1.22429530       2.04254381       3.85835893       0.00054427      -0.00073517       0.00364403
C       -2.45374551       4.17928076       3.89683772       0.00078117       0.00467747      -0.00235802
C       -3.69037911       6.31569616       3.81300079      -0.00096718      -0.00472378       0.00460804
C       -4.94183913       8.44693915       3.71197292      -0.00073139      -0.00313910      -0.00110066
C        2.46824488      -0.09435723       3.80732232      -0.00150604       0.00586319       0.00842133
C        1.23913338       2.04408675       3.86954126       0.00010704      -0.00115933       0.00503480
C       -0.00239088       4.18700743       3.98257428      -0.00195746      -0.00439622       0.00021009
C       -1.23426657       6.32580429       3.93326736       0.00437112       0.00048816      -0.00363522
C       -2.47434316       8.45561876       3.82693221      -0.00582942       0.00502891       0.00443315
C        4.94259830      -0.10334408       3.82260804       0.00403594      -0.00210226       0.00137260
C        3.72087718       2.02702772       3.84357645       0.00068108      -0.00288363      -0.00745294
B        2.50434571       4.22465335       3.98207830      -0.00643510      -0.00272047      -0.00493413
C        1.22168539       6.35179405       4.06253690      -0.00430563       0.00628846      -0.00242260
C       -0.00741893       8.45151706       3.82474956       0.00068893      -0.00403296       0.00134649
C        7.41006868      -0.10070794       3.79522803      -0.00206389      -0.00054712       0.00060578
C        6.19737555       2.01698615       3.81972143      -0.00367447       0.00165463       0.00388870
C        4.99789202       4.13726171       3.73381358       0.00047053       0.00099118      -0.00206589
S        3.61529267       6.20162884       2.68818557      -0.00221158       0.00744808       0.00645373
C        2.46182141       8.46312379       3.64272980       0.00458414       0.00034178      -0.00328619
C        9.87981111      -0.09264862       3.73561958      -0.00181266      -0.00265173       0.00997163
C        8.65498900       2.03595384       3.83521187      -0.00028022      -0.00067555       0.00096599
C        7.43756581       4.17040324       3.79620641       0.00179107      -0.00015701       0.00753316
C        6.18625061       6.31021836       3.62428249      -0.00113100       0.00619796       0.00839951
C        4.93838387       8.45060604       3.54806245      -0.00307732       0.00407501      -0.00475790
C        0.00520489       1.32743032       3.83170581       0.00240166      -0.00176260       0.00502842
C       -1.22942851       3.46799739       3.92229918      -0.00298745       0.00033759      -0.00522746
C       -2.45736224       5.60651123       3.89198392       0.00421591       0.00288490      -0.00739398
C       -3.70309364       7.73960644       3.78703536      -0.00163914      -0.00502378      -0.00634579
C       -4.93405943       9.87546812       3.75521315       0.00283480      -0.00254094       0.00010698
C        2.47375928       1.32927916       3.84637695       0.00001096       0.00358575      -0.00403924
C        1.20600494       3.46747449       3.93642855      -0.00529743      -0.00429352      -0.00517659
C        0.01781109       5.62330917       4.01742814       0.00474063      -0.00372581      -0.01072083
C       -1.24063373       7.74502530       3.87093435      -0.00352684       0.00074694      -0.00351190
C       -2.46704982       9.87571052       3.81681730      -0.00121590       0.00735740      -0.00101866
C        4.95757393       1.31136271       3.82706490       0.00042751      -0.00303890       0.00146885
C        3.77272529       3.44181615       3.83240764      -0.00149945      -0.00228648      -0.00751775
C        1.23062337       7.72745137       3.80987925       0.00485503       0.00463532       0.00447855
C        0.00574408       9.87079477       3.80847151       0.00193805      -0.00566043       0.00116009
C        7.42409654       1.31539780       3.82221657      -0.00434929       0.00136518      -0.00359142
C        6.22584181       3.43751222       3.78170897       0.00116863       0.00103611       0.00190693
C        4.99282692       5.54987079       3.55981285       0.00767689       0.00020758      -0.00713569
C        3.68453354       7.79729506       3.40841701       0.00175371      -0.00053920      -0.00430695
C        2.47432325       9.88269067       3.72315412      -0.00092787      -0.00150636       0.00571801
C        9.88348157       1.32817812       3.81627729       0.00013814      -0.00156672      -0.00403208
C        8.66124306       3.45995094       3.85053699       0.00346371       0.00064951      -0.00457940
C        7.42157023       5.59784842       3.75415545      -0.00237220      -0.00068688       0.00590150
C        6.16483196       7.73122073       3.59968657      -0.00460719       0.00629048       0.00808199
C        4.94058939       9.87651249       3.68425280      -0.00144430       0.00041638       0.00645720
Mn       2.89686568       5.79225966       5.11262890      -0.00773825      -0.00337381       0.00033088
O        3.59974932       7.08392852       6.39174021       0.01440808      -0.00594462      -0.00170160
O        2.44656071       7.82766438       6.89253643       0.00705161       0.00070656       0.00341935
H        2.42958602       7.49669567       7.81245130      -0.00434432       0.00108942      -0.00389956
