50
Lattice="12.336457 0.0 0.0 -6.168228499999997 10.683685154694365 0.0 0.0 0.0 15.0" Properties=species:S:1:pos:R:3:forces:R:3 energy=-442.0186237946012 free_energy=-442.0186237946012 stress="0.0008409597134429634 -0.0019480641901205265 1.7845668250273474e-06 -0.0019480641901205265 -0.0013783638539103579 3.0453433831284896e-06 1.7845668250273474e-06 3.0453433831284896e-06 1.4010653453162103e-05" pbc="T T T"
C        0.00796907      -0.00288063       3.69379412       0.01110562      -0.00365181       0.00140614
C       -1.23200646       2.13374360       3.70834762       0.00467823       0.00304591       0.00355194
C       -2.47005538       4.26636083       3.63909313      -0.00181242      -0.01040783       0.00872160
C       -3.69892356       6.40033204       3.58225495       0.00366417       0.00279372      -0.00041347
C       -4.92773888       8.53721468       3.60890249       0.00200363      -0.00608306       0.00280683
C        2.47598541      -0.03798250       3.71297692       0.00312599      -0.01540956      -0.00000324
C        1.25597975       2.09832152       3.79791833       0.00310846      -0.00193401      -0.00171198
C        0.01283789       4.28469334       3.76122327      -0.00969257       0.00778531       0.00318368
C       -1.24732861       6.41126843       3.65716595      -0.01044255       0.00319990       0.00632253
C       -2.45650350       8.53388344       3.64733412      -0.00496115       0.00031059       0.00907629
C        4.94295358      -0.01410073       3.75031671      -0.00752998       0.00594890      -0.00280258
C        3.67959258       2.11204406       3.82830027      -0.00235652      -0.00570440       0.00686210
C        1.19549606       6.38267327       4.03428527      -0.00181825      -0.00837448      -0.01038344
C        0.02101082       8.52198486       3.78280564      -0.00865471       0.01486959       0.00534331
C        7.40748272      -0.00898798       3.77138913       0.00265482       0.00966194       0.00339575
C        6.15294218       2.15039231       3.74997147      -0.00659096       0.00781143      -0.00259579
C        4.87843459       4.33732538       3.75288786      -0.00209229       0.01444148       0.00354811
O        3.80975519       6.48912680       3.79401443      -0.00774497      -0.00473840       0.00239583
C        2.50153884       8.51562531       3.84719905       0.00512999      -0.00806960       0.00481708
C        9.87048276      -0.00694524       3.73205577       0.00823193       0.00960024       0.00367624
C        8.62852036       2.13610449       3.70191116      -0.00136983      -0.00413686      -0.00190325
C        7.37850552       4.27428671       3.64666631       0.00329389      -0.00719317      -0.00641163
C        6.18263826       6.42619305       3.59371914       0.00591972      -0.00388960      -0.01314306
C        4.95508401       8.55446642       3.68294201       0.01036457       0.00004007      -0.01033991
C        0.00977104       1.42529193       3.73402523       0.00336000      -0.00244302       0.00129070
C       -1.21815359       3.55870707       3.68609288      -0.00026763       0.00037072       0.01199078
C       -2.46931648       5.68841485       3.60913929      -0.00397099      -0.00745085       0.00518363
C       -3.68967466       7.82417010       3.59708319      -0.00092880       0.00260340       0.00305883
C       -4.92908790       9.95875357       3.66720866       0.00618798      -0.01149344       0.00087714
C        2.47170624       1.37855679       3.79020254       0.00078543      -0.01103671      -0.00398416
B        1.41503240       3.61475555       3.88850402      -0.00990897       0.00557123       0.00063752
C       -0.01345525       5.70459330       3.79014869      -0.01236784       0.00418828      -0.00599360
C       -1.22268727       7.82700403       3.68866773      -0.00761326       0.00666628       0.00475106
C       -2.45389067       9.95089302       3.70114550      -0.00052927      -0.00585779       0.00501661
C        4.92589648       1.42471410       3.78199712      -0.00219984       0.00144932       0.00101524
B        3.48972827       3.63267651       3.90814896       0.00764075       0.00046693       0.00203379
C        1.25841355       7.77420699       3.89764038      -0.00806907      -0.00389812      -0.00425574
C        0.01018876       9.95293178       3.76781359      -0.00525033       0.01855190       0.00482010
C        7.39265097       1.42546612       3.73908061      -0.00460327       0.00709018      -0.00368090
C        6.12296295       3.58306435       3.71050173      -0.00588453       0.00744902      -0.00391058
C        4.97260867       5.74345015       3.69108500      -0.00092155       0.00862878      -0.00699243
C        3.75123942       7.86641282       3.78960473       0.00894221      -0.00333807      -0.00181676
C        2.47786565       9.94824882       3.78066035       0.00743367       0.00162313       0.00794832
C        9.86851963       1.42426547       3.70874958       0.00395187       0.00866707       0.00092275
C        8.62554107       3.56120294       3.65697920       0.00040822      -0.01250909      -0.00831083
C        7.40320713       5.69090138       3.59313783       0.00934467      -0.00570276       0.00104176
C        6.18315692       7.84170902       3.61002451       0.00649409      -0.00588033      -0.00713907
C        4.94076036       9.97826927       3.70000680       0.00990641       0.00496938      -0.00701790
Mn       2.35066535       5.07070423       4.97770040      -0.00203216      -0.00933693      -0.00665032
O        2.25600106       5.01312285       6.62177221       0.00187740       0.00073519      -0.00623504
