52
Lattice="12.336457 0.0 0.0 -6.168228499999997 10.683685154694365 0.0 0.0 0.0 15.0" Properties=species:S:1:pos:R:3:forces:R:3 energy=-449.91093529141153 free_energy=-449.91093529141153 stress="-0.00045352914085366894 -0.0014273285451802372 -2.7190052359939655e-07 -0.0014273285451802372 -0.010546819623658471 4.193330351092131e-05 -2.7190052359939655e-07 4.193330351092131e-05 5.6527649546935494e-05" pbc="T T T"
C       -0.03550005      -0.02582847       3.59081145      -0.00655033       0.00471794      -0.00208182
C       -1.26533622       2.13300986       3.62247638       0.00707298       0.01052973       0.00269656
C       -2.49239604       4.26488608       3.64296816      -0.00119376       0.00729887      -0.00096496
C       -3.72624579       6.39328479       3.59992584       0.00347075      -0.01019991       0.00713034
C       -4.96096679       8.52091086       3.57303833       0.00145839       0.00612825       0.00274530
C        2.43556900      -0.07652999       3.70474603       0.00781801      -0.00065713      -0.00176070
C        1.21149433       2.05031504       3.71070457       0.00158993       0.00215719       0.01655990
C        0.00033378       4.26836866       3.75664725       0.00730992      -0.00751052       0.01330635
C       -1.24961085       6.39496038       3.74797951       0.00695264       0.00756387      -0.00156175
C       -2.48372820       8.51484819       3.69325053      -0.01596842      -0.00160341       0.00148159
C        4.89836289      -0.01413797       3.83373736       0.01210609       0.00468015      -0.00292274
C        3.62255109       2.03741130       4.05011331      -0.01442247      -0.00402177      -0.00461283
B        1.27402061       6.41200734       4.10781480      -0.00426768       0.00018402      -0.01239699
C       -0.02563501       8.55482195       3.84708500      -0.00051228      -0.00370343       0.00945384
C        7.36136597       0.02729989       3.78559066      -0.00439286      -0.00905013       0.00679561
C        6.10845172       2.14965752       3.82695738      -0.00035864      -0.00079248      -0.00430979
C        4.88281795       4.32786146       3.79040064       0.00019474      -0.01060003      -0.00022526
C        3.68216239       6.45335177       3.98191799      -0.00402258      -0.00297994       0.00380663
C        2.44462388       8.59837071       3.87284549       0.00129073       0.00746255      -0.00398626
C        9.83674720       0.01927116       3.66346926      -0.00433160      -0.00116811       0.01342168
C        8.59197803       2.14796092       3.67821477      -0.00239927      -0.00417428      -0.00383799
C        7.35276438       4.27352741       3.65321987      -0.00182014       0.00875257      -0.00356084
C        6.13994407       6.42169682       3.58956522       0.00147255       0.00458155       0.00380216
C        4.90421718       8.55168951       3.65868956       0.00082748      -0.00538899       0.00830674
C       -0.03666565       1.39828415       3.61900298       0.00348190       0.00825146       0.00041210
C       -1.24555186       3.55345040       3.65896285       0.00138388       0.00832114       0.01222089
C       -2.49232154       5.68483471       3.65335135       0.01084094       0.00531771      -0.00350887
C       -3.72225258       7.81176784       3.60635705      -0.01116943      -0.01258225       0.00213687
C       -4.97193385       9.92989408       3.60343033       0.00030280       0.00961103      -0.00392747
C        2.41840482       1.32067078       3.82195505      -0.00525640      -0.00447135      -0.00469760
B        1.35711099       3.54512634       3.81009740       0.00907119      -0.00376474      -0.00977955
C       -0.03080514       5.67206094       3.85230403       0.00183578      -0.00602810      -0.01228759
C       -1.24755040       7.81746043       3.77054706      -0.00952157       0.00668507       0.00292586
C       -2.48884775       9.92967934       3.74654844       0.01030319       0.00126338       0.00958566
C        4.88696107       1.41326505       3.92433748      -0.00513308       0.00740884       0.00800369
P        3.27384959       3.72834608       4.24725164      -0.00108497      -0.00471423       0.01545748
C        1.22405473       7.89701837       3.95498877       0.00537764       0.00442032       0.01332693
C       -0.03501132       9.98261695       3.82102165       0.00410981      -0.00781760      -0.00433649
C        7.34973784       1.44810186       3.75820524      -0.00494698      -0.01067882      -0.00008530
C        6.09870934       3.57329932       3.74483811       0.00470597      -0.00214880      -0.01924857
C        4.89394911       5.74549553       3.73939871       0.00182136      -0.00662970       0.00617725
C        3.66898383       7.85930619       3.84517628      -0.00254307       0.00165411      -0.01021186
C        2.43535823      10.01148263       3.75995873      -0.00533419       0.00534573       0.01024404
C        9.83213502       1.43779213       3.63836474       0.00758489       0.00095075       0.00233152
C        8.59487376       3.56636590       3.64997458      -0.00528969       0.00346425      -0.01442346
C        7.36652860       5.69256357       3.59189008       0.00117728       0.00660568      -0.00910292
C        6.13544335       7.83334743       3.58400561       0.00603459       0.00477150       0.00840910
C        4.89904510       9.97000202       3.62163985      -0.00721784      -0.00574424      -0.01041240
Mn       2.58128226       5.63438413       5.42045573      -0.00305324       0.00915612      -0.01270486
O        3.84024360       5.12905686       6.80158576      -0.00388803      -0.00363489      -0.00655846
O        2.96884080       4.94015138       7.96683675      -0.00006131      -0.00743746      -0.01811259
H        3.10997157       5.78477943       8.43900513       0.00514442      -0.00978147       0.00088183
