50
Lattice="12.336457 0.0 0.0 -6.168228499999997 10.683685154694365 0.0 0.0 0.0 15.0" Properties=species:S:1:pos:R:3:forces:R:3 energy=-441.67995701938 free_energy=-441.67995701938 stress="-0.003175421678053725 0.001981990443608481 -1.8572910098542587e-05 0.001981990443608481 -0.0018255055098959716 1.0873297782233927e-05 -1.8572910098542587e-05 1.0873297782233927e-05 -1.1791251165368391e-05" pbc="T T T"
C        0.00405838      -0.00355549       3.79553380      -0.01365922      -0.00151202      -0.00738228
C       -1.22601430       2.13192343       3.78739160       0.00321953       0.00423157       0.00278383
C       -2.49295739       4.27140116       3.64410557      -0.00183699       0.00538285      -0.00517537
C       -3.72598954       6.40901756       3.59935305      -0.00024308       0.00187539      -0.00767061
C       -4.94218643       8.54598535       3.68140108      -0.00165254      -0.00173693       0.00162535
C        2.47890275       0.01184195       3.71937994       0.00091366       0.00139244       0.00047809
C        1.26783623       2.13836435       3.92697306      -0.00428572      -0.00142189       0.00763052
C       -0.06937300       4.28798108       3.87658029      -0.00706273      -0.00083972       0.01379863
C       -1.26794460       6.42172508       3.67830298      -0.00340168      -0.00044992      -0.00588132
C       -2.47877214       8.54949286       3.63934623       0.00311504      -0.00043106       0.00645743
C        4.93367213      -0.00408171       3.64140717       0.01272576       0.00446411       0.00345579
C        3.74775867       2.11528221       3.70047481       0.00287087       0.00136731       0.00281998
B        1.25609077       6.40029996       4.00028674      -0.00559015      -0.00334516       0.00469333
C       -0.00936647       8.55322517       3.72649285      -0.00353170       0.00539318       0.00389468
C        7.40922290      -0.00498171       3.68526549       0.01059606      -0.00408617       0.00211219
C        6.18195326       2.12309768       3.57795256      -0.00099149      -0.00505649       0.00511436
C        4.96006128       4.22943790       3.63624631      -0.00556135      -0.00337946       0.00250438
C        3.68000172       6.36031064       3.94689553       0.00493516      -0.00382702      -0.01204272
C        2.47368534       8.55248627       3.85745202       0.00599541       0.00081370      -0.00676049
C        9.87746477      -0.00300073       3.77187333       0.00548368      -0.00529721      -0.00903195
C        8.64453407       2.12996248       3.64392273       0.00565265      -0.00321333       0.00492094
C        7.39260760       4.26971135       3.57274453      -0.01401152       0.00624861      -0.00514278
C        6.14270967       6.39219287       3.64765808      -0.00284772       0.00830033      -0.00137893
C        4.92957287       8.52642700       3.79688447       0.00034601      -0.00370692      -0.01070621
C        0.01850881       1.43186104       3.85045938      -0.00482745      -0.00068074      -0.00433248
C       -1.26290118       3.55022900       3.75080694      -0.00339465       0.00313669       0.00197337
C       -2.50182980       5.69794137       3.62115293      -0.00057478       0.00369893      -0.00448885
C       -3.71515598       7.83536005       3.62898625       0.00102628      -0.00132431      -0.00089724
C       -4.92984210       9.97416675       3.73805127      -0.00997326       0.00030952      -0.00332323
C        2.50385010       1.44516553       3.79287182       0.00037688       0.00357929       0.00132917
B        1.22487883       3.60686535       4.16168770      -0.01385854      -0.00486660       0.00316606
C       -0.06866827       5.69386569       3.81751774      -0.00995226      -0.00262721       0.00718091
C       -1.24847234       7.84363854       3.67466417      -0.00075407      -0.00116341      -0.00592071
C       -2.46992640       9.97704057       3.65839326       0.01045771       0.00326777      -0.00036802
C        4.95008941       1.41999617       3.61994203       0.00210486      -0.00014991      -0.00011602
O        3.78789034       3.48893097       3.61042626       0.00638193      -0.00468422      -0.00568488
C        1.23512553       7.87996805       3.84933996      -0.00167913       0.00822062       0.00615232
C       -0.00066657       9.97367471       3.67159264       0.00977196       0.00341769       0.00442416
C        7.40837546       1.41931079       3.62081967       0.00389280      -0.00614352       0.00416561
C        6.16882926       3.54117592       3.56220407      -0.00892345      -0.00407267       0.00438132
C        4.89687101       5.65831187       3.71974350       0.00556454      -0.00067544       0.00951461
C        3.69021543       7.78472801       3.88141554       0.00574504      -0.00201193      -0.00008086
C        2.47701868       9.97430070       3.76877777       0.00917487      -0.00137985      -0.00582144
C        9.87774199       1.41901565       3.72822810       0.01007179      -0.00462471      -0.00551779
C        8.62499635       3.55578319       3.60594585      -0.00572357       0.00536549      -0.00936625
C        7.37487264       5.68950888       3.59036738      -0.00584552       0.00912530       0.00414151
C        6.15691449       7.82074252       3.70795844      -0.00029175       0.00240496       0.00989734
C        4.93777899       9.95890101       3.79648586      -0.00586530      -0.00859609      -0.01240825
Mn       2.46802174       5.18887048       4.95410707       0.00075364       0.00808419       0.00580707
O        2.57992341       5.06222609       6.59323065       0.01516350      -0.00877601       0.00507571
