51
Lattice="12.336457 0.0 0.0 -6.168228499999997 10.683685154694365 0.0 0.0 0.0 15.0" Properties=species:S:1:pos:R:3:initial_magmoms:R:1:forces:R:3 energy=-447.06894356831253 free_energy=-447.06894356831253 stress="0.0012612270989618944 -0.0016900600699019032 3.2491228260108415e-06 -0.0016900600699019032 -0.0017438242410196764 -2.5140665976256732e-06 3.2491228260108415e-06 -2.5140665976256732e-06 -1.941021911672608e-06" pbc="T T T"
C       -0.00523409      -0.04297830       3.65506241       0.00000000      -0.00403238       0.00098287       0.00290486
C       -1.24280436       2.09578501       3.72619586       0.00000000       0.00069427       0.00619052       0.00064459
C       -2.48102609       4.22556036       3.68041456       0.00000000       0.00395546      -0.00221846      -0.00569460
C       -3.71550768       6.35870606       3.57683237       0.00000000       0.00338194      -0.00684515      -0.00020621
C       -4.94396610       8.49398614       3.55782613       0.00000000      -0.00390612       0.00289863       0.00323293
C        2.46060911      -0.08122914       3.66669388       0.00000000       0.00136785       0.00150447       0.00305002
C        1.24524418       2.05678182       3.78357776       0.00000000      -0.00396755      -0.00073397      -0.00132693
C        0.01391361       4.24447861       3.82758922       0.00000000       0.00266501       0.00575929      -0.00012850
C       -1.26483071       6.37070511       3.68659953       0.00000000       0.00408239       0.00191297      -0.00165491
C       -2.47331040       8.49237980       3.62704621       0.00000000      -0.00340375      -0.00073013      -0.00511787
C        4.92746175      -0.05386253       3.70983610       0.00000000       0.00055453       0.00500851       0.00263645
C        3.66575722       2.06334344       3.78040100       0.00000000      -0.00093467       0.00398009       0.00514579
C        1.16795002       6.36884915       4.03228307       0.00000000      -0.00228259      -0.00349678       0.00207572
C        0.00268517       8.48911855       3.75392297       0.00000000      -0.00199535      -0.00414369      -0.00133998
C        7.39430925      -0.04573945       3.74127310       0.00000000      -0.00477727      -0.00108053      -0.00177793
C        6.13819436       2.11134340       3.72083128       0.00000000      -0.00329424       0.00505525      -0.00303066
C        4.85303115       4.29442891       3.70816550       0.00000000      -0.00152779      -0.00228205       0.00717912
O        3.78259668       6.45051007       3.68312345       0.00000000       0.00580547       0.00400573      -0.00140935
C        2.48861785       8.47926414       3.77878804       0.00000000       0.00204041      -0.00023780       0.00592958
C        9.85843263      -0.04345760       3.69897616       0.00000000       0.00648219      -0.00410443       0.00037624
C        8.61600565       2.09765232       3.70280954       0.00000000      -0.00121874      -0.00336503       0.00128313
C        7.36251645       4.23340014       3.63455362       0.00000000      -0.00352884       0.00101453       0.00178362
C        6.16245488       6.38138319       3.52133477       0.00000000      -0.00462507      -0.00093700       0.00955731
C        4.93878756       8.51546293       3.59452312       0.00000000       0.00533053      -0.00352003      -0.00147146
C       -0.00190809       1.38468561       3.72460899       0.00000000      -0.00551441       0.00141437      -0.00187941
C       -1.22606705       3.52063918       3.73913074       0.00000000       0.00497083       0.00600516      -0.00208804
C       -2.48531470       5.64792790       3.63928257       0.00000000       0.00883076      -0.00410167      -0.00243504
C       -3.70613211       7.78186911       3.57247819       0.00000000      -0.00417629      -0.00306387      -0.00215572
C       -4.94477346       9.91513584       3.62052460       0.00000000      -0.00256597       0.00559808      -0.00542433
C        2.45771654       1.33224946       3.74721303       0.00000000      -0.00082327       0.00175879       0.00409373
B        1.41964521       3.56988067       3.90121841       0.00000000       0.00164267      -0.00586335      -0.00405984
C       -0.02397791       5.66955161       3.83649237       0.00000000       0.00082851       0.00143363      -0.00320288
C       -1.23970933       7.78729406       3.68343000       0.00000000      -0.00206616       0.00016513      -0.00570362
C       -2.46884659       9.90899776       3.66202452       0.00000000       0.00247051       0.00089527       0.00376483
C        4.91210371       1.38246805       3.73901256       0.00000000      -0.00099549       0.00601462      -0.00661721
B        3.47157104       3.57848141       3.85738904       0.00000000       0.00629792       0.00039139      -0.00118172
C        1.24205408       7.74325151       3.86079930       0.00000000       0.00063434      -0.00498533       0.00549037
C       -0.00500744       9.91721359       3.73312286       0.00000000      -0.00366154      -0.00356576      -0.00256391
C        7.37933205       1.38753156       3.71942412       0.00000000      -0.00566154       0.00028928      -0.00154130
C        6.10413214       3.54416969       3.68234529       0.00000000      -0.00246812       0.00258711       0.00069769
C        4.94553949       5.70071462       3.60813831       0.00000000      -0.00157956      -0.00254625       0.00264221
C        3.73192777       7.82444511       3.68391940       0.00000000       0.00525099       0.00327449       0.00490755
C        2.46544450       9.91067815       3.73818833       0.00000000       0.00040335       0.00049214      -0.00597979
C        9.85654368       1.38712664       3.70788224       0.00000000       0.00405005      -0.00154996      -0.00187582
C        8.61255010       3.52187074       3.67053724       0.00000000      -0.00138965      -0.00195838      -0.00400525
C        7.38581434       5.64948002       3.56597288       0.00000000      -0.00350768      -0.00012754       0.00134506
C        6.16647482       7.79834466       3.53270789       0.00000000       0.00024574      -0.00225693       0.00591999
C        4.92709751       9.93943345       3.64537639       0.00000000       0.00402761      -0.00851657       0.00365582
Mn       2.38422944       5.02251632       5.11420776       0.00000000       0.00110268       0.00466817      -0.01439691
O        2.09431461       5.71082242       6.96739263       1.00000000      -0.00049733       0.00255729      -0.00742908
O        3.18313494       6.33979547       6.62409550       1.00000000      -0.00271462      -0.00362708       0.01738166
