49
Lattice="12.336457 0.0 0.0 -6.168228499999997 10.683685154694365 0.0 0.0 0.0 15.0" Properties=species:S:1:pos:R:3:forces:R:3 energy=-431.45661952754745 free_energy=-431.45661952754745 stress="0.0025723639162055743 -2.0701262866190024e-05 6.59335355973451e-06 -2.0701262866190024e-05 -0.005578134373674684 -8.37327957509334e-06 6.59335355973451e-06 -8.37327957509334e-06 1.9026885915941549e-06" pbc="T T T"
C        0.00078998      -0.00612962       3.58762781       0.00880698       0.00355005       0.00051965
C       -1.21747249       2.15077140       3.48231333      -0.00793203       0.00882877      -0.01229856
C       -2.44753349       4.27635877       3.45212522       0.00205586       0.00178424       0.00352781
C       -3.70106730       6.40167998       3.53675799      -0.00253758      -0.01046173       0.00287018
C       -4.94302532       8.52627391       3.64320294       0.00487740      -0.00277446       0.00085160
C        2.46665934      -0.05701987       3.55284206       0.00119731      -0.00088833      -0.00383531
C        1.26291620       2.08749923       3.58776740      -0.00177884      -0.00393979       0.01038648
C        0.06411048       4.28566757       3.65959789       0.00517842      -0.00803163       0.00399657
C       -1.24610887       6.41145524       3.75153081       0.00091373      -0.00075126      -0.01135811
C       -2.45941415       8.52686348       3.64365809      -0.00443260      -0.00694536       0.00174336
C        4.93295359      -0.00539161       3.58704297      -0.01054959      -0.00329370       0.00394412
C        3.66972177       2.08741723       3.58768444       0.00885711      -0.00185367       0.00120213
P        1.12824520       6.36210106       5.04796806       0.00173225       0.01111944      -0.00542902
C       -0.00389137       8.57384193       3.92523107      -0.00348562      -0.00161272      -0.00167524
C        7.39844281       0.02919393       3.64699114      -0.00987343      -0.00053197      -0.00266986
C        6.15060181       2.15133760       3.47897173       0.00909498       0.00505789       0.00124099
C        4.86882055       4.28583449       3.65916449       0.00043750      -0.00582433       0.00195519
P        3.80698152       6.36329368       5.04955763       0.00022192       0.00606088      -0.00457248
C        2.46695792       8.62857284       4.13731476       0.00046203       0.00150961       0.01951321
C        9.87175237       0.02850930       3.64640052       0.00815956       0.00379308       0.00225206
C        8.63508566       2.15260473       3.44517917      -0.00240268       0.00716928      -0.00092000
C        7.38104565       4.27625335       3.45196289      -0.00006917       0.00438532      -0.00172700
C        6.18012341       6.41103012       3.75063829      -0.00261998       0.00235988      -0.00492132
C        4.93826962       8.57371623       3.92652708       0.00083148      -0.00260751      -0.00697124
C        0.01526883       1.42718178       3.53695753      -0.00660487       0.00451894      -0.00377807
C       -1.18900021       3.57190820       3.47678925       0.00041485       0.00304086      -0.00183046
C       -2.46399130       5.69538229       3.54020810      -0.00046138      -0.00338643      -0.00200540
C       -3.70109379       7.81997160       3.59809311      -0.00058484      -0.01255402      -0.00024843
C       -4.94226602       9.94380857       3.58962513       0.00800118      -0.00095743       0.01011194
C        2.46630015       1.35648171       3.56766962       0.00410706      -0.00026887       0.00912229
B        1.50044385       3.60295385       3.69383589       0.00907346      -0.00307267      -0.01221545
C       -0.05615486       5.66071771       3.95040536       0.00105355      -0.00125515       0.00534821
C       -1.23010056       7.83359007       3.79894274       0.00034633      -0.00150453      -0.00288860
C       -2.46046916       9.94448551       3.59117786      -0.00840019      -0.00646925      -0.00154260
C        4.91777595       1.42780658       3.53441314       0.00948403      -0.00139366       0.00366269
B        3.43246676       3.60279854       3.69263864      -0.00780443       0.00110697      -0.01133154
C        1.21892254       7.95250174       4.28378820      -0.00161434       0.00147674       0.00613911
C       -0.00365491       9.99041644       3.70251043      -0.01301750      -0.00543930      -0.00803321
C        7.39270356       1.44594447       3.49449279       0.00120975       0.00271965       0.00207675
C        6.12204607       3.57227249       3.47540196       0.00461126       0.00239039      -0.00348575
C        4.98999878       5.66067027       3.95072170      -0.00101026       0.00148520       0.00334829
C        3.71532520       7.95338857       4.28531374      -0.00051528      -0.00750238       0.00464653
C        2.46683449      10.01860704       3.78367865      -0.00025793       0.00508181       0.00789800
C        9.87724150       1.44530436       3.49477258      -0.00372104       0.00852113       0.00837467
C        8.63501886       3.57418848       3.41540639       0.00023649       0.00593506       0.00155431
C        7.39818259       5.69517739       3.53937909      -0.00464797      -0.00029319       0.00153447
C        6.16427629       7.83304112       3.79945128      -0.00006281       0.00166000      -0.00636381
C        4.93756152       9.98981684       3.70264563       0.01123063      -0.00168039      -0.00703948
Mn       2.46879227       4.63839854       5.21834299      -0.00821079       0.00173854      -0.00067964
