52
Lattice="12.336457 0.0 0.0 -6.168228499999997 10.683685154694365 0.0 0.0 0.0 15.0" Properties=species:S:1:pos:R:3:forces:R:3 energy=-450.90341880093933 free_energy=-450.90341880093933 stress="-0.0038586608188128342 0.0016572805888175344 1.848766777893134e-05 0.0016572805888175344 -0.0016733984870472085 -8.46807654890124e-06 1.848766777893134e-05 -8.46807654890124e-06 -1.2053280205628348e-05" pbc="T T T"
C        0.01376760      -0.00676688       3.80574084       0.00032552      -0.00563643       0.00322140
C       -1.21942359       2.12899194       3.79554421       0.00501227      -0.00764445       0.00315882
C       -2.48351020       4.26900718       3.65040054      -0.00268376      -0.00015037      -0.00264464
C       -3.71004036       6.40812975       3.60544108      -0.00167951       0.00501330       0.00476855
C       -4.92588838       8.54707698       3.69474049      -0.00366760      -0.00103588      -0.00126254
C        2.49278369       0.01029495       3.78640866      -0.00245625       0.00934615      -0.00547775
C        1.26909184       2.13176332       3.98441500       0.00233422      -0.00163353      -0.00268993
C       -0.06562970       4.28531145       3.92243395       0.00220414       0.00190079       0.00647245
C       -1.25403991       6.41968632       3.71418446      -0.01010829      -0.00701587      -0.00330264
C       -2.46459109       8.54833810       3.68083589      -0.00315462       0.00563488      -0.00453177
C        4.94708086      -0.00539054       3.70835777       0.00256570      -0.00490827       0.00446247
C        3.75997968       2.11123574       3.84924100      -0.00273726       0.00734771      -0.01051988
B        1.27802094       6.38374728       4.04464869       0.01235953       0.01291606       0.00423574
C        0.00395251       8.54605339       3.76824749       0.00384493      -0.00365366       0.00533990
C        7.42102525      -0.01047983       3.71183248       0.00509822      -0.00064685      -0.00364536
C        6.19273830       2.11968593       3.63352505      -0.00306333      -0.00939643      -0.00050251
C        4.98372513       4.23475434       3.71699205       0.00995798       0.00189381      -0.00092608
C        3.70516412       6.36537834       3.93788305      -0.01159450       0.00142576       0.00021049
C        2.48499443       8.54173675       3.85889676       0.00377531       0.00296758       0.00965557
C        9.88777599      -0.00840859       3.76359655      -0.01223362      -0.00902565      -0.00595847
C        8.65377238       2.12590723       3.64783344       0.00486401       0.00424818       0.00254273
C        7.40417234       4.26741920       3.57339068       0.00344925      -0.00200024       0.00764224
C        6.16291656       6.39490612       3.64653101       0.00778105      -0.00244354       0.00604475
C        4.94444694       8.52548234       3.77919853      -0.00527740       0.00338356      -0.00038265
C        0.02278912       1.42619030       3.87147448       0.00813878      -0.00640443      -0.00180950
C       -1.25700955       3.54782556       3.77059395      -0.00020066      -0.00270938       0.00138904
C       -2.48798887       5.69655803       3.63637191      -0.01058238      -0.00286106      -0.00803188
C       -3.69946381       7.83476933       3.64982342      -0.00268790       0.00478872      -0.00343058
C       -4.91661479       9.97360838       3.76841983      -0.00027659       0.00004299      -0.00867819
C        2.51541890       1.44330546       3.89263514       0.00054155       0.00836932      -0.00949731
B        1.21322540       3.59092328       4.19277947       0.00434576      -0.00479677       0.00233872
C       -0.05612963       5.69296221       3.87182969       0.00403264       0.00385374      -0.00638470
C       -1.23511064       7.84023844       3.71336316      -0.00518813      -0.00506340       0.00707936
C       -2.45614357       9.97561811       3.72093133      -0.00326207       0.00735995       0.00405164
C        4.96037564       1.42005123       3.71008896      -0.00763867      -0.00460521      -0.00082535
O        3.82693553       3.49276933       3.94008851       0.00352432       0.00522134      -0.01615988
C        1.24717374       7.86405870       3.88482489       0.00724363       0.00942398       0.00216469
C        0.01165316       9.96890350       3.71718666       0.00862600      -0.00170436       0.00147249
C        7.41841316       1.41439689       3.64773595       0.00466629       0.00074662      -0.00314439
C        6.18090365       3.53783723       3.59702485       0.00613879      -0.00896906      -0.00195554
C        4.91874545       5.66102770       3.74457838       0.00203937       0.00310602       0.00772455
C        3.70490867       7.78062113       3.86620387      -0.00243622       0.00605615       0.00893459
C        2.48895445       9.96645742       3.76922698      -0.00627856      -0.00810344       0.00515626
C        9.88629532       1.41433680       3.72609178       0.00054169      -0.00885458      -0.00894598
C        8.63527935       3.55268210       3.60258531       0.00114198       0.00367257       0.00893547
C        7.39058171       5.68877284       3.58973714       0.00940355      -0.00067049      -0.00023890
C        6.17345955       7.82231207       3.70161968      -0.00281146      -0.00133600       0.00508213
C        4.94937735       9.95532152       3.78576679      -0.00782738       0.00091356      -0.00707239
Mn       2.52089363       5.14879130       4.97483343      -0.00774998      -0.00344213      -0.00556510
O        3.14057601       5.71984249       6.72543828       0.00280464       0.00862579       0.01122889
O        2.03368363       5.22523651       7.55022078      -0.01666679      -0.00536555       0.00119157
H        2.45085969       4.44359632       7.95883957       0.00550179       0.00181850      -0.00092061
