51
Lattice="12.336457 0.0 0.0 -6.168228499999997 10.683685154694365 0.0 0.0 0.0 15.0" Properties=species:S:1:pos:R:3:initial_magmoms:R:1:forces:R:3 energy=-444.364053600484 free_energy=-444.364053600484 stress="0.0002965075472796167 0.0024561695321409266 0.00012678964432198174 0.0024561695321409266 -0.006285062828139845 -0.00020352371093500284 0.00012678964432198174 -0.00020352371093500284 -9.808040164186074e-05" pbc="T T T"
C        0.01923328      -0.02104199       3.64134692       0.00000000       0.00724482       0.00610870      -0.05235157
C       -1.20242495       2.12686208       3.39999148       0.00000000      -0.05720233      -0.08981511      -0.00346115
C       -2.46589244       4.26187375       3.49224285       0.00000000      -0.01371999       0.08798307      -0.00415467
C       -3.70014554       6.38144980       3.70996746       0.00000000      -0.04106750      -0.02012871       0.03288269
C       -4.93421561       8.50274174       3.78070008       0.00000000       0.00577643      -0.03041088      -0.02844380
C        2.49721471      -0.05865806       3.71257197       0.00000000       0.01236870      -0.02564711      -0.13535110
C        1.29510202       2.05979456       3.29170238       0.00000000      -0.03539445      -0.00721646       0.02690160
C       -0.03804306       4.30296688       3.22590630       0.00000000      -0.01127490      -0.00150401       0.08829535
C       -1.20053078       6.38140017       3.79160072       0.00000000      -0.05519201       0.01813189      -0.00759527
C       -2.43892423       8.50221539       3.88658436       0.00000000      -0.00145327      -0.06562731       0.06315300
C        4.96860470      -0.04375569       3.84867684       0.00000000       0.01083905       0.01465408      -0.03356910
C        3.77304899       2.05991684       3.61018997       0.00000000       0.00900868      -0.03634501       0.03289876
P        1.60594152       6.19848805       4.43769437       0.00000000       0.06910335       0.12934610      -0.04922685
C        0.03417261       8.53293729       4.13283521       0.00000000      -0.05335854      -0.01935451      -0.03874415
C        7.42234586       0.01635276       3.95242288       0.00000000       0.02130224       0.01021114      -0.03784045
C        6.19887193       2.10955294       3.67462774       0.00000000      -0.02260914      -0.00909571      -0.00876884
C        4.93269315       4.18829413       3.77605420       0.00000000      -0.00065660       0.00264277      -0.06508329
B        3.54166522       6.36774624       4.00570566       0.00000000      -0.00747527       0.07034678      -0.01047340
C        2.49640678       8.62605810       4.12641045       0.00000000       0.00985170       0.01581837      -0.07306114
C        9.90103872       0.02572620       3.79518788       0.00000000       0.06177035      -0.00736770      -0.05067379
C        8.66108777       2.13388998       3.62214527       0.00000000       0.01159159      -0.00864380       0.02459534
C        7.39862657       4.25683966       3.60849917       0.00000000       0.01604907      -0.03124280       0.02599689
C        6.11976155       6.35905631       3.75665467       0.00000000       0.02043151       0.02064981       0.05022249
C        4.93896665       8.53426293       3.84515831       0.00000000       0.04236043       0.05274844       0.00060944
C        0.02869825       1.39642203       3.42344408       0.00000000      -0.05267378      -0.04319665       0.01943800
C       -1.24303714       3.54739131       3.31035945       0.00000000      -0.05800354      -0.02003229       0.06332028
C       -2.45575177       5.68070419       3.64564918       0.00000000      -0.03157342       0.05434461       0.03651614
C       -3.69034932       7.79840010       3.81026208       0.00000000       0.00743895      -0.03687103      -0.07754749
C       -4.92189057       9.92736439       3.72113647       0.00000000       0.00419274      -0.02206118      -0.00084428
C        2.52681350       1.34647307       3.52617558       0.00000000      -0.00855093      -0.00082949      -0.03000186
P        1.38765605       3.61914207       2.44197346       0.00000000       0.11129807      -0.02548901      -0.06349647
C        0.01274916       5.63940164       3.69599798       0.00000000      -0.00737694       0.02823409       0.03226420
C       -1.20351682       7.79883371       3.97464977       0.00000000      -0.05379767      -0.01576081      -0.01019284
C       -2.43948158       9.92388449       3.83952510       0.00000000       0.06008791      -0.05370421       0.02444509
C        4.98939544       1.36851537       3.67173393       0.00000000       0.01809583      -0.00810868       0.09763317
N        3.79547380       3.41526063       3.86200703       0.00000000      -0.02834256       0.00386339      -0.00608548
C        1.28679158       7.92727363       4.27641696       0.00000000      -0.04600308      -0.06257729      -0.10466960
C        0.02968151       9.96272763       4.02609698       0.00000000       0.00381231      -0.00959430      -0.14338330
C        7.43148468       1.42222618       3.75141137       0.00000000      -0.01522396       0.00830050      -0.02560094
C        6.17633736       3.52429508       3.63573526       0.00000000       0.02362541      -0.02235165       0.08746409
C        4.87075367       5.62034002       3.83816172       0.00000000       0.04592010       0.03015153       0.07051547
C        3.69701565       7.87582947       3.98825673       0.00000000       0.04683314       0.04878900       0.07662532
C        2.49788396      10.03304072       3.99477464       0.00000000       0.04948050       0.01387797      -0.06026186
C        9.90387654       1.43227310       3.59845176       0.00000000      -0.01729977      -0.05134135       0.02885184
C        8.64102555       3.55255268       3.55775433       0.00000000       0.03098178       0.00153159      -0.04528229
C        7.38369408       5.67497210       3.66975742       0.00000000      -0.00984979      -0.04601160       0.04278901
C        6.15729492       7.79118435       3.78063795       0.00000000      -0.01116658       0.01488089       0.07073630
C        4.95418268       9.97126567       3.76709397       0.00000000       0.03716179       0.03029271      -0.00902302
Mn       2.18675237       3.81719571       4.75872547       0.00000000      -0.01807331       0.01497598       0.02378269
O        1.96726241       4.60242827       6.37242825       1.00000000      -0.06981288       0.01902300       0.02893128
O        1.36528989       5.96699767       6.06798350       1.00000000      -0.00947420       0.07342225       0.12631956
