52
Lattice="12.336457 0.0 0.0 -6.168228499999997 10.683685154694365 0.0 0.0 0.0 15.0" Properties=species:S:1:pos:R:3:initial_magmoms:R:1:forces:R:3 energy=-454.56407318423203 free_energy=-454.56407318423203 stress="-0.004456569742462393 -0.0004022574529710113 7.681483942642026e-06 -0.0004022574529710113 -0.004032560778696135 -8.872729914715241e-07 7.681483942642026e-06 -8.872729914715241e-07 9.913661417641712e-06" pbc="T T T"
C       -0.05968824      -0.03349363       3.70984141       0.00000000       0.01312309      -0.00249226      -0.00499256
C       -1.30386696       2.09107311       3.77118278       0.00000000      -0.00399411       0.00244733       0.00312007
C       -2.54013873       4.23340033       3.75810726       0.00000000      -0.00679785       0.00706245      -0.00693643
C       -3.75739229       6.37415167       3.68755881       0.00000000      -0.00142041      -0.00136384       0.00104884
C       -4.99647403       8.51016594       3.63323891       0.00000000      -0.00190334      -0.00071637      -0.00332731
C        2.40688180      -0.03278237       3.79291654       0.00000000      -0.00189454      -0.00241598       0.00269543
C        1.16782822       2.10234990       3.85973757       0.00000000      -0.00373781      -0.00138797      -0.01019902
C       -0.09846497       4.21547510       3.88379601       0.00000000       0.00126403      -0.00316024      -0.00858156
C       -1.29390117       6.36852618       3.83367804       0.00000000       0.00735423      -0.00067409       0.00127890
C       -2.52429387       8.50960529       3.77959408       0.00000000      -0.00689645       0.00116350       0.00505438
C        4.87368140      -0.03567343       3.81679030       0.00000000       0.00659670       0.00321802      -0.00799012
C        3.63778486       2.11297957       3.84677792       0.00000000      -0.00492726      -0.00290878      -0.00536349
B        2.38472327       4.37942968       4.03860962       0.00000000       0.00525475       0.01028655      -0.00873535
B        1.28884695       6.28224537       4.02847860       0.00000000      -0.00807658       0.01525021       0.00255750
C       -0.05165152       8.50350696       3.83890580       0.00000000       0.00214051      -0.01227919       0.00185456
C        7.33421103      -0.02857062       3.75996612       0.00000000      -0.00013879      -0.00326522      -0.00618174
C        6.10923464       2.09193584       3.75259155       0.00000000       0.00844158       0.00839381       0.00568444
C        4.89580540       4.21514175       3.63297802       0.00000000       0.00001395      -0.00571992      -0.00077095
S        3.51686248       6.30574769       2.56014181       0.00000000      -0.00307348       0.00433984       0.00495698
C        2.39856598       8.54246975       3.64355771       0.00000000      -0.00427880       0.00050025      -0.00583093
C        9.80952467      -0.02806823       3.67572615       0.00000000       0.00731299       0.00051117      -0.00493806
C        8.57139152       2.09938331       3.72938492       0.00000000      -0.00331215      -0.00650048       0.00194237
C        7.34886464       4.23502941       3.65700468       0.00000000       0.00140199      -0.00628107      -0.00084537
C        6.11762474       6.37718249       3.47065699       0.00000000       0.00613867       0.00653950      -0.00843354
C        4.88218955       8.51843159       3.47967732       0.00000000      -0.00608220       0.00361140       0.00282142
C       -0.06656165       1.38413165       3.78555537       0.00000000      -0.00238470      -0.00302574       0.00527678
C       -1.32329518       3.50789494       3.80591777       0.00000000      -0.00566444       0.00633623      -0.00858632
C       -2.53334161       5.65851992       3.76232213       0.00000000       0.00336818       0.00605921       0.00253968
C       -3.75864648       7.79929368       3.69907427       0.00000000      -0.00617274      -0.00249522       0.00728197
C       -4.99411846       9.93700886       3.71385012       0.00000000       0.00676162      -0.00705665      -0.00075774
C        2.40651500       1.39219361       3.84846224       0.00000000      -0.00761698      -0.00523276      -0.00242497
C        1.13134341       3.51901881       3.92483071       0.00000000       0.00155106      -0.00063498      -0.01106670
C       -0.08478136       5.62901873       3.90518241       0.00000000       0.00412467      -0.00409504       0.00806585
C       -1.29068341       7.79659485       3.82847653       0.00000000      -0.00185624      -0.00163328       0.00706129
C       -2.52821189       9.93521262       3.80204090       0.00000000       0.00035820       0.00431905      -0.00247591
C        4.87313778       1.38866718       3.80729911       0.00000000       0.00681106       0.00782817       0.00071543
C        3.66266251       3.55013785       3.84194993       0.00000000      -0.00775701      -0.00374126       0.00876975
C        1.20526780       7.80596535       3.84163305       0.00000000       0.00118368      -0.00428243       0.00484389
C       -0.06098099       9.93596135       3.80680898       0.00000000       0.00270933      -0.01020247       0.00073491
C        7.33908010       1.38826935       3.74971673       0.00000000       0.00097648      -0.00291903      -0.00461608
C        6.12952376       3.50988233       3.67078055       0.00000000       0.00174692       0.00143966       0.00644840
C        4.91679018       5.62029366       3.37910514       0.00000000       0.00709862      -0.00083617       0.00541180
C        3.62605364       7.85785361       3.38814891       0.00000000      -0.00737247      -0.00362482      -0.00265381
C        2.40397140       9.96316314       3.68436188       0.00000000       0.00367230      -0.00052741       0.00834584
C        9.80303177       1.38786396       3.72768553       0.00000000      -0.00053878      -0.00132562      -0.00299152
C        8.57185229       3.52141468       3.71359622       0.00000000      -0.00468497      -0.00393887       0.01293369
C        7.34641419       5.66184057       3.60746779       0.00000000       0.00029667      -0.00188506       0.00368871
C        6.10608515       7.79765555       3.49608211       0.00000000      -0.00569158       0.01010857       0.00392876
C        4.87559227       9.93926536       3.62621544       0.00000000       0.01008478       0.00143124       0.00029383
Mn       3.08187630       6.05674302       5.09612517       0.00000000       0.00634795       0.00842102       0.00520004
O        4.71304653       6.18354066       6.39584317       1.00000000      -0.00739346       0.01288450      -0.00497772
O        4.12677258       7.34374657       6.36677801       1.00000000      -0.00246685      -0.01552944      -0.00087831
