49
Lattice="12.336457 0.0 0.0 -6.168228499999997 10.683685154694365 0.0 0.0 0.0 15.0" Properties=species:S:1:pos:R:3:forces:R:3 energy=-433.7848132027092 free_energy=-433.7848132027092 stress="-0.0018945751555243973 0.0020129396520047467 1.063188035899339e-06 0.0020129396520047467 -0.007083073044221136 5.7076602365723365e-06 1.063188035899339e-06 5.7076602365723365e-06 2.486905184412433e-06" pbc="T T T"
C        0.01090651       0.03291967       3.71829422      -0.00143810      -0.00504677       0.00804311
C       -1.22444067       2.16339098       3.46736749      -0.00420975      -0.00611344      -0.00172795
C       -2.49589323       4.29931222       3.50462806       0.00664499       0.00659337      -0.00091036
C       -3.72360470       6.42067453       3.74114034      -0.00135525       0.00828068      -0.01052484
C       -4.94674423       8.55124289       3.82532934       0.00347185      -0.00680138      -0.00570358
C        2.47890300      -0.00130861       3.82424790      -0.00324923      -0.00386169       0.00633172
C        1.27832165       2.13562602       3.53523292       0.00562308       0.00710230       0.00979050
C       -0.10493420       4.31372422       3.04220748       0.00136995      -0.00956898       0.00442273
C       -1.24103875       6.43209612       3.57901892       0.00093749      -0.00072818      -0.00253038
C       -2.46382485       8.54565519       3.83340693      -0.00015772       0.00867912      -0.00364959
C        4.94520805       0.00093637       3.87150538       0.00160523       0.00243345       0.00415213
C        3.74477238       2.11720721       3.89407861       0.00431827       0.00521161      -0.00485393
P        1.56064172       6.23381154       3.94977493      -0.00626139      -0.00195519      -0.00374308
C        0.00420567       8.56570046       3.89201142      -0.00511045       0.00087897       0.00245936
C        7.40408637       0.04330413       3.84409301       0.00197158       0.00559907       0.01066458
C        6.17504279       2.15161960       3.84957480       0.00317651      -0.00946759      -0.00847934
C        4.93083790       4.23473697       3.97241809      -0.00486537      -0.00102368       0.00044435
B        3.53874414       6.40852534       3.88774487      -0.00270254       0.00235430      -0.00190142
C        2.48643139       8.65314099       3.91889173       0.00231925      -0.00283389       0.00229176
C        9.88944166       0.05816154       3.75235775      -0.00684561      -0.00530440       0.00597248
C        8.63974779       2.16952490       3.68345903       0.00534177       0.00222420      -0.00198499
C        7.38477057       4.29055468       3.77141662      -0.00458449      -0.00661611      -0.00507034
C        6.11676895       6.40407425       3.86059244      -0.00396828       0.00274447      -0.00623813
C        4.93566209       8.58142922       3.83650644       0.00713425       0.00447342       0.00357982
C        0.01776183       1.45543193       3.56063117       0.00048202      -0.00319975      -0.00122290
C       -1.27575905       3.57917319       3.29834154       0.00387718      -0.00086624      -0.00272772
C       -2.48855021       5.72123420       3.59750137       0.00077229       0.00766585      -0.00333338
C       -3.71033662       7.84094243       3.80775344       0.00503920       0.00591593      -0.00503859
C       -4.93387636       9.97942606       3.79534240      -0.00226588      -0.01112081       0.00752842
C        2.50022964       1.41542613       3.77263570       0.00533743      -0.00056766       0.00215248
P        1.40246858       3.57475160       2.49675324       0.00167617       0.00463465      -0.00174028
C       -0.03799041       5.70409704       3.33531773      -0.00605186       0.00419561       0.00369728
C       -1.22871211       7.84007101       3.79236922      -0.00654251       0.00079167      -0.00545531
C       -2.45933539       9.96813459       3.86648774       0.00044815       0.00607255      -0.00357812
C        4.95821346       1.42442765       3.87126261       0.00200019      -0.00029630       0.00264194
N        3.77831216       3.48137677       4.09697631      -0.00874311       0.00789126      -0.00726943
C        1.26199362       7.93227988       3.97334249      -0.00303941       0.00208998       0.01740286
C        0.00906505       9.99180788       3.88064132       0.00130256       0.00352241       0.00640159
C        7.40860975       1.45845858       3.79329254       0.00799210       0.00283034       0.00296042
C        6.16347796       3.56302317       3.86313658      -0.00781805      -0.01173672      -0.01029797
C        4.87569923       5.66430920       3.92328919      -0.00336737      -0.00003580       0.00011322
C        3.69176895       7.91738764       3.87966966       0.00790831       0.00273162       0.00053447
C        2.48157989      10.05466121       3.84760690      -0.00397154      -0.00191015       0.00261999
C        9.88517486       1.46901564       3.63074487      -0.00421319      -0.00749177       0.00395363
C        8.62158986       3.58809707       3.65067479       0.00606563       0.00268618      -0.00413682
C        7.36994251       5.71049890       3.79351148      -0.00357817       0.00032839      -0.00817455
C        6.15195469       7.83901001       3.84063199       0.00302963       0.00133965      -0.00508425
C        4.94773248      10.01590625       3.76867896      -0.00332326       0.00045662       0.01024294
Mn       2.16236694       4.18354066       4.76282761       0.00781747      -0.01318119      -0.00302454
