50
Lattice="12.336457 0.0 0.0 -6.168228499999997 10.683685154694365 0.0 0.0 0.0 15.0" Properties=species:S:1:pos:R:3:forces:R:3 energy=-441.0237100618649 free_energy=-441.0237100618649 stress="-0.0014221364067232172 -0.001453529842517502 -1.774931469739883e-05 -0.001453529842517502 -0.010878900681429304 5.7146717172781126e-06 -1.774931469739883e-05 5.7146717172781126e-06 -6.279634981105925e-06" pbc="T T T"
C       -0.01014305      -0.04511254       3.62471799       0.00585351       0.00070056      -0.00100942
C       -1.23940416       2.11241107       3.63186065       0.00151962       0.00153561       0.00192409
C       -2.46639234       4.24522414       3.58969248      -0.00541814       0.00052815       0.00816368
C       -3.70131318       6.37345093       3.55296517       0.00260524       0.01271603       0.00185247
C       -4.93603128       8.50225281       3.57722993      -0.00867599      -0.00750725      -0.00180525
C        2.46061519      -0.09571638       3.71054973       0.00517617      -0.00364532       0.00312211
C        1.23592774       2.03333209       3.75982111      -0.00671566      -0.00299435      -0.01165669
C        0.01869094       4.24784812       3.73325153       0.00048551      -0.00468362      -0.00069164
C       -1.22599787       6.37653199       3.66532660       0.00143736      -0.00010970       0.00338831
C       -2.45891290       8.49547845       3.64920959      -0.00000245       0.00435352       0.00316195
C        4.92595185      -0.03494099       3.79099877       0.00570019      -0.00349621       0.00111736
C        3.65441536       2.01398339       4.02966274       0.00332354      -0.00361034       0.00213326
B        1.29681861       6.39227504       3.98299976       0.00477284       0.00709697       0.00849623
C        0.00093355       8.53502964       3.77190369      -0.00526280       0.00691639       0.00878703
C        7.38859872       0.00624594       3.74768443      -0.00605636      -0.00288140       0.00245984
C        6.13738920       2.12832342       3.78327884       0.00451590      -0.00144671      -0.00674780
C        4.92419172       4.30913078       3.75833404      -0.00330766       0.00837196      -0.00208469
C        3.69898571       6.42487695       3.93699815       0.00301526      -0.01091996      -0.01064777
C        2.47146595       8.58012100       3.82716500       0.00267559      -0.00674595       0.00170803
C        9.86498186      -0.00053873       3.66836077      -0.01097473       0.00086569       0.00241628
C        8.61961503       2.12743014       3.64300044       0.00583842      -0.00417438       0.00285869
C        7.38260694       4.25338092       3.59845664      -0.00702431       0.00425188       0.00378943
C        6.16651531       6.40265240       3.57407331       0.00495851      -0.00032886       0.00042494
C        4.92902360       8.52993651       3.66914799      -0.00109281       0.00738306      -0.00058637
C       -0.01034580       1.37963917       3.65939723      -0.00321664      -0.00042815      -0.00787223
C       -1.22224226       3.53283424       3.63650072      -0.00170888       0.00065077       0.00717779
C       -2.46700300       5.66525496       3.58728683      -0.00174356       0.00419316      -0.00478123
C       -3.69790179       7.79179578       3.57803331      -0.00272519       0.00913207      -0.00005145
C       -4.94745742       9.91100515       3.62287469       0.00501988      -0.00875138      -0.00094210
C        2.44285538       1.30052621       3.83758591      -0.00359019      -0.00106409       0.00521257
B        1.37849168       3.53575136       3.85171299      -0.00865491      -0.01311341      -0.00100075
C       -0.00926776       5.65149974       3.76736284       0.00296691      -0.00399723       0.00988665
C       -1.22203119       7.79853668       3.69722153      -0.00162320       0.00308026      -0.00327628
C       -2.46277339       9.91022409       3.71977178       0.00763506       0.00049319       0.00025897
C        4.91627967       1.39205563       3.88666222       0.00750097      -0.00774727       0.00339552
P        3.32035323       3.71057327       4.22608221       0.00343789       0.00389805      -0.00582985
C        1.25072717       7.87809443       3.86749658      -0.00445075       0.00883068       0.00259527
C       -0.00749477       9.96166468       3.76506839      -0.00111859       0.00038677       0.00994141
C        7.37770987       1.42667363       3.72003153       0.00537265      -0.00323702      -0.00824166
C        6.13288140       3.55129729       3.69923512      -0.00899219       0.00374586       0.00277261
C        4.92463640       5.72549369       3.70873114       0.00890158       0.00231680      -0.00765306
C        3.69202115       7.83774624       3.81506336       0.00538694      -0.00885772      -0.01011291
C        2.46289060       9.99327141       3.73983645      -0.01067579      -0.00618929      -0.00952940
C        9.85975426       1.41753654       3.63250489       0.00393150      -0.00084469       0.00689438
C        8.62320325       3.54560243       3.59547562      -0.00622016      -0.00211427       0.01406817
C        7.39309499       5.67251539       3.55126984       0.00607983       0.00629502      -0.00278253
C        6.16203665       7.81452169       3.59256872      -0.00882213      -0.00250926      -0.01114826
C        4.92518141       9.94939224       3.64291242      -0.00225147       0.01169217      -0.00686770
Mn       2.57751376       5.55778774       5.27457512       0.00608153       0.00607103      -0.01527816
O        2.85638952       5.89680617       6.83482524       0.00613216      -0.00410783       0.01259017
