52
Lattice="12.336457 0.0 0.0 -6.168228499999997 10.683685154694365 0.0 0.0 0.0 15.0" Properties=species:S:1:pos:R:3:forces:R:3 energy=-451.34211826726147 free_energy=-451.34211826726147 stress="-0.003910286187032954 -0.00243886049127828 4.9648687739925444e-05 -0.00243886049127828 -0.000808940955108515 2.278509386790711e-05 4.9648687739925444e-05 2.278509386790711e-05 -1.33109394072684e-05" pbc="T T T"
C       -0.01261476       0.01527506       3.88495952       0.00262004      -0.00251651       0.00165540
C       -1.26248082       2.13504816       3.86158752      -0.00103605       0.00481151       0.00551936
C       -2.48301636       4.28070624       3.80412978       0.00223707       0.00750127       0.00054118
C       -3.69387411       6.42923859       3.78510276       0.00571120       0.00248540       0.00683202
C       -4.92774582       8.57482734       3.85363920      -0.00124913       0.00002359      -0.00148265
C        2.45608561       0.03335034       3.84818062       0.00899968       0.00430810       0.00066683
C        1.19421269       2.18402886       3.88772270      -0.00574246      -0.00002300      -0.00233696
C       -0.03795035       4.22988285       3.95907875       0.00660896      -0.00752880      -0.00139223
C       -1.23637075       6.41365313       3.89387952       0.00081233       0.00839405       0.00025476
C       -2.46648010       8.56671395       3.85602409      -0.01389324      -0.00540434       0.01241000
C        4.92009310       0.02530261       3.74067582       0.00537265      -0.00136849      -0.00257875
C        3.65843986       2.11131704       3.42612748      -0.00208833      -0.00125291      -0.00728631
B        1.28307598       6.37996770       4.03244357      -0.00730537      -0.01053758      -0.00876014
C       -0.01002174       8.56563262       3.88167728       0.00478908       0.00682704      -0.00719270
C        7.38655275       0.01732094       3.75875099      -0.00204161      -0.00403895      -0.00479358
C        6.14797506       2.15911350       3.51046108       0.00471084      -0.01114866      -0.00415268
C        5.01212690       4.34878444       3.24364298      -0.00194323      -0.00513012      -0.00331342
C        3.71937539       6.39082418       3.78549641      -0.00712511      -0.00943262      -0.00268604
C        2.46554884       8.55941539       3.88933670       0.00659949       0.00623160       0.00053414
C        9.85456580       0.00603768       3.82847426      -0.00786532       0.00279014       0.00812728
C        8.61563695       2.14886988       3.71292678      -0.00315560      -0.00510072       0.01373763
C        7.40806060       4.29760301       3.61226815      -0.00447445       0.00713492      -0.00088273
C        6.19634455       6.45143387       3.67317014       0.00659583       0.00776743      -0.00010121
C        4.93389616       8.55237042       3.84653057       0.00273938       0.00483946      -0.00127519
C       -0.02155256       1.44263739       3.89116117      -0.00424222      -0.00206487      -0.00673498
C       -1.27031735       3.54385770       3.87200908       0.00415739       0.00398511      -0.00607565
C       -2.47367899       5.70678250       3.82591323       0.00649795       0.00971159       0.00059449
C       -3.69717626       7.85683047       3.83599079      -0.01114257      -0.00859229       0.01272394
C       -4.94044090       9.99661780       3.88942304       0.00889633      -0.00051724      -0.00853686
C        2.44390570       1.46621044       3.75306241      -0.00312094       0.00727051      -0.00109228
N        1.14662531       3.54492319       4.03926633       0.00543507      -0.00450614      -0.00546705
C       -0.02605173       5.66264460       3.96119137      -0.00937970      -0.00927935       0.00457470
C       -1.23514519       7.84573740       3.88073595      -0.00352381       0.00998731       0.00546700
C       -2.47659489       9.99798394       3.82477517       0.00493903      -0.00397202      -0.00098230
C        4.91064808       1.45099728       3.55265912       0.00117549      -0.00183921      -0.00272075
S        3.60934750       3.61951129       2.52834629      -0.00041814      -0.00272664       0.00123612
C        1.23503140       7.87366251       3.93428701       0.00745724       0.00224732       0.00531165
C       -0.01427164       9.99466390       3.79467705       0.00300244       0.00453974       0.00870378
C        7.37452786       1.44542920       3.65695633       0.00201866      -0.01318344       0.00255298
C        6.17697862       3.58563978       3.43725838       0.00023077      -0.00970247      -0.01165040
C        4.95321601       5.74758347       3.53961551       0.00647730      -0.00115627      -0.00430718
C        3.69288623       7.80449001       3.85849775       0.00533768      -0.00015283       0.00177226
C        2.45629059       9.98541787       3.82503586      -0.00544790       0.00674251       0.00289812
C        9.84434612       1.42828194       3.80255092       0.00012436       0.00135686      -0.00086198
C        8.62354373       3.57327004       3.70771517      -0.00324408       0.00308542       0.00480332
C        7.41368673       5.72287629       3.68233633       0.00681336       0.01144423       0.00021723
C        6.17751796       7.86304240       3.80651259       0.00234567       0.00871488      -0.00966678
C        4.92276401       9.97541127       3.86466063      -0.00469828       0.00536914       0.00367076
Mn       2.57618323       4.88768395       4.42253505       0.01025521      -0.00095981      -0.00510893
O        3.43273832       4.22366746       5.96329709      -0.00071899      -0.00067985       0.00244851
O        2.43115021       4.45314247       7.02092166      -0.01459978      -0.00466739      -0.00320867
H        2.93164774       5.07384009       7.58414404      -0.01450419      -0.01008661       0.00739493
