49
Lattice="12.336457 0.0 0.0 -6.168228499999997 10.683685154694365 0.0 0.0 0.0 15.0" Properties=species:S:1:pos:R:3:forces:R:3 energy=-436.910237648921 free_energy=-436.910237648921 stress="0.005088863089423422 -0.000711641960239215 3.4115731589141526e-06 -0.000711641960239215 -0.00020177772414285095 6.4884605611931694e-06 3.4115731589141526e-06 6.4884605611931694e-06 -6.823258184434292e-08" pbc="T T T"
C        0.00511841      -0.00966340       3.70114362       0.00698058       0.00092384       0.00286931
C       -1.21802747       2.14357838       3.72607728       0.00064258       0.00145065       0.00777397
C       -2.44846635       4.26668019       3.67064366       0.00695229       0.00004639       0.01048508
C       -3.70018121       6.39253937       3.60167561       0.01049708      -0.00413412       0.00351403
C       -4.93841938       8.52308085       3.62328988      -0.00537606       0.00235997      -0.00785029
C        2.47202653      -0.05145624       3.69020788       0.00220374       0.00106644      -0.00107284
C        1.26205825       2.09206873       3.75871156      -0.00354883      -0.00093074      -0.00539174
C        0.07237151       4.30221572       3.79369829      -0.00367104       0.00095775      -0.00029927
C       -1.23235608       6.41157585       3.68353480       0.00381269       0.00371467       0.00491851
C       -2.45858574       8.52410715       3.64418165       0.00002345       0.00061933       0.00314008
C        4.93930019      -0.01485807       3.71663883      -0.00911966       0.00046525       0.00715777
C        3.67626293       2.09993869       3.76939747       0.00063146       0.00011090      -0.00179708
N        1.14117783       6.43815016       4.14393335      -0.00903646       0.00464437      -0.01084762
C        0.01335443       8.52756440       3.77282709      -0.00002243      -0.00207380       0.00225335
C        7.40848574      -0.00623737       3.76976039      -0.01073909      -0.00840462      -0.00339269
C        6.15075212       2.15178918       3.72743930       0.00131778      -0.00035369      -0.00401046
C        4.84688239       4.32172813       3.71384669      -0.00494591       0.01128124      -0.00267501
O        3.77878527       6.48046031       3.66655036      -0.00293835      -0.00842331       0.01307889
C        2.48269430       8.49799081       3.85643775       0.00714413      -0.00283480      -0.01132940
C        9.86894391      -0.00663263       3.75131062       0.00414587       0.00533582       0.00314779
C        8.63443431       2.13938029       3.71298547       0.00269737       0.00056405       0.00837924
C        7.37575576       4.26927523       3.65116219      -0.00058410      -0.00679834       0.00267587
C        6.16523877       6.41081061       3.58963024       0.00816323       0.00379354      -0.01354979
C        4.93930395       8.54501246       3.69478930      -0.00735092       0.00095387      -0.00828152
C        0.01647573       1.42505747       3.72994128      -0.00233076      -0.00010902       0.00096056
C       -1.18014783       3.57452739       3.72190093       0.00106188      -0.00095856       0.00099750
C       -2.45871760       5.68605841       3.63697635       0.01288004      -0.00163886      -0.00020768
C       -3.69636805       7.81331189       3.60914062      -0.00175456       0.00028403       0.00438471
C       -4.93602712       9.94511180       3.67028898       0.00560663       0.00208488      -0.01149521
C        2.47061370       1.36445658       3.74219251      -0.00059239       0.00077862       0.00622127
B        1.48201302       3.60413344       3.81902193      -0.00719545       0.00329177      -0.00617409
C        0.00591571       5.73443138       3.84052188      -0.00488688       0.00041471       0.00361407
C       -1.22341613       7.82186210       3.68995904       0.00268484       0.00195493      -0.00090686
C       -2.45559851       9.94279744       3.67894019      -0.00363416      -0.00013695       0.00568671
C        4.92179545       1.42426961       3.73962140       0.00176313      -0.00172882       0.00094746
B        3.44287209       3.61157532       3.82513668      -0.00558047       0.00744468       0.00057108
C        1.22250243       7.78621444       3.93391489       0.00445242       0.00225167      -0.00716984
C        0.00841402       9.95940792       3.74777082      -0.01499237      -0.00665119       0.00534874
C        7.39447937       1.43007322       3.73411758       0.00108436      -0.00444430       0.00558894
C        6.10769325       3.58375259       3.69392322      -0.00784352       0.00232878      -0.00229672
C        4.94694393       5.72822294       3.64262274       0.00508295       0.00833067      -0.00512864
C        3.73405589       7.85627878       3.77090658      -0.00012739      -0.00923152      -0.00630180
C        2.47328555       9.94109021       3.79542033       0.00038534      -0.00121880      -0.00358239
C        9.87657391       1.43003900       3.72885953       0.00269023       0.00480309      -0.00301927
C        8.63463247       3.56280380       3.67222480       0.00444211      -0.00078386       0.01285181
C        7.39714306       5.68391470       3.60377108       0.00893292      -0.00667565      -0.00292122
C        6.16983151       7.82705071       3.61951749      -0.00646130       0.00310276      -0.00455650
C        4.93613535       9.97405852       3.71753923       0.00499494       0.00261124       0.00251138
Mn       2.34938173       5.01895068       5.16061618       0.00145808      -0.01043898       0.00517983
