52
Lattice="12.336457 0.0 0.0 -6.168228499999997 10.683685154694365 0.0 0.0 0.0 15.0" Properties=species:S:1:pos:R:3:forces:R:3 energy=-449.8420537970597 free_energy=-449.8420537970597 stress="0.003167249944412767 0.0013614488912429262 2.1276952681105367e-06 0.0013614488912429262 -0.0057555575878293725 8.971394757604505e-06 2.1276952681105367e-06 8.971394757604505e-06 1.6793707111548365e-05" pbc="T T T"
C        0.03750826      -0.10146930       3.77702032      -0.00382822       0.00677321       0.00652595
C       -1.17382505       2.06389787       3.84816524       0.01116984       0.00028183       0.00482765
C       -2.40448962       4.18826959       3.77836129       0.00137176       0.00120574      -0.00109680
C       -3.66264817       6.30579629       3.67957051       0.00078759      -0.00131305       0.00775554
C       -4.91281779       8.43007988       3.65563475       0.00077602      -0.00838708       0.00173369
C        2.49950157      -0.15176543       3.87206099      -0.00198615       0.00641061      -0.01056461
C        1.30002856       1.99856310       3.94739040       0.00155500       0.00664615      -0.00639610
C        0.10402770       4.20846575       3.83068877       0.00948390      -0.00669233       0.01064123
C       -1.17914944       6.32312797       3.69623616       0.00099614      -0.00233952      -0.00383279
C       -2.43290684       8.43435059       3.76522638       0.00007055       0.00663988      -0.00295978
C        4.96918968      -0.10332840       3.91702927       0.00789007       0.00216915       0.01151050
C        3.71499817       1.98881559       4.01064076      -0.00884247      -0.00055762      -0.00226230
C        1.31808427       6.35931491       3.70781432       0.00242057       0.00540087      -0.00197192
C        0.03449499       8.46703868       3.79736059      -0.00018261      -0.00439620       0.00352908
C        7.43583721      -0.06274068       3.89042816      -0.00576913       0.00092260      -0.01008709
C        6.19746023       2.05564457       3.95313699      -0.00536177       0.00158123      -0.00083621
C        4.92398676       4.18460334       3.83090045      -0.00802669      -0.00118654      -0.00566257
P        3.43988168       6.18161705       2.81068357      -0.00343696      -0.00899219       0.00115518
C        2.49562035       8.51897542       3.64647682       0.00084440       0.00717038       0.01003591
C        9.91573286      -0.05902664       3.78421759      -0.00991999      -0.00534650       0.00478675
C        8.67908463       2.06614787       3.87703739       0.01016404      -0.00419939       0.00406709
C        7.43054321       4.18319453       3.79848108      -0.00540925       0.00382818      -0.00049001
C        6.19277510       6.30793860       3.53781940      -0.00400229      -0.00701371       0.00460735
C        4.95856369       8.46706431       3.52206061       0.00310980       0.00186507      -0.00132025
C        0.05229073       1.33192882       3.86493197       0.00910273       0.00820057       0.00286233
C       -1.14628146       3.48780947       3.81851818       0.00499819      -0.00046356       0.00952363
C       -2.41317550       5.60609250       3.71289208      -0.00051606       0.00135424       0.00708255
C       -3.66940289       7.72542836       3.68885824       0.00362479      -0.00363366      -0.00120570
C       -4.90757811       9.84666372       3.76441745      -0.00459472      -0.00126248      -0.00138645
C        2.50428285       1.25914845       3.96089582      -0.00751025       0.00277045      -0.00340676
B        1.49736487       3.51404286       4.00701494      -0.00013313      -0.01156987      -0.00761532
C        0.08243395       5.62811112       3.71882399       0.00501058      -0.00452714      -0.00338250
C       -1.19236628       7.74058277       3.75210095      -0.00379647      -0.00118518       0.00764311
C       -2.42773020       9.84778570       3.85693545       0.00578785       0.01013096      -0.00463525
C        4.96540591       1.32536521       3.97787657      -0.00772953       0.00306055      -0.00029281
B        3.52473043       3.49730683       4.03936429       0.01168840      -0.00754206      -0.00060999
C        1.27379931       7.77251899       3.72145907       0.00175240       0.00581530      -0.00125941
C        0.03472394       9.88934584       3.87728253       0.00331691      -0.00573522       0.00539434
C        7.43682732       1.35585101       3.92293073       0.00065165       0.00047378      -0.00443322
C        6.18021093       3.47438217       3.88532520      -0.00860255       0.00282980      -0.00498998
C        4.97220554       5.56539522       3.50902700      -0.00759154       0.00017363       0.00254030
C        3.70034003       7.82472736       3.39448466       0.00148561       0.00638502       0.00452743
C        2.50519133       9.92795979       3.79308127      -0.01155942       0.00380889      -0.00779298
C        9.92090020       1.36131684       3.84541919       0.01130398      -0.00760996      -0.00146304
C        8.68208972       3.48509528       3.82642461      -0.00028847       0.00120119       0.00545914
C        7.43337385       5.59891787       3.67209839      -0.00106137       0.00084514      -0.00911093
C        6.18868155       7.73304596       3.53553633       0.00217208      -0.00925611      -0.00459774
C        4.97193099       9.89215214       3.69414658      -0.00618518       0.00546431      -0.00504564
Mn       2.52248134       5.18078582       5.02414305       0.00471866       0.01353506      -0.00381948
O        3.06193231       6.56111256       6.30069071       0.00196303      -0.00659641       0.00223433
O        1.80748475       6.96131981       6.93582832       0.01399682      -0.00314258       0.00252477
H        1.93400781       6.55267975       7.81461498      -0.01587912      -0.00399546      -0.00844024
