50
Lattice="12.336457 0.0 0.0 -6.168228499999997 10.683685154694365 0.0 0.0 0.0 15.0" Properties=species:S:1:pos:R:3:forces:R:3 energy=-436.39874800522614 free_energy=-436.39874800522614 stress="0.0006581537736212278 -1.7047272986289943e-06 -1.3797468545033458e-06 -1.7047272986289943e-06 -0.007042245784770078 2.4676887966340643e-05 -1.3797468545033458e-06 2.4676887966340643e-05 2.500765617639455e-05" pbc="T T T"
C        0.00172405      -0.00335897       3.58053766      -0.00186776      -0.00083316       0.00547082
C       -1.21916802       2.15177227       3.47122735      -0.01417492      -0.00003762      -0.00321111
C       -2.45239232       4.28109949       3.44057728       0.00027445       0.00628055      -0.00337259
C       -3.70133965       6.40580166       3.53565747      -0.00044505       0.00609016      -0.00354533
C       -4.94238741       8.53008281       3.64378954       0.00304428       0.00209639      -0.00290985
C        2.46685538      -0.05352413       3.54489708       0.00004379      -0.00474291       0.00465876
C        1.26047333       2.08923537       3.59673882      -0.00233404       0.00485438       0.01016202
C        0.04565544       4.28311266       3.64994709       0.00291579      -0.00629550       0.00529343
C       -1.24848907       6.41659711       3.74092276      -0.00389075       0.00929817      -0.00215369
C       -2.46032859       8.53001121       3.64364182      -0.00332621       0.00292965      -0.00298654
C        4.93193038      -0.00340098       3.58038134       0.00235386      -0.00042193       0.00474455
C        3.67322366       2.08931878       3.59661874       0.00193820       0.00408094       0.01134618
P        1.17723767       6.34776213       4.96659928       0.00164670       0.01000405       0.00313941
C       -0.00813363       8.58228867       3.92902989       0.01111913      -0.00595518      -0.00281076
C        7.39671082       0.03607689       3.64595272       0.00032463      -0.00995444      -0.00050927
C        6.15281335       2.15176783       3.47132788       0.01467775      -0.00004091      -0.00452533
C        4.88810381       4.28314389       3.65025530      -0.00330466      -0.00576706       0.00550791
P        3.75649553       6.34770498       4.96692931      -0.00141183       0.01085008       0.00299628
C        2.46686707       8.65200397       4.14600893      -0.00000233       0.00080135      -0.00244176
C        9.87341248       0.03613785       3.64627842      -0.00036373      -0.01006834      -0.00139735
C        8.63503068       2.15659831       3.43148930       0.00036456      -0.00654839       0.01067716
C        7.38609386       4.28113222       3.44064811      -0.00030392       0.00613797      -0.00318687
C        6.18228274       6.41666299       3.74123566       0.00350270       0.00896677      -0.00251661
C        4.94184067       8.58234515       3.92926966      -0.01098069      -0.00663765      -0.00206405
C        0.01278098       1.42718394       3.53049978      -0.01003151       0.00421047       0.00399268
C       -1.19832760       3.57282856       3.46561863      -0.00107519      -0.00034408      -0.00259386
C       -2.46607360       5.69956338       3.53322272      -0.00258344       0.00797648      -0.00069241
C       -3.70135984       7.82350063       3.60021733      -0.00016363       0.00150646      -0.01086170
C       -4.94147501       9.94708630       3.58414134      -0.00016614      -0.00072611       0.00938884
C        2.46687022       1.35973628       3.57062328      -0.00039392      -0.00098315       0.00836034
B        1.45754610       3.59554715       3.75024348       0.00415654       0.01201292       0.00490617
C       -0.06149845       5.66210597       3.92537952      -0.00793934      -0.00380674      -0.00424870
C       -1.23063933       7.83795096       3.79816981       0.00317380       0.01180928      -0.00967174
C       -2.46129452       9.94701948       3.58396480       0.00057940       0.00008132       0.00993345
C        4.92086749       1.42718035       3.53039456       0.01034060       0.00422282       0.00440001
B        3.47614084       3.59565390       3.75065884      -0.00469801       0.01183152       0.00468749
C        1.21969905       7.97081841       4.28802687       0.01154530      -0.00433478       0.00432813
C       -0.00471875       9.99548882       3.70205661       0.00255615      -0.00907334      -0.00499185
C        7.39342051       1.44976540       3.48497844       0.00731270      -0.01073301       0.00187227
C        6.13203338       3.57283873       3.46576753       0.00102129      -0.00018792      -0.00223594
C        4.99530503       5.66212568       3.92571422       0.00768929      -0.00339060      -0.00379749
C        3.71403614       7.97084253       4.28832007      -0.01163460      -0.00475733       0.00382266
C        2.46683988      10.03220559       3.79027426      -0.00007475      -0.00500573      -0.00075077
C        9.87665421       1.44979799       3.48515216      -0.00665368      -0.01070505       0.00109720
C        8.63505806       3.57778383       3.40243768       0.00014695       0.00071568      -0.00594934
C        7.39983799       5.69960538       3.53337049       0.00194169       0.00769040      -0.00067272
C        6.16438981       7.83803949       3.79840779      -0.00344516       0.01095322      -0.00957423
C        4.93839210       9.99555921       3.70238971      -0.00248599      -0.00960696      -0.00547151
Mn       2.46672021       4.60239084       5.37640011       0.00047389      -0.00745310      -0.01203460
O        2.47046845       4.51395670       7.01667115       0.00060782      -0.01699003      -0.00960783
