50
Lattice="12.336457 0.0 0.0 -6.168228499999997 10.683685154694365 0.0 0.0 0.0 15.0" Properties=species:S:1:pos:R:3:forces:R:3 energy=-444.5240704130659 free_energy=-444.5240704130659 stress="-0.006007206478970707 -0.0015135872968034664 -1.231499161260146e-06 -0.0015135872968034664 0.002211130871914436 -1.5450940277139806e-05 -1.231499161260146e-06 -1.5450940277139806e-05 -1.551576673605249e-05" pbc="T T T"
C       -0.01389958       0.01615219       3.85072735       0.00786441      -0.00866674       0.01070775
C       -1.27095950       2.12091380       3.85894421      -0.00293836       0.00010101      -0.01272150
C       -2.49660744       4.26691962       3.80524691      -0.00806252      -0.00137880       0.00077520
C       -3.70712375       6.42100099       3.77463808      -0.00071617       0.00818744       0.00211252
C       -4.93606829       8.57304543       3.81334184      -0.00790525      -0.00271861       0.00425314
C        2.45609219       0.02857847       3.79370449      -0.00466320       0.00310198      -0.00337566
C        1.22032074       2.20697121       3.85636540      -0.00683802       0.00160160       0.00443271
C       -0.04605727       4.25456291       3.93491606       0.00646589      -0.00147720       0.00620154
C       -1.27815020       6.42415739       3.86644973       0.00015728      -0.00837171      -0.01156728
C       -2.48409909       8.56489119       3.81397839      -0.00266289      -0.00352015      -0.01413122
C        4.92343143      -0.00066801       3.67291262      -0.00584203       0.00155550       0.00770551
C        3.66646341       2.08892734       3.36685955       0.00470889       0.00022789       0.00450386
C        1.16418629       6.37213359       4.02497432       0.00941728      -0.00791290       0.00060691
C       -0.01332033       8.52790122       3.82998346       0.00020471       0.00306970       0.00704775
C        7.38925934      -0.02849852       3.71656016       0.00176840      -0.00234814       0.00122066
C        6.15278482       2.13247124       3.49555171       0.01082208       0.00354545      -0.00832805
C        5.01502927       4.34871679       3.28310708      -0.00659932       0.00175911      -0.00013549
N        3.78424061       6.39755055       3.72262741      -0.00094469       0.00024879      -0.00795231
C        2.46817903       8.48795904       3.84650000       0.00398143      -0.00643014      -0.00029779
C        9.84584766      -0.02791147       3.80630538       0.00046988       0.00825480      -0.00111608
C        8.61159344       2.12021453       3.71295027      -0.00530158      -0.00011209       0.00521419
C        7.40294338       4.27788283       3.62556869       0.00210691      -0.00241655      -0.00257183
C        6.20089397       6.44723657       3.65078911       0.00252034      -0.00708342      -0.01018174
C        4.93305057       8.53790546       3.79848845       0.00101281       0.00619816      -0.00660075
C       -0.01880064       1.44336308       3.87530070      -0.00413074      -0.00968696       0.00839111
C       -1.28285021       3.54048630       3.86920195      -0.00062420       0.00382539      -0.00641132
C       -2.49230658       5.69900522       3.81432086      -0.00619239      -0.00017262       0.00601066
C       -3.70842810       7.85105260       3.80789393      -0.00698644       0.00492017      -0.00644305
C       -4.94394491       9.99701971       3.84041183       0.00371663      -0.00614937       0.01206956
C        2.45359994       1.45485167       3.70984449      -0.00617592       0.00692060      -0.00404131
C        1.18281099       3.60152802       3.98621785       0.01342271       0.00425528      -0.00228119
C       -0.05657848       5.70604201       3.93669105       0.00410897      -0.00575439      -0.00283109
C       -1.25721589       7.84473285       3.83835340       0.00058927      -0.00550630      -0.00411294
C       -2.48113305       9.98981308       3.76305776      -0.00688249      -0.00065638       0.00666148
C        4.91816319       1.42461912       3.49749508       0.00864080       0.00150716      -0.00665746
S        3.55203079       3.67375938       2.64652442      -0.00222232      -0.00111857      -0.00635605
C        1.22366167       7.76835916       3.89824592       0.00069117      -0.00235032       0.00621178
C       -0.01038354       9.95159223       3.73646703      -0.00291553       0.00510755       0.00202456
C        7.37603158       1.40829795       3.63611690       0.00270364      -0.00260186       0.01244521
C        6.17265949       3.56751333       3.45613338       0.00173237       0.00530261      -0.00679945
C        4.98551335       5.75511349       3.51870924      -0.00212504       0.00140411      -0.00235846
C        3.71960852       7.77362610       3.80456963       0.00754652      -0.00321977      -0.00217466
C        2.45334764       9.91983130       3.78925927       0.00413688      -0.00086057       0.00546483
C        9.83576869       1.39891545       3.79765073      -0.00578493       0.00603942       0.00097545
C        8.61687151       3.55195390       3.71725819      -0.00523608      -0.00490530       0.00069169
C        7.41094406       5.70635914       3.68232111       0.00704710      -0.00345337       0.00140788
C        6.17688959       7.86028663       3.76575874      -0.00277114      -0.00513683       0.00376424
C        4.92050463       9.96310323       3.83071742       0.00210459       0.00802064      -0.00076599
Mn       2.54905825       5.06925991       4.48768134      -0.00364917       0.00358813       0.00140849
O        3.10591471       4.74886808       6.01676958       0.00022949       0.01526653       0.00790393
