50
Lattice="12.336457 0.0 0.0 -6.168228499999997 10.683685154694365 0.0 0.0 0.0 15.0" Properties=species:S:1:pos:R:3:forces:R:3 energy=-444.5436173805206 free_energy=-444.5436173805206 stress="-0.0046524317393702355 0.0013484656507303549 -7.183169159318489e-06 0.0013484656507303549 0.0029324679077079403 1.5473005064047508e-05 -7.183169159318489e-06 1.5473005064047508e-05 -1.4032024203788708e-05" pbc="T T T"
C       -0.01402794       0.00574762       3.77265071      -0.00581569       0.00415389       0.01200904
C       -1.25495105       2.11878884       3.86482747      -0.00166952       0.00610236      -0.01746762
C       -2.48400391       4.26233615       3.81118278       0.01069210       0.00096234       0.00164226
C       -3.71408880       6.40678253       3.70045496      -0.00040106       0.00254543       0.00291111
C       -4.96046452       8.54930364       3.64660997      -0.00339210      -0.01458538      -0.00127723
C        2.44849222       0.02848477       3.80995057       0.00382417       0.00501022      -0.00089763
C        1.21875304       2.18996977       3.90432126      -0.00302615       0.00500926       0.01338697
C       -0.03487287       4.26485921       3.91949743       0.00092919       0.00313841       0.00010602
C       -1.26838895       6.41847641       3.85141490      -0.00668442      -0.00402751      -0.00837950
C       -2.49483181       8.55545001       3.80068310       0.00718311      -0.00736640      -0.00997393
C        4.92049534      -0.00186742       3.83968276       0.00431675      -0.00203857       0.00273018
C        3.69601625       2.18355871       3.79687016       0.00456507       0.00583075      -0.00440672
N        1.14907964       6.38498335       3.98814012       0.01385182      -0.00825930       0.00103528
C       -0.01651099       8.51405895       3.87400196      -0.00044514       0.00677318       0.00403167
C        7.39196763      -0.03511364       3.86813150       0.00048342       0.00111077       0.00274738
C        6.17735146       2.10477504       3.76740468      -0.00470872      -0.00305284       0.00671225
C        4.97184362       4.22516869       3.47514929      -0.00503971       0.00968075       0.00384536
S        3.58167689       6.32803223       2.55972521       0.00307297      -0.00752176      -0.01279025
C        2.44081000       8.49233436       3.73890370      -0.00354175       0.00927074      -0.00264211
C        9.85179066      -0.03207452       3.81059713      -0.00644534      -0.01202804       0.00137720
C        8.62838862       2.10997748       3.82671269       0.00165867      -0.00600046      -0.00712666
C        7.41368031       4.25246650       3.66184182      -0.00214540       0.00859481      -0.00593699
C        6.18232727       6.39932163       3.40975102      -0.00126660      -0.00125048       0.00099337
C        4.91264229       8.53374126       3.52682973       0.00233823      -0.00229469      -0.00286067
C       -0.01764427       1.43145981       3.85838847      -0.00798050       0.01127597       0.00103026
C       -1.26558340       3.54332398       3.86974864       0.01490350       0.00694457      -0.00975963
C       -2.48834877       5.69151873       3.79116662      -0.00478586      -0.00353306      -0.00116372
C       -3.72329858       7.83669074       3.70995398       0.00370529      -0.00517007       0.00667103
C       -4.95038349       9.98296307       3.74142469      -0.00326966      -0.00530753       0.00835953
C        2.45378407       1.45849013       3.85937887       0.00257418       0.00778501      -0.00321657
C        1.19154156       3.60176956       3.99673358       0.00598367       0.00159149       0.00817571
C       -0.04119593       5.72222034       3.91533583      -0.00836697       0.00082850       0.00549227
C       -1.26570706       7.83505045       3.85076868       0.00532247      -0.00658295      -0.00546407
C       -2.49040373       9.98378869       3.81810685       0.00678233      -0.00611096      -0.00421792
C        4.93370645       1.42112191       3.80074164       0.00146816      -0.00281394       0.01247373
C        3.73460750       3.59087191       3.70757250      -0.00877815      -0.00084933      -0.01160977
C        1.19669579       7.76197065       3.86907864      -0.00107538       0.01375287      -0.00084553
C       -0.01417002       9.94687535       3.86301256       0.00239681       0.00624810       0.01036769
C        7.40260733       1.38911718       3.83129967      -0.00089730      -0.00328570       0.00279119
C        6.20197001       3.51933187       3.63411782      -0.00937421       0.00450828      -0.01031276
C        5.02519910       5.63309488       3.20643555      -0.00304811       0.00639231       0.00396058
C        3.66070777       7.86762244       3.39099705       0.00294285       0.00481874       0.01385859
C        2.45082604       9.92520692       3.83388817      -0.00656604       0.00043096      -0.00116226
C        9.85251634       1.39584231       3.84823583      -0.00068815      -0.01062703      -0.00459051
C        8.63304672       3.54043005       3.77413774       0.00416937       0.00373925       0.00267818
C        7.40959117       5.68215383       3.59395472      -0.00035086       0.00926411       0.00561127
C        6.15359389       7.83051917       3.49274203      -0.00042817      -0.01193082      -0.01478881
C        4.91987799       9.95792729       3.71904657      -0.00303646      -0.00353906       0.00286663
Mn       2.54299865       4.95760237       4.46720475      -0.00562521      -0.00101877      -0.00474371
O        3.11400209       5.38921259       5.96270520       0.00568851      -0.01656841       0.00776983
