50
Lattice="12.336457 0.0 0.0 -6.168228499999997 10.683685154694365 0.0 0.0 0.0 15.0" Properties=species:S:1:pos:R:3:forces:R:3 energy=-444.4938519439324 free_energy=-444.4938519439324 stress="-0.005952969882956508 0.0008201590439724747 6.636536039667152e-06 0.0008201590439724747 0.0022305208399061765 -1.4845744141938813e-05 6.636536039667152e-06 -1.4845744141938813e-05 -1.1111529376769767e-05" pbc="T T T"
C        0.00940071       0.00017447       3.70147700       0.00946788      -0.00196390       0.00427873
C       -1.22532295       2.12712827       3.48351721      -0.00246978       0.00175207       0.00171894
C       -2.47816276       4.27709972       3.58952185      -0.00403711      -0.00421130       0.00137775
C       -3.70189528       6.42159864       3.76264067       0.00099689       0.00746363       0.00103335
C       -4.92315011       8.56373800       3.83585464       0.00242829      -0.00369541      -0.01180105
C        2.47734316       0.02888864       3.81539711       0.00106668       0.00480423      -0.00193500
C        1.26361428       2.08446624       3.38796845      -0.00567029      -0.00427000      -0.00366599
C       -0.09041377       4.32441510       3.23624350       0.00561009       0.00440907       0.00362521
C       -1.27772530       6.44359958       3.62333121      -0.00030498      -0.00808448       0.00113805
C       -2.47035656       8.57335286       3.81536388       0.00838778      -0.00449991      -0.00016748
C        4.94836263       0.01613950       3.85526032      -0.01114903      -0.00542828       0.01170574
C        3.71412486       2.20990829       3.86078018       0.00616444      -0.00065507       0.00432104
C        1.17253871       6.37872391       3.72481747       0.00638806       0.00172544      -0.00382420
C        0.00154050       8.54121284       3.79819950      -0.00298045       0.00529440       0.00650962
C        7.42564225      -0.02671618       3.81543992      -0.00189073       0.00470346      -0.00298735
C        6.20063897       2.12560955       3.85268272      -0.00330109       0.00633115      -0.00649576
C        4.96751419       4.27121141       3.92829023      -0.00205544       0.00151686      -0.00725295
N        3.79910567       6.39975277       4.02840945      -0.00921516      -0.00912835      -0.00998291
C        2.49249531       8.49054252       3.86835032       0.00013696      -0.00938615       0.00127145
C        9.88239014      -0.02641838       3.73700324      -0.00493080       0.00615947       0.00613688
C        8.65497924       2.12143349       3.70664203      -0.00088574      -0.00135646      -0.00062839
C        7.42334059       4.26996764       3.79342459       0.00244141      -0.00445556      -0.00446673
C        6.19869167       6.42558515       3.87419265       0.00016704      -0.01051233      -0.00690384
C        4.94915667       8.52646383       3.86144920       0.00480627       0.01065101      -0.00544592
C        0.01130381       1.42259992       3.51091557      -0.00316267      -0.00483139       0.01248175
C       -1.24918779       3.55876813       3.41447137       0.00020993       0.00390801      -0.01068303
C       -2.48464782       5.70763025       3.64973767      -0.00531517      -0.00250112       0.00634517
C       -3.69638879       7.85110467       3.81160565       0.00650337       0.00568133      -0.00513964
C       -4.92299343       9.99119491       3.79189631       0.00859832      -0.00365770       0.00044668
C        2.47993230       1.45454435       3.72982722       0.00031157       0.00685165      -0.00301350
S        1.37747253       3.64716084       2.62368163       0.00522854       0.00159285      -0.00873385
C       -0.05053205       5.73328985       3.48689871       0.00366472       0.00257847      -0.00443990
C       -1.24564985       7.85854813       3.75655389       0.00547390      -0.00781422      -0.00227392
C       -2.45880282       9.99551116       3.85088117      -0.00740508      -0.00614258       0.01179111
C        4.95207540       1.44418519       3.87532407       0.00210867      -0.00570407       0.00656312
C        3.75249066       3.60663091       3.98178426       0.00288451      -0.00538446       0.00708398
C        1.23991813       7.77257599       3.80439981      -0.00552469       0.00167499      -0.00234506
C        0.01349956       9.96328007       3.83492320      -0.00576525       0.00681792       0.00429980
C        7.43148555       1.40018480       3.79653207      -0.00149603       0.00697113       0.00825580
C        6.21029973       3.54874831       3.85965026      -0.00343917       0.00718518      -0.00666845
C        4.98286262       5.72867032       3.94094811      -0.00056184      -0.00644033      -0.00041689
C        3.73595568       7.77450644       3.92646146       0.00663964      -0.00207252       0.00556345
C        2.48868881       9.92236535       3.81125399      -0.00272147      -0.00620890      -0.00266131
C        9.89039352       1.40836275       3.63834436      -0.00291885       0.00352670       0.00113019
C        8.64749633       3.55309029       3.69804988      -0.00104271      -0.00837152      -0.00286811
C        7.41859978       5.69967591       3.80875855       0.00621657      -0.00422303       0.00295959
C        6.18770744       7.84422571       3.86238964      -0.00091085      -0.00470388      -0.00455621
C        4.94415172       9.95333813       3.76617234       0.00246159       0.01589537       0.00260220
Mn       2.41294536       5.08969470       4.47880622      -0.00948256       0.00222846       0.00056939
O        1.88097870       4.74695810       6.01120010       0.00027384       0.01598005       0.00614846
