51
Lattice="12.336457 0.0 0.0 -6.168228499999997 10.683685154694365 0.0 0.0 0.0 15.0" Properties=species:S:1:pos:R:3:forces:R:3 energy=-454.8932747393436 free_energy=-454.8932747393436 stress="-0.003942931895074949 0.0024012711830958397 -2.5356794534061576e-05 0.0024012711830958397 -0.0067119945685721735 -1.508224501299073e-05 -2.5356794534061576e-05 -1.508224501299073e-05 -1.936183844422114e-06" pbc="T T T"
C       -0.01167615      -0.00523093       3.72887484      -0.00346170       0.00419230       0.00097613
C       -1.23161579       2.14081439       3.79333253       0.00332983      -0.00062292       0.00931560
C       -2.46128467       4.27072658       3.79324494       0.00045270       0.00361601       0.00916472
C       -3.70989674       6.40027514       3.72855585       0.00211015      -0.00513644       0.00099988
C       -4.96528982       8.52758159       3.67245226       0.00248574       0.00157492      -0.00347953
C        2.44757066      -0.02094346       3.74213236      -0.00596048      -0.00812707       0.00168965
C        1.22971169       2.12273701       3.81009857       0.00696639       0.00086447       0.00185075
C        0.00923713       4.27717846       3.88913629      -0.00107507      -0.00085395       0.00240693
C       -1.24640485       6.41140135       3.81047365       0.00479438       0.00551227       0.00189889
C       -2.49387933       8.53795523       3.74225052      -0.01039805      -0.00146252       0.00178768
C        4.91822505      -0.01103767       3.75423366       0.00328649       0.00149621       0.00251207
C        3.69166649       2.10464952       3.76093650      -0.00431815       0.00167298      -0.00073803
C        2.49170342       4.21219395       3.97438290      -0.00537090      -0.00290233       0.00071270
C        1.19403781       6.45947071       3.97549815      -0.00554528      -0.00228907       0.00060137
C       -0.03102506       8.55254940       3.76193167      -0.00113244      -0.00466377      -0.00087292
C        7.38546587       0.00614885       3.76447307       0.00075409       0.00481664      -0.00482588
C        6.16676615       2.11700981       3.76382326       0.00463103      -0.00161565      -0.00411654
C        4.94734071       4.22737579       3.66754343       0.00125790      -0.00586064      -0.00320742
S        3.54694783       6.32002645       2.75160989      -0.01169936      -0.00729107      -0.01365987
C        2.43515731       8.57852479       3.66913612      -0.00444711       0.00430066      -0.00319725
C        9.86313035       0.01028084       3.73296878      -0.00284958       0.00051675      -0.00272894
C        8.63616888       2.13549913       3.77922325       0.00428105       0.00202807       0.00130155
C        7.40921877       4.26066833       3.73228359      -0.00103935      -0.00287642      -0.00299207
C        6.15761125       6.39216250       3.58785656       0.00367741       0.00210183      -0.00218605
C        4.91507321       8.54432465       3.58847966       0.00324913       0.00199385      -0.00151101
C       -0.00454098       1.42131148       3.78042629       0.00604709       0.00415677      -0.00085466
C       -1.22170730       3.56645588       3.82383025      -0.00141219      -0.00026202       0.00856014
C       -2.47092358       5.69317076       3.78037551       0.00695026       0.00350416      -0.00085531
C       -3.72385465       7.82197664       3.71202735      -0.00496850      -0.00637914       0.00204406
C       -4.95567867       9.95550008       3.71215253      -0.00767884      -0.00088881       0.00189736
C        2.45269452       1.40087090       3.77382036       0.00015322      -0.00802232       0.00723013
C        1.25023570       3.55882288       3.88924391      -0.00184569      -0.00092771       0.00385355
C        0.00753618       5.71111463       3.88977869      -0.00121179      -0.00137878       0.00356735
C       -1.26000735       7.83147672       3.77431611      -0.00711295       0.00394679       0.00733360
C       -2.48746280       9.95820376       3.74266541      -0.00237591      -0.00161882      -0.00290896
C        4.92863301       1.40592877       3.75607493       0.00083714       0.00370370      -0.00582502
C        3.69403574       3.52548323       3.75439521      -0.00522299       0.00023534      -0.00357422
C        1.20062537       7.84410435       3.75595510      -0.00271679      -0.00402151      -0.00408498
C       -0.01766086       9.97315577       3.75662231       0.00376446      -0.00160044      -0.00538835
C        7.39842966       1.42087846       3.77567944       0.00550895       0.00312344      -0.00333485
C        6.18190153       3.53576674       3.72732594       0.00243376      -0.00538510       0.00283472
C        4.96867523       5.62954682       3.48634951       0.00292827      -0.00315181       0.00190199
C        3.66011402       7.89592205       3.48760709      -0.00155249       0.00384887       0.00173357
C        2.45347514       9.99350672       3.72832947      -0.00349862       0.00504943       0.00354947
C        9.87039291       1.43164148       3.77308940       0.00245543      -0.00085283      -0.00029887
C        8.64377547       3.55629616       3.77279982       0.00023047       0.00197269      -0.00026034
C        7.39878612       5.68330087       3.69225123       0.00086257      -0.00284435      -0.00347258
C        6.13856145       7.81594024       3.59343302       0.00726536       0.00439520      -0.00195107
C        4.92174439       9.97363275       3.69296763      -0.00215591       0.00200428      -0.00420870
Mn       2.71115790       5.83642026       5.01496096       0.00632095       0.00320492       0.01051182
O        3.07615022       6.04317556       6.57050766       0.01201593       0.00720295      -0.00970226
