49
Lattice="12.336457 0.0 0.0 -6.168228499999997 10.683685154694365 0.0 0.0 0.0 15.0" Properties=species:S:1:pos:R:3:forces:R:3 energy=-439.935526799123 free_energy=-439.935526799123 stress="-0.006171057105748599 0.0012208707319025448 8.935456409551418e-06 0.0012208707319025448 0.0015097090622539406 4.8466005868507875e-06 8.935456409551418e-06 4.8466005868507875e-06 -5.464900896771296e-07" pbc="T T T"
C       -0.00289212       0.01410866       3.78780247       0.00222554       0.00610405      -0.00002451
C       -1.24358992       2.12716061       3.92513777       0.00126787      -0.00405602       0.01278241
C       -2.47832977       4.27269498       3.95744318       0.00598459      -0.00074687      -0.01094966
C       -3.70703014       6.41693230       3.82976517       0.00173693      -0.01046914      -0.00066092
C       -4.94817755       8.55665346       3.69798155       0.00294723      -0.00229061      -0.00046546
C        2.46086251       0.03373207       3.80065430      -0.00751625       0.00372169       0.00653262
C        1.22942806       2.19226395       3.85404429      -0.00580772      -0.00349873      -0.00271298
C       -0.03737711       4.28017859       3.97175330      -0.00069596      -0.00641355       0.00070244
C       -1.26516430       6.43013479       3.96146011       0.00625213       0.00344316       0.00122122
C       -2.48346694       8.56353894       3.86071482       0.00543794       0.00287587      -0.00554568
C        4.93340956       0.00253869       3.84267806       0.00515585       0.00125289       0.00711720
C        3.71311680       2.18016212       3.72428962       0.00092038      -0.00323318      -0.00222573
N        1.14717735       6.39785849       3.88642765      -0.01419671       0.00409112      -0.00049905
C       -0.00764644       8.52304610       3.87111215       0.00011602       0.00001786       0.00110001
C        7.40442646      -0.02980985       3.88044198       0.00370980      -0.00883968      -0.00140049
C        6.19078478       2.10953115       3.80238429      -0.00398145       0.01081107      -0.00315794
C        5.00704813       4.22858721       3.44876828       0.00323146       0.00124226      -0.00002442
S        3.69888768       6.38871623       2.40324721       0.01415367       0.00067418      -0.00132772
C        2.45265287       8.50020858       3.67215269      -0.00957476       0.00314619       0.00569389
C        9.86254012      -0.02411910       3.83092764       0.01269411      -0.00300628      -0.00321396
C        8.64030428       2.11694438       3.91175358      -0.00708488      -0.00226336       0.00373075
C        7.42719664       4.26215153       3.77122115      -0.00159872       0.00213592      -0.00694454
C        6.20224437       6.40741643       3.47015689      -0.00218949      -0.00085022       0.00583496
C        4.92989648       8.54571965       3.52919082      -0.00422810       0.00219820       0.00130821
C       -0.00630604       1.43933151       3.86731100      -0.00106526       0.00104232       0.00010806
C       -1.25875977       3.55285680       3.97679192       0.00056072      -0.00712474       0.00556349
C       -2.48520766       5.70110710       3.93671520       0.00753774      -0.00095012      -0.00271928
C       -3.71328820       7.84531230       3.79862319       0.00552984      -0.00602797      -0.00601543
C       -4.93925584       9.99077549       3.75944664      -0.00535085       0.00177704       0.00562583
C        2.46498438       1.46147723       3.79761398      -0.00395635       0.00008014       0.00002117
C        1.18789476       3.60403804       3.89179070      -0.00892985      -0.00606820       0.00014110
C       -0.04916099       5.72729489       3.96944580       0.00083131      -0.00189320       0.00450605
C       -1.25461699       7.84469378       3.91094196       0.00528151       0.00243978      -0.00742989
C       -2.47758277       9.98995884       3.83141986      -0.00055341       0.00689924       0.00259716
C        4.94895602       1.42300829       3.79026122       0.00222426       0.00091867      -0.00469507
C        3.77119743       3.56910511       3.56240123       0.01007876      -0.00708085       0.00488396
C        1.20363280       7.77841764       3.79499486      -0.01023138       0.00436393       0.00396347
C       -0.00227297       9.95372089       3.86808051       0.00424155      -0.00564417      -0.00341774
C        7.41553454       1.39465596       3.88253469      -0.00927742      -0.00303094      -0.00457350
C        6.22228769       3.52569207       3.68567937      -0.00216999       0.00865732      -0.00693260
C        5.06156426       5.63974669       3.19568411       0.00709711      -0.00124623      -0.00937239
C        3.68354628       7.88088235       3.34625691      -0.01225273       0.01089344       0.00131579
C        2.46247622       9.93346249       3.82358892       0.00736027      -0.00096023      -0.00572010
C        9.86467932       1.40307726       3.90831882       0.00060012      -0.00521921       0.00511666
C        8.64287560       3.54858782       3.90123489      -0.00100193       0.00364543      -0.00387350
C        7.42046000       5.69132827       3.70642386      -0.00376380      -0.00196520       0.00260758
C        6.16964102       7.83846299       3.52664429       0.00002597      -0.00070976       0.00927548
C        4.93149408       9.96801674       3.73400438       0.01232839      -0.00156407       0.00336101
Mn       2.48631831       4.97718863       3.79700230      -0.01410403       0.01272076      -0.00120795
