49
Lattice="12.336457 0.0 0.0 -6.168228499999997 10.683685154694365 0.0 0.0 0.0 15.0" Properties=species:S:1:pos:R:3:forces:R:3 energy=-434.9262301684296 free_energy=-434.9262301684296 stress="0.0045838040848014995 0.0025995416513554764 8.19589410168964e-06 0.0025995416513554764 0.00011268495594991266 -7.752449484512496e-06 8.19589410168964e-06 -7.752449484512496e-06 1.1597359502184022e-06" pbc="T T T"
C        0.00105663      -0.01711297       3.71399949       0.00718742       0.01215149      -0.00759989
C       -1.21690576       2.13774662       3.75280672      -0.00795392       0.00188465       0.00330687
C       -2.44493095       4.26979115       3.77151496       0.00088697      -0.00276458       0.00883800
C       -3.70681952       6.38760213       3.76362999       0.00136445      -0.00677868      -0.00310974
C       -4.96025190       8.51395747       3.71145179      -0.00075593       0.00128063       0.00475472
C        2.45600784       0.01311326       3.76857281       0.00028896      -0.00652252      -0.00417409
C        1.21289378       2.12511903       3.78959542      -0.00448208      -0.00941216      -0.00053035
C        0.02597144       4.23815374       3.76705568      -0.00161947      -0.00582963      -0.00081127
C       -1.19185055       6.37616470       3.74468838       0.00822917       0.00426958      -0.00126669
C       -2.48271021       8.52314499       3.76473956       0.01033876       0.00428851       0.00123581
C        4.91913564      -0.02040942       3.79758475      -0.00652291       0.00282741       0.00207351
C        3.73097148       2.10437437       3.80658378      -0.00039176       0.00399076       0.00243388
C        1.32650840       6.41925589       3.64003097      -0.00575811       0.00170148       0.00141151
C       -0.01604543       8.53389593       3.75300902       0.00442577      -0.00391208       0.00237445
C        7.39155963       0.00053859       3.77397161      -0.00584969      -0.00554267       0.00377282
C        6.17387025       2.11157707       3.82720784       0.00282955       0.00516337       0.00348669
C        4.95897150       4.18357970       3.78832319       0.00266355       0.00475570      -0.00485350
P        3.33687122       6.23536678       2.88057817       0.00678367      -0.00406660      -0.00365885
C        2.43623212       8.58981521       3.62127227      -0.00214872      -0.00408866      -0.00662360
C        9.87404562       0.00503424       3.70547094       0.01056002      -0.00056279       0.00481894
C        8.64644082       2.13286789       3.79239341       0.00458198       0.00543296      -0.00714832
C        7.41193426       4.25605096       3.81019128      -0.01189761      -0.00142088       0.00007944
C        6.11446837       6.35544466       3.71751309      -0.00714472      -0.00094629      -0.00092324
C        4.91009495       8.52449044       3.58058182      -0.00553009       0.00059170      -0.00121443
C        0.01807952       1.42316111       3.74894887      -0.00953822       0.00543764       0.00464663
C       -1.19913939       3.55844145       3.75918019      -0.00207492      -0.00331582       0.01051476
C       -2.44545468       5.68550492       3.76415033       0.00971365      -0.00122748      -0.00226298
C       -3.71827990       7.81065994       3.74841156       0.00758288      -0.00146498      -0.00059697
C       -4.94060763       9.95597636       3.72823292       0.00097076       0.00272795      -0.00424629
C        2.46446889       1.46237673       3.79033994      -0.00142894      -0.00869548      -0.00120866
O        1.18746865       3.50435279       3.83313882      -0.00334256      -0.00953471      -0.00863760
C        0.08183048       5.66449822       3.71776896       0.00168862      -0.00166707      -0.00791782
C       -1.24108680       7.80900398       3.75855450       0.00945895       0.00344050       0.00701271
C       -2.48638923       9.95993211       3.77842327       0.00012269       0.00138400      -0.00013374
C        4.92570862       1.40744149       3.81559338      -0.00005903       0.00750894       0.00064138
O        3.77633852       3.47233843       3.78817919       0.00856454       0.00586497       0.01329271
C        1.21979590       7.83657165       3.68650941       0.00187487      -0.00403442      -0.00568700
C       -0.01172151       9.95976856       3.77995903      -0.01061727      -0.00564948       0.00336070
C        7.40094369       1.41810741       3.80717451       0.00300694       0.00125336      -0.00446387
C        6.18021284       3.52002057       3.82991996      -0.00704113       0.00227891      -0.00354300
C        4.87206687       5.59291679       3.72286750       0.00994453      -0.00186225       0.01186127
C        3.64457309       7.86952609       3.46604074      -0.00482794      -0.00482124      -0.00370282
C        2.45968773       9.99592449       3.70744766       0.00300440      -0.00274418       0.00012073
C        9.88831724       1.42933111       3.75326821       0.00333575       0.00102525       0.00115319
C        8.65286363       3.55506644       3.79788232      -0.00460465       0.00487079       0.00265435
C        7.38001008       5.67494984       3.77344648      -0.01030146      -0.00329455      -0.00015098
C        6.13410352       7.79161578       3.65707503      -0.00935267       0.00278046      -0.00335193
C        4.92915984       9.95560991       3.66331896       0.01206007       0.00485201       0.00003861
Mn       2.79692371       5.86589049       5.03612091      -0.00822513       0.00839618      -0.00606606
