50
Lattice="12.336457 0.0 0.0 -6.168228499999997 10.683685154694365 0.0 0.0 0.0 15.0" Properties=species:S:1:pos:R:3:forces:R:3 energy=-439.9993345577169 free_energy=-439.9993345577169 stress="0.001078236306854478 0.0023523577220126595 1.7968884986296246e-05 0.0023523577220126595 0.0009507697867474677 6.1821120833853385e-06 1.7968884986296246e-05 6.1821120833853385e-06 -1.2923590571166328e-05" pbc="T T T"
C        0.00039513      -0.00358599       3.76147200      -0.00383700       0.00185038      -0.00905285
C       -1.22549428       2.13998404       3.82114572       0.00577641       0.00434560       0.00250363
C       -2.45388578       4.27606959       3.81284062      -0.00170541      -0.00373077      -0.00157255
C       -3.70655423       6.40216052       3.75597957       0.00073336      -0.00034400       0.00963273
C       -4.95454700       8.53553494       3.71197619       0.00283169       0.00196917       0.00241619
C        2.45501392       0.03865273       3.78651235      -0.00569178       0.00341216      -0.00657709
C        1.20516491       2.14380218       3.82647355      -0.00101960       0.00368328      -0.00368184
C        0.00411628       4.24257098       3.82982553       0.00258330       0.00599282      -0.00276176
C       -1.21785390       6.39160052       3.78298320      -0.00370785       0.00332610      -0.00167512
C       -2.48799184       8.54374450       3.77997764       0.00918166       0.00316325       0.00707465
C        4.91318993      -0.00061651       3.81690541       0.00046528      -0.00061314       0.00209772
C        3.72924011       2.13402211       3.78346593       0.00401140      -0.00327146       0.00061257
C        1.24755578       6.42358114       3.69196153      -0.00763989      -0.00438984       0.00157673
C       -0.02756215       8.54889079       3.77959224       0.00565179      -0.00447103      -0.00239346
C        7.38907135       0.00155161       3.81537642      -0.00433046      -0.00334652      -0.00564695
C        6.17221948       2.11978049       3.81982900      -0.00076152       0.00436487       0.00303913
C        4.97176134       4.18912513       3.64507395       0.00372403       0.00627933      -0.01196174
P        3.49641313       6.29215693       2.71943013       0.00344460      -0.01101141       0.00347265
C        2.43211405       8.57709044       3.68152054      -0.00692516       0.00118430       0.00608561
C        9.86920525       0.00223110       3.76902178       0.00857872      -0.00158527       0.00617753
C        8.64222743       2.13470984       3.82849248      -0.00177885      -0.00035996       0.00144166
C        7.41362170       4.26358466       3.77857218      -0.01034680       0.00524026      -0.00407974
C        6.14547227       6.37388373       3.63421077       0.00825637       0.00872114      -0.00175317
C        4.91861739       8.53395736       3.62051804      -0.00928018      -0.01123099       0.00544860
C        0.01202925       1.43499445       3.80804186       0.00095687       0.00173619      -0.00410645
C       -1.21219148       3.56066402       3.82858074       0.00539995       0.00487430      -0.00430036
C       -2.45827888       5.69367241       3.78791744      -0.00033408      -0.00206044       0.00291522
C       -3.71805468       7.82840444       3.74887839       0.00826361       0.00193802      -0.00442357
C       -4.93878713       9.97705054       3.75147955      -0.00551534       0.00236651      -0.00369470
C        2.46202277       1.48832285       3.80460730      -0.00287426       0.00206862      -0.00184243
O        1.17601724       3.52324021       3.85559652       0.00098585       0.00280592      -0.00213673
C        0.03758485       5.67363348       3.78274543      -0.00271210       0.00470939      -0.00393387
C       -1.25157729       7.82644793       3.78525135       0.00772781      -0.00033200      -0.00490457
C       -2.49065130       9.98176930       3.79411175      -0.00147994       0.00370901      -0.00018891
C        4.92079916       1.42749640       3.81793411       0.00402758      -0.00057167       0.00867659
O        3.77960484       3.50005646       3.65337444       0.01261374      -0.00725281       0.00305529
C        1.20527577       7.84019395       3.71711173      -0.00045573      -0.00616206      -0.00072514
C       -0.01864881       9.97260629       3.80861335      -0.00206160      -0.00707920       0.00649778
C        7.39849448       1.42102529       3.83359886      -0.00462487      -0.00061983      -0.00300899
C        6.18152773       3.52818758       3.76945832      -0.00262930       0.00433655      -0.00983981
C        4.92529672       5.60602100       3.55938832       0.01181727       0.00780026      -0.00374965
C        3.65678196       7.85020672       3.54279557      -0.01458229      -0.00971530      -0.00188237
C        2.45608622       9.98475786       3.76495360       0.00126267       0.00274161      -0.00613998
C        9.88161772       1.42783489       3.81393307       0.00624164       0.00238167      -0.00072268
C        8.64864653       3.55907195       3.81605321      -0.00984171       0.00167366       0.00073541
C        7.39284667       5.68388305       3.72985994      -0.00091542       0.00471245       0.00189944
C        6.14432254       7.81099228       3.63694417      -0.00075094       0.00289510       0.01172283
C        4.92970335       9.96142667       3.72071577       0.00225041      -0.00981071       0.00490545
Mn       2.73979614       5.96231220       4.93482677       0.00244670      -0.01110716       0.00549318
O        2.88254241       5.21568455       6.37091222      -0.01343063      -0.00521634       0.00927587
