49
Lattice="12.336457 0.0 0.0 -6.168228499999997 10.683685154694365 0.0 0.0 0.0 15.0" Properties=species:S:1:pos:R:3:forces:R:3 energy=-434.3722936146392 free_energy=-434.3722936146392 stress="-0.004174891641895251 -0.000555646663985875 -4.056780955279119e-06 -0.000555646663985875 0.0028152640899533803 2.7469447447165115e-06 -4.056780955279119e-06 2.7469447447165115e-06 -3.983977505542735e-07" pbc="T T T"
C       -0.00576991       0.00366854       3.86290630      -0.01163649       0.00030132       0.00516101
C       -1.25248454       2.12940460       3.93097033      -0.00102666      -0.01098509       0.00243689
C       -2.47841497       4.27062725       3.95421268       0.01290777       0.00289227      -0.00964941
C       -3.69411989       6.41396039       3.88797750       0.00224534       0.00292860      -0.00234389
C       -4.92668229       8.56426693       3.85512067      -0.00414541       0.00088599      -0.00417825
C        2.45514789       0.03200761       3.82497071       0.00133343      -0.00258397      -0.00009013
C        1.19495105       2.13235660       3.81135741       0.00556168       0.00112246       0.00336900
C       -0.06879781       4.28401020       4.04016364      -0.00373126      -0.00118654       0.00025735
C       -1.25068411       6.41024692       4.03235995       0.00545120       0.00347328       0.00886116
C       -2.46611616       8.55719736       3.93015474       0.00617607      -0.00792310      -0.00402455
C        4.93010989       0.00282526       3.75365425      -0.00183053       0.00502983       0.00532614
C        3.68428296       2.09994320       3.35525394       0.01008466      -0.00299313      -0.01471733
O        1.14196850       6.42626525       4.01495480      -0.00200772      -0.00403879      -0.00420175
C       -0.00603394       8.52973137       3.91768090      -0.00052685      -0.00065859      -0.00074373
C        7.39760987      -0.02549448       3.78432501      -0.00235067      -0.00348954      -0.00334839
C        6.17647318       2.12621706       3.53042744      -0.00030131       0.00313960       0.00482843
C        5.05609731       4.31740716       3.14998038      -0.01108377      -0.00192385       0.00603985
C        3.79371374       6.41177712       3.39989085       0.01211034       0.00338853      -0.00012090
C        2.43972637       8.48500542       3.79594695       0.00202783       0.00510454       0.00412924
C        9.85487789      -0.02856585       3.83854205       0.00185514      -0.00249746      -0.00678821
C        8.62696360       2.12173226       3.80470425       0.00008320      -0.00385970       0.00187055
C        7.42264600       4.27110733       3.67587214      -0.00227410       0.00507172      -0.00649527
C        6.22575053       6.43560393       3.60654917      -0.00689479       0.00241588       0.00028300
C        4.93316251       8.53218079       3.74449724      -0.00358826      -0.00080719      -0.00287393
C       -0.00744974       1.43992970       3.88483629       0.00309145      -0.00125151       0.00657749
C       -1.25254134       3.55286167       3.99727649       0.00509264      -0.01050186      -0.00443560
C       -2.47458457       5.68965957       3.97688263       0.00902639       0.00623573      -0.00669827
C       -3.69999414       7.84513462       3.90405386       0.00195676      -0.00085808       0.00440253
C       -4.93583886       9.99331299       3.86846666      -0.00831821       0.00208844       0.00249010
C        2.43556631       1.46398387       3.67702124       0.00883210       0.00108244      -0.00081263
O        1.15164564       3.54681624       3.95459405      -0.00606632       0.00460094       0.00654727
C       -0.06762727       5.68292864       4.06035955      -0.00226181      -0.00113743       0.00279052
C       -1.24588823       7.83609028       3.97493828       0.00425860      -0.00238915       0.01080960
C       -2.47686398       9.99101183       3.84564160       0.00347794      -0.00598065      -0.00456561
C        4.92545370       1.42266368       3.53421489       0.00457876       0.00724296       0.00773161
P        3.70597987       3.54940417       2.31473620      -0.00239940      -0.00049918      -0.00101477
C        1.19945585       7.83065108       3.89741349       0.00151374       0.00351853       0.00072801
C       -0.00483360       9.96263471       3.81980902      -0.00562225       0.00044636      -0.00239375
C        7.39545282       1.41012048       3.70804584      -0.00365964      -0.00363242       0.01266072
C        6.21022215       3.55560907       3.44158275      -0.00468522       0.00144119      -0.00305186
C        5.02763996       5.74394740       3.34007681      -0.00074326      -0.00276248       0.00772942
C        3.70431590       7.78358664       3.65247287       0.00138560      -0.00028490      -0.00570657
C        2.45243982       9.92447540       3.81490850       0.00383232       0.00502112       0.00387274
C        9.86240527       1.40789519       3.87305380       0.00009540      -0.00735301      -0.00258261
C        8.63233376       3.55171838       3.82420722       0.00490357       0.00413263       0.00030707
C        7.43055977       5.70009256       3.72686667      -0.00562087       0.00811285      -0.00803662
C        6.18743772       7.84989591       3.74599646      -0.00672709       0.00076847       0.00229365
C        4.92900184       9.95679062       3.83262288      -0.00682320      -0.00310499      -0.00580946
Mn       2.60872701       4.98385218       3.78216823      -0.00755686       0.00225690      -0.00681985
