50
Lattice="12.336457 0.0 0.0 -6.168228499999997 10.683685154694365 0.0 0.0 0.0 15.0" Properties=species:S:1:pos:R:3:forces:R:3 energy=-439.32753374869094 free_energy=-439.32753374869094 stress="-0.00389269881616141 0.003266726389401118 1.724168084740873e-05 0.003266726389401118 0.002991895327790431 7.958491006508675e-06 1.724168084740873e-05 7.958491006508675e-06 -3.8343819285837435e-07" pbc="T T T"
C        0.01572467       0.00882576       3.68597018       0.00039369      -0.01360165       0.00539752
C       -1.21152434       2.14746228       3.49835360      -0.00080635       0.00028329      -0.00272387
C       -2.46149369       4.28331341       3.58097980       0.00308643       0.01131698      -0.00149325
C       -3.70004074       6.42223742       3.73016882      -0.00517087       0.00786113       0.00226112
C       -4.92303817       8.56633738       3.79366086       0.01077315      -0.00475286       0.00133419
C        2.48965184       0.03870660       3.82365116       0.00145756      -0.00174763      -0.00111982
C        1.28493830       2.13241787       3.43419917      -0.00086371       0.00512361      -0.01327799
C       -0.04399015       4.36789380       3.27164006       0.01414536      -0.01047697       0.00708792
C       -1.26978173       6.45513936       3.58801269       0.00442750       0.00369485      -0.01116755
C       -2.46447939       8.56866296       3.79441025      -0.00296283      -0.00059767      -0.00501404
C        4.95136054       0.00858952       3.86248246      -0.00494485      -0.00297487       0.01093052
C        3.76564084       2.13529991       3.91628213      -0.00105665      -0.00946335       0.00847191
O        1.12016437       6.44108383       3.71734922       0.00823312       0.00224479       0.00329907
C       -0.00043194       8.54638095       3.78337567      -0.00351493       0.00713510       0.00055250
C        7.42910146      -0.02445627       3.80132721      -0.00778396       0.01024626       0.00117551
C        6.21143276       2.12391081       3.87783948       0.00199061       0.00288739      -0.01034564
C        5.02326325       4.25027065       4.00577758      -0.01088603      -0.00186613      -0.00465286
C        3.76353635       6.36988464       4.07059487      -0.00243387      -0.01445206      -0.00422859
C        2.45234389       8.48484232       3.84075943      -0.00158349       0.00212260      -0.00267961
C        9.88429291      -0.02028413       3.71015830      -0.01611292       0.00481780       0.00674371
C        8.66508065       2.12824764       3.70041631       0.00227305      -0.01191002       0.00206822
C        7.42985203       4.27277668       3.78271390       0.01279090      -0.00766014       0.01316121
C        6.19700036       6.40909106       3.84625436       0.00284308       0.00482530      -0.00824691
C        4.93981370       8.52567432       3.81516803       0.00314927       0.00969886       0.00698851
C        0.03385040       1.43936586       3.52632288       0.00108297      -0.00710430      -0.00384228
C       -1.23382448       3.58105579       3.42888861      -0.00265541       0.00124039      -0.00870754
C       -2.48463067       5.70861889       3.62948130      -0.00420864       0.01517572      -0.00402251
C       -3.69950640       7.85149946       3.77568435       0.00507708      -0.00172419       0.00549427
C       -4.91727093       9.99500484       3.77403036       0.00755538      -0.01010986       0.00014373
C        2.51547354       1.47278245       3.76416571       0.00626734       0.00624742       0.00124300
P        1.42826735       3.69049147       2.60301454       0.00806862       0.01275940      -0.00809475
C       -0.08558127       5.76794382       3.43697251      -0.00040339      -0.01207238      -0.00354705
C       -1.24864198       7.86321165       3.73202591      -0.00249612       0.00600712      -0.00389397
C       -2.45721203       9.99972743       3.85072782      -0.00569413      -0.00160007      -0.00350072
C        4.96310658       1.43961179       3.90656151       0.00344493      -0.00142345      -0.00491952
O        3.83212082       3.52943419       4.15405447      -0.01055773       0.00227868       0.00093008
C        1.20041607       7.84674372       3.80173104       0.00215970       0.00154342       0.00494375
C        0.01824561       9.97155920       3.82859110      -0.00331570       0.00769558      -0.00709369
C        7.43101057       1.41335926       3.79561878      -0.00239003       0.00303613       0.00717627
C        6.20740397       3.54408407       3.88818047       0.00161808       0.00026051       0.00022275
C        4.96477200       5.67284359       3.96941052       0.00145976      -0.00319456       0.00283855
C        3.70734439       7.74883025       3.90389686       0.00662418      -0.00478580       0.00363125
C        2.48169611       9.92551033       3.77902781      -0.01384640       0.00675827       0.00398485
C        9.89764749       1.41627369       3.63121262      -0.00279023      -0.00416220      -0.00010549
C        8.65557886       3.55895209       3.68739567       0.01364505      -0.01217846      -0.00260901
C        7.41429300       5.69668187       3.78080247      -0.00277457      -0.00103910       0.00952321
C        6.18205150       7.83570180       3.81317582       0.00589769       0.00924009       0.00273211
C        4.94926861       9.95817223       3.73027446      -0.01181083       0.00433636       0.00569466
Mn       2.34509207       5.04841954       4.66584270      -0.00336396      -0.01457394       0.00684749
O        1.59881740       4.53409585       6.10084284      -0.00403688       0.00463458      -0.00959124
