50
Lattice="12.336457 0.0 0.0 -6.168228499999997 10.683685154694365 0.0 0.0 0.0 15.0" Properties=species:S:1:pos:R:3:forces:R:3 energy=-439.3269064188752 free_energy=-439.3269064188752 stress="-0.00401471822419413 -0.0013730886185995648 -2.143088069220884e-05 -0.0013730886185995648 0.004275340877835059 -1.5034391524049828e-05 -2.143088069220884e-05 -1.5034391524049828e-05 7.565275500843752e-06" pbc="T T T"
C       -0.02255093       0.00358867       3.84884365      -0.01070283       0.01134649       0.00021130
C       -1.26804661       2.13366131       3.89783501      -0.00008677      -0.00686759       0.00182151
C       -2.47946338       4.27720777       3.87043923       0.00828583      -0.00556615      -0.00803875
C       -3.68886221       6.42235922       3.79992814       0.00636219      -0.00445566      -0.00091829
C       -4.93501757       8.57210856       3.80046096       0.01000680       0.00475006       0.00517783
C        2.44079054       0.04187219       3.83827296      -0.00056986      -0.00885978      -0.00136499
C        1.16619298       2.15454038       3.86210271       0.01043009      -0.00335154       0.00541270
C       -0.06103351       4.27950464       3.97968472      -0.00772363       0.00877387      -0.00680982
C       -1.23921014       6.40429742       3.94842630      -0.00513385       0.00340851      -0.00645638
C       -2.47240291       8.56218132       3.87980113       0.00853546      -0.00153251      -0.00860769
C        4.91528404       0.01487492       3.73687959      -0.00302888       0.00591656       0.00534949
C        3.65700166       2.13498139       3.45845622      -0.00538495       0.01070481       0.00159628
O        1.13649817       6.42293971       3.95894767       0.00654132      -0.00210349       0.00712039
C       -0.01541183       8.53083181       3.87053787      -0.00398675      -0.00558527       0.00332414
C        7.38305536      -0.02066655       3.75579143       0.00238110      -0.00529957      -0.00517352
C        6.15967663       2.13848819       3.52743261      -0.00630410      -0.00268763       0.01358162
C        5.03069619       4.32675959       3.21151894      -0.00888622      -0.00391945       0.00030039
C        3.78884123       6.40621040       3.43501349      -0.00038454       0.00599027       0.00031155
C        2.42408474       8.48546135       3.78230899      -0.00356173       0.00152653      -0.00184578
C        9.83885692      -0.02815271       3.80878198       0.00015267      -0.00504488       0.00312421
C        8.61481751       2.12522370       3.75928107       0.00423300      -0.00139383      -0.00354104
C        7.42080285       4.27656226       3.60865905      -0.00384993      -0.00064889       0.00275782
C        6.23620734       6.45152523       3.52402805      -0.00389454       0.00175597       0.01258764
C        4.91557576       8.53322743       3.70415091       0.00286267       0.00357866       0.00543723
C       -0.03023501       1.43835346       3.88780560       0.00384949       0.00575702       0.01058520
C       -1.25606542       3.56375765       3.93219525       0.00176128      -0.00789503      -0.01018862
C       -2.46818861       5.69477427       3.88584979       0.00444499      -0.00689742      -0.00283676
C       -3.70423846       7.85317591       3.83776257       0.01302803      -0.00138770      -0.00563672
C       -4.94898545       9.99797258       3.85190917      -0.01098408       0.00677258      -0.00746562
C        2.41702901       1.47299497       3.74724807       0.00801617      -0.01018718      -0.00745820
O        1.11857551       3.53797664       4.01581904      -0.00704756       0.00030155      -0.00289362
C       -0.04803086       5.68925120       3.98077127      -0.00371797       0.01128978      -0.00965324
C       -1.24904096       7.83594268       3.91230157      -0.00232421      -0.00273724      -0.00388786
C       -2.48787444       9.99916064       3.82778076       0.00362220      -0.00388565      -0.00012963
C        4.90523538       1.44093059       3.55531066      -0.00879048       0.00913200       0.00863900
P        3.54555147       3.67479822       2.56946895      -0.00782740      -0.00901952      -0.00394684
C        1.18124470       7.80592351       3.87028492      -0.00174075      -0.00052076       0.01285526
C       -0.01804120       9.96810020       3.78594786      -0.00185886      -0.00333603      -0.00146511
C        7.38172045       1.41501910       3.67964213       0.00187038      -0.00325304       0.00392776
C        6.20216724       3.56062893       3.42928493      -0.00796407      -0.00372344       0.00505976
C        5.03960642       5.76739029       3.30833365      -0.00461184      -0.00196773       0.00443908
C        3.68325334       7.78431396       3.64683285      -0.00123526       0.00570504      -0.00331601
C        2.43586606       9.92128443       3.78955724       0.00294152      -0.00222512      -0.00461897
C        9.84722106       1.40986094       3.83570266       0.00189697      -0.00817059      -0.00586819
C        8.62853450       3.55586724       3.75556586       0.00389630       0.00184363      -0.00800648
C        7.43807476       5.71036084       3.63902956      -0.00172334       0.00149747       0.00413684
C        6.18057676       7.86060285       3.67946864       0.00711218       0.00501049       0.00747173
C        4.91189054       9.95642715       3.80085786      -0.00306627       0.00238946       0.00017372
Mn       3.19971491       4.91003195       4.55587362       0.00952675       0.00787815      -0.00857993
O        2.63417582       4.68791288       6.06689193       0.00463327       0.00719378       0.00330562
