52
Lattice="12.336457 0.0 0.0 -6.168228499999997 10.683685154694365 0.0 0.0 0.0 15.0" Properties=species:S:1:pos:R:3:forces:R:3 energy=-453.75140834510404 free_energy=-453.75140834510404 stress="-0.006758394107298125 0.0006935104541427462 3.294424037174747e-05 0.0006935104541427462 0.0012629728550809778 -1.516565122395917e-05 3.294424037174747e-05 -1.516565122395917e-05 -1.2044626797023752e-05" pbc="T T T"
C        0.05441198       0.06948266       3.74685041       0.00206238       0.01057147       0.00004077
C       -1.18286044       2.19654169       3.53608733       0.00072739       0.00112418       0.01142431
C       -2.43494061       4.34553904       3.66785382      -0.00079913      -0.00586036      -0.01419102
C       -3.65668200       6.49105870       3.83904363      -0.00282382       0.00261640       0.00051525
C       -4.87739158       8.63320887       3.89014597      -0.00495100       0.00510602      -0.00510768
C        2.52183944       0.09666615       3.84828044      -0.00229794      -0.00692795       0.00564846
C        1.30417643       2.14791690       3.40740599      -0.00124835       0.01197315      -0.00305921
C       -0.05375482       4.39520993       3.27537510       0.00804838      -0.00391440       0.00321957
C       -1.23750732       6.51237008       3.68957468       0.00699960       0.00174026       0.00261389
C       -2.42569947       8.64224551       3.87650026      -0.00275554       0.00489826      -0.00113750
C        4.99140839       0.08418598       3.90657336       0.00044593       0.00249062       0.00790827
C        3.75920263       2.27213914       3.88385481      -0.00493167      -0.00589268      -0.00739523
C        1.20084800       6.46225902       3.75260478       0.00099199      -0.00303752       0.00360102
C        0.04380196       8.61423743       3.85841707      -0.00164227      -0.00045259      -0.00399302
C        7.46895189       0.04542171       3.87724852      -0.00755275      -0.00340283       0.00219609
C        6.24245558       2.19599880       3.91217447       0.00591539      -0.00526765      -0.00085325
C        5.01459555       4.34219247       3.98655389       0.00685551       0.01142048       0.00336169
N        3.85257543       6.47869812       4.04638292      -0.00758735      -0.00628216       0.00412340
C        2.53583031       8.56246205       3.91141426       0.00450631      -0.00494386      -0.00852335
C        9.92663176       0.04493135       3.79503583      -0.00051038       0.00673216      -0.00144152
C        8.69859590       2.19196294       3.77908289      -0.00279097      -0.00132829       0.00544112
C        7.46852065       4.34009546       3.87314387       0.00185042      -0.00130266       0.00070136
C        6.24730921       6.49625619       3.94042691      -0.00426422       0.00380412       0.00108457
C        4.99713888       8.60018647       3.90412005       0.00546240      -0.00667721       0.00878652
C        0.05395194       1.49021937       3.55108566       0.00096088       0.01190948       0.00468906
C       -1.20970290       3.62766527       3.47299136       0.00615194      -0.00257681       0.00565715
C       -2.44254662       5.77561435       3.72695750       0.00284327      -0.00204587       0.00284326
C       -3.65068682       7.92027608       3.87596196      -0.00613236       0.00783921       0.00097061
C       -4.87786898      10.05949238       3.83565818      -0.00150210       0.00113694      -0.00563764
C        2.52204263       1.52195412       3.74434796      -0.01008632      -0.00777648       0.00538007
S        1.38376277       3.69627336       2.61346222       0.00562417      -0.01587413      -0.00253382
C       -0.01244557       5.80006317       3.54022649       0.00823747      -0.00131718      -0.01019123
C       -1.20125682       7.92743858       3.82020901       0.00035242       0.00469410       0.00113058
C       -2.41525405      10.06409738       3.90042891       0.00289384       0.00062306       0.00026077
C        4.99611006       1.51059735       3.91604295       0.00194929      -0.00156524      -0.00094659
C        3.80214923       3.66248285       4.00477039       0.00686218      -0.00108996      -0.00020533
C        1.28043985       7.85003551       3.85190076       0.00045895      -0.00302085      -0.00328814
C        0.05679015      10.03579576       3.89585541      -0.00733528      -0.00256967      -0.00930103
C        7.47397581       1.47209894       3.86365272       0.00258433      -0.00596009       0.00308369
C        6.25381989       3.61961006       3.92880482       0.00391447       0.00077151      -0.00159453
C        5.03261064       5.79562534       3.99603212      -0.00214529       0.01084357      -0.00804546
C        3.78239667       7.85137882       3.95740400       0.00377955      -0.00885842       0.00694479
C        2.53228318       9.99517926       3.86712914      -0.00364156       0.00046551      -0.00244832
C        9.93416148       1.47926058       3.70270625      -0.00467425       0.00733631      -0.00540929
C        8.69098794       3.62236963       3.77873080      -0.00193578      -0.00533635      -0.00662975
C        7.46491087       5.76896312       3.88692285      -0.00473953      -0.00077365       0.00328567
C        6.23324850       7.91440800       3.91662756       0.00323350      -0.00171710      -0.00165506
C        4.98970242      10.02543025       3.81555329       0.00248000       0.00132050       0.00347799
Mn       2.47430982       5.14608528       4.34978502       0.00922688       0.00191467      -0.00017127
O        1.85416736       4.82807489       6.09555811       0.00377009      -0.00202980      -0.00570471
O        1.48833255       3.39753068       6.25741039      -0.01117908       0.00065438      -0.00273061
H        2.15029641       3.15938019       6.93614008      -0.01166196       0.00581540       0.01380467
