49
Lattice="12.336457 0.0 0.0 -6.168228499999997 10.683685154694365 0.0 0.0 0.0 15.0" Properties=species:S:1:pos:R:3:forces:R:3 energy=-434.28147677857294 free_energy=-434.28147677857294 stress="-0.0047839189388751155 0.0036651223843067074 -3.4120331873729993e-06 0.0036651223843067074 0.001692896845819841 1.938959043802238e-06 -3.4120331873729993e-06 1.938959043802238e-06 -4.395181628518386e-06" pbc="T T T"
C       -0.00135639      -0.00133368       3.70068538       0.00551408      -0.00483221      -0.00373517
C       -1.22424312       2.14145157       3.51981151      -0.00715394      -0.00361900       0.00003905
C       -2.46929370       4.27798286       3.64316135       0.00762256       0.00257209      -0.00170574
C       -3.71420347       6.41439349       3.80900634      -0.00373994       0.00170270      -0.00497792
C       -4.94035294       8.55753789       3.84468440       0.00168986       0.00637424      -0.00106457
C        2.47217179       0.03016191       3.82568651       0.00404502       0.00063400      -0.00585213
C        1.26680212       2.12065265       3.40512256      -0.00679758      -0.00992480       0.01226265
C       -0.05752754       4.36195210       3.27884948      -0.00315389       0.00157365      -0.00090390
C       -1.29012981       6.45280955       3.61639954       0.00265748      -0.00537153      -0.00858036
C       -2.48303787       8.56407315       3.82418688       0.00510301       0.00474948       0.00685758
C        4.93472946       0.00297841       3.86685287       0.00118459       0.00128448       0.00393391
C        3.75087816       2.11677762       3.88085864       0.00430664      -0.00164640      -0.00396201
O        1.09817398       6.45717628       3.66265270       0.00809878       0.00342133      -0.01013705
C       -0.02207866       8.54893911       3.77660290      -0.00439932      -0.00886693      -0.00431016
C        7.41376833      -0.02964269       3.81220696       0.00258970       0.00212461      -0.00632958
C        6.20179506       2.11421525       3.90888145      -0.00979593       0.01400729      -0.00668643
C        5.01841491       4.24391675       4.02447228      -0.01122090      -0.00987407       0.00527614
C        3.73709802       6.35313924       3.98085931       0.00264727      -0.00337344       0.00539148
C        2.43616867       8.48236492       3.80660690      -0.00229515      -0.00282374       0.00197667
C        9.86855916      -0.02745868       3.71932605       0.00921176       0.00368037       0.00702733
C        8.65537962       2.12155127       3.74686196      -0.00659800       0.00182672       0.00651826
C        7.42334809       4.26448421       3.86652699       0.00401797      -0.00780451      -0.00936339
C        6.18447319       6.40079613       3.91299118      -0.00533251      -0.00245619      -0.00550941
C        4.92174333       8.51560430       3.82724948      -0.00659666       0.01036629      -0.00035286
C        0.01805507       1.42935928       3.52789726      -0.00730569      -0.01029953       0.00129371
C       -1.24574401       3.57495183       3.46851726       0.00241880      -0.00082906       0.00058858
C       -2.49823799       5.70285178       3.69150158      -0.00125575       0.00076937      -0.00801066
C       -3.71618955       7.84373268       3.83452015       0.00343609       0.00784580      -0.00062728
C       -4.93446109       9.98606543       3.79809380       0.00642672       0.00343536      -0.00915101
C        2.50127874       1.46382781       3.73136309       0.00322193      -0.00290865       0.00064439
P        1.34233954       3.63732335       2.47971821      -0.00361830       0.00924807      -0.00484174
C       -0.11141658       5.76603209       3.43189428       0.00406549       0.00029753       0.00275150
C       -1.26799987       7.86200180       3.74570596      -0.00121675      -0.00835015       0.00565809
C       -2.47520839       9.99503955       3.86191883       0.00229648       0.00360410      -0.00177105
C        4.95211960       1.42991663       3.90254042       0.00032944       0.00115938       0.00044352
O        3.81588019       3.51508942       4.09449556       0.00344968      -0.00666276       0.01040242
C        1.18054854       7.85429864       3.76714459      -0.00292813      -0.00669685      -0.00713693
C        0.00090458       9.96993551       3.83210988       0.00078528      -0.00470419      -0.00696413
C        7.42047472       1.40588793       3.83042680      -0.01167027       0.01037982      -0.00554617
C        6.20267410       3.53317925       3.94670523      -0.00527742       0.00792516      -0.00335209
C        4.95373832       5.66091860       3.98317918      -0.00360880      -0.01119960       0.01442864
C        3.68800559       7.74382191       3.86666180      -0.00345203       0.00112550       0.01112509
C        2.46516984       9.92132824       3.77534736       0.00948518       0.00007042       0.00685074
C        9.88508717       1.40925522       3.65766012      -0.00572258      -0.00013325       0.00352729
C        8.64827129       3.55212387       3.75689420       0.00893578      -0.00139805       0.00468388
C        7.40184321       5.68807133       3.86988309      -0.00118910      -0.00733737       0.00017752
C        6.16631834       7.82722640       3.86324221      -0.00611299       0.00604190      -0.00521332
C        4.93184855       9.94805218       3.74199602       0.00804944       0.00586933       0.01172078
Mn       2.37081303       4.97373479       4.23475907       0.00885258       0.00902329       0.00250582
