51
Lattice="12.336457 0.0 0.0 -6.168228499999997 10.683685154694365 0.0 0.0 0.0 15.0" Properties=species:S:1:pos:R:3:initial_magmoms:R:1:forces:R:3 energy=-445.45192390324297 free_energy=-445.45192390324297 stress="0.0076084460974438755 0.003219795720527565 -1.4740835376411352e-06 0.003219795720527565 0.0065783048879377495 -3.07997131768776e-06 -1.4740835376411352e-06 -3.07997131768776e-06 -1.7821347491704374e-05" pbc="T T T"
C        0.00513502      -0.04106818       3.77641250       0.00000000      -0.00210646      -0.00484835       0.00763629
C       -1.20645768       2.11839522       3.81186233       0.00000000      -0.00231965      -0.00383304       0.00102225
C       -2.43152530       4.24794128       3.73011792       0.00000000       0.00194104       0.00497150      -0.00255015
C       -3.69032867       6.36833840       3.66745965       0.00000000       0.00057045       0.00100725      -0.00403520
C       -4.95478673       8.49770137       3.67714775       0.00000000      -0.00775532      -0.00062238      -0.00052137
C        2.46243103       0.00661341       3.80740319       0.00000000      -0.00012091       0.00433440      -0.00228501
C        1.22143371       2.12561505       3.86388979       0.00000000      -0.00490893       0.00192721      -0.00683632
C        0.04194478       4.23249604       3.69935380       0.00000000      -0.00202257      -0.00455931       0.00599202
C       -1.16873712       6.35343466       3.61608107       0.00000000       0.00595762       0.00037649       0.00690851
C       -2.47381096       8.50904075       3.72386953       0.00000000       0.00066371      -0.00523433      -0.00362955
C        4.92318095      -0.02916048       3.85587184       0.00000000      -0.00263755      -0.00211243       0.00264960
C        3.73443889       2.11670592       3.89345834       0.00000000       0.00368630       0.00085192      -0.00571077
C        1.34930191       6.43718478       3.31908728       0.00000000      -0.00008507      -0.00391122      -0.00235409
C       -0.00691648       8.51570376       3.71634391       0.00000000       0.00121785       0.00510396       0.00004082
C        7.39879621      -0.02538415       3.87961461       0.00000000      -0.00007530      -0.00044809       0.00421314
C        6.18055211       2.09926338       3.89607542       0.00000000      -0.00241680      -0.00229166      -0.00131112
C        4.96639931       4.17734705       3.72872914       0.00000000       0.00268139      -0.00042451       0.00148827
P        3.25606497       6.22150999       2.79597123       0.00000000       0.00132889       0.00163604       0.00138659
C        2.42948564       8.54191022       3.67758370       0.00000000       0.00383197       0.00314723      -0.00119966
C        9.87776821      -0.02956375       3.82644521       0.00000000       0.00667303      -0.00601051       0.00722272
C        8.65705314       2.10948749       3.86243538       0.00000000       0.00135089      -0.00488516      -0.00532012
C        7.42375740       4.23472090       3.76488402       0.00000000      -0.00300904       0.00244312      -0.00907578
C        6.12746641       6.32588037       3.57148876       0.00000000      -0.00476495       0.00430053       0.00274394
C        4.89707784       8.47769876       3.61345585       0.00000000      -0.00316278       0.00473096      -0.00046497
C        0.02824461       1.40630569       3.82146533       0.00000000      -0.00316868      -0.00329402       0.00300150
C       -1.18150722       3.54268473       3.74500506       0.00000000      -0.00204296      -0.00199100      -0.00075207
C       -2.42911619       5.66407816       3.66876550       0.00000000       0.00595654       0.00471164      -0.00268126
C       -3.70964890       7.79538938       3.68144958       0.00000000      -0.00385792      -0.00172117       0.00398696
C       -4.93427672       9.94024875       3.75124339       0.00000000      -0.00053973       0.00038911      -0.00597621
C        2.47155620       1.46179376       3.86804773       0.00000000      -0.00138789       0.00781114       0.00257306
O        1.20367682       3.51746380       3.91669092       0.00000000       0.00411229       0.00440658      -0.00652446
C        0.09703209       5.65012150       3.52307612       0.00000000       0.00010868      -0.00876585       0.00858202
C       -1.23125223       7.79401606       3.68106690       0.00000000       0.00531460       0.00202624      -0.00617970
C       -2.48099379       9.94919394       3.79673248       0.00000000      -0.00162900      -0.00380595       0.00084563
C        4.92631636       1.40410732       3.89767387       0.00000000       0.00003438      -0.00458722      -0.00062527
O        3.77668339       3.49538680       3.91963510       0.00000000       0.00336809       0.00171362      -0.00021339
C        1.22891813       7.82252558       3.57740364       0.00000000       0.00255763       0.00093619       0.00155766
C       -0.00856231       9.94164460       3.83547208       0.00000000      -0.00169869       0.00255274      -0.00508616
C        7.40915526       1.39642892       3.89925235       0.00000000      -0.00196130      -0.00220397      -0.00206625
C        6.18389331       3.50900091       3.82279077       0.00000000      -0.00115459      -0.00035861       0.00099888
C        4.90915461       5.56228485       3.50342133       0.00000000       0.00458733      -0.00117997       0.00538195
C        3.60604803       7.78480838       3.49990082       0.00000000       0.00140629       0.00300750       0.00549309
C        2.46468117       9.95194026       3.82978520       0.00000000       0.00356245       0.00179599      -0.00401008
C        9.89809887       1.40144644       3.84708703       0.00000000       0.00156161      -0.00759082      -0.01013749
C        8.66553840       3.53224752       3.79750498       0.00000000       0.00025883       0.00035409      -0.00068723
C        7.39776928       5.65198604       3.66597998       0.00000000      -0.00350506       0.00365523      -0.00200859
C        6.13235693       7.77296817       3.60000038       0.00000000      -0.00840790       0.00415244       0.00627609
C        4.93066271       9.91019274       3.74645231       0.00000000       0.00190255      -0.00211000      -0.00339741
Mn       2.70421862       6.28570535       4.86467735       0.00000000      -0.00285437       0.00287698      -0.00158751
O        2.59834975       6.62202826       6.65067645       1.00000000      -0.00593825       0.00785832       0.00095346
O        2.75308301       5.44825488       6.49176533       1.00000000       0.00889728      -0.00628880       0.01627274
