52
Lattice="12.336457 0.0 0.0 -6.168228499999997 10.683685154694365 0.0 0.0 0.0 15.0" Properties=species:S:1:pos:R:3:forces:R:3 energy=-451.19554945193374 free_energy=-451.19554945193374 stress="-0.0021696984312316397 -0.003312615621649508 -2.4823327413199714e-06 -0.003312615621649508 0.00481649048148384 4.349401375379094e-06 -2.4823327413199714e-06 4.349401375379094e-06 4.658114054428831e-06" pbc="T T T"
C       -0.07275706      -0.06057933       3.95194807       0.00237250      -0.00243545       0.00371505
C       -1.32947972       2.05336918       3.97054623      -0.00171099       0.00072859      -0.00704299
C       -2.54477121       4.19867513       3.88496316      -0.00086676      -0.00465454       0.00141000
C       -3.74879538       6.34941736       3.82783881      -0.00957681       0.00526711      -0.00465707
C       -4.99050949       8.49646941       3.87854514       0.00298132      -0.00171749      -0.00658773
C        2.39790664      -0.04047605       3.94574671       0.00118949       0.00346433      -0.00103622
C        1.12361459       2.10738024       4.06470963      -0.00564380      -0.00752720       0.00248884
C       -0.10548826       4.17247604       4.14046156       0.00530909      -0.00588876      -0.00032212
C       -1.30467403       6.34095506       3.97442368       0.00103613      -0.00214953      -0.00357241
C       -2.52503267       8.48826224       3.91913813       0.00415588      -0.00521582      -0.00981253
C        4.86734420      -0.06606070       3.80057737       0.00025291       0.00161456       0.00546676
C        3.59158698       2.04002725       3.54855463       0.00005050      -0.00002873       0.00231501
N        1.10129886       6.31368252       4.18168076       0.00558924      -0.00162378       0.00527335
C       -0.04994255       8.44387005       3.92461102       0.00494950       0.00791383       0.00337128
C        7.33411986      -0.09895375       3.79982958       0.00035797      -0.00231092      -0.01938103
C        6.08645280       2.07623254       3.57400870       0.00377332       0.00197707      -0.00801269
C        4.95961809       4.30620300       3.26204920       0.00430930       0.01506189      -0.00290955
O        3.76129549       6.38534706       3.54987405      -0.00159828      -0.00219001      -0.00192136
C        2.42051178       8.38876834       3.87911650      -0.00810492       0.00328056      -0.01025016
C        9.78463563      -0.10196780       3.87419006       0.00556963       0.00569076      -0.01032746
C        8.55085415       2.05594731       3.78132873      -0.00917172      -0.00949186       0.00189078
C        7.34721867       4.21433963       3.64195263       0.00559463       0.00566961      -0.00371248
C        6.15752445       6.38421767       3.60540254      -0.00244643       0.00186175      -0.00148761
C        4.87883328       8.47486901       3.80748282      -0.00437099      -0.01363233      -0.00373766
C       -0.08616113       1.36809047       4.00656002      -0.00416069      -0.00455770       0.00697641
C       -1.32616002       3.47502270       3.99233556       0.00173656      -0.00204089       0.01065505
C       -2.52849324       5.62427200       3.89666608      -0.00884330       0.00101314       0.00086705
C       -3.75359886       7.77733694       3.88217723       0.00007929      -0.00096331       0.00145237
C       -4.99919160       9.92345580       3.95211391       0.00536765      -0.00212523       0.00843747
C        2.37952115       1.39406574       3.90201946      -0.00240209       0.00458795       0.00069532
N        1.05759826       3.46382817       4.29559299      -0.00508504      -0.01288910      -0.00166318
C       -0.08043599       5.63448403       4.10108449       0.00548890      -0.00461978       0.00387923
C       -1.29454662       7.76194509       3.93994950       0.00956640       0.00233042       0.00539953
C       -2.53271221       9.92048716       3.89733215       0.00034418      -0.00269850       0.00208141
C        4.84841808       1.36710693       3.62846538       0.00308345       0.00391947       0.01004691
S        3.45522995       3.59913671       2.76035566       0.00307415       0.00103514       0.00927262
C        1.16227613       7.68011089       3.99450842      -0.00107719       0.00054694      -0.00546445
C       -0.06195454       9.88045671       3.83562946       0.00001707       0.00466463       0.00198157
C        7.31385128       1.34574382       3.71194612      -0.00450839      -0.00973332       0.00888317
C        6.11009977       3.51329000       3.47694417       0.00436975       0.00982677       0.00146507
C        4.97332908       5.70399009       3.39567674      -0.00305269       0.01127742      -0.00817040
C        3.68188970       7.75910023       3.76224856      -0.01082465      -0.00596096       0.00228710
C        2.39634506       9.83590681       3.84824753       0.00170189       0.00658328       0.01163729
C        9.77866569       1.33507975       3.88145061      -0.00273367       0.00688616      -0.00862257
C        8.56340280       3.48553796       3.76845415      -0.00066912      -0.00863149       0.00871050
C        7.36901086       5.63822624       3.68711507      -0.00775446       0.00507683       0.00631811
C        6.13101748       7.79357664       3.76911642       0.00359144      -0.00548916      -0.00620614
C        4.86076564       9.89877662       3.89148609       0.00125784      -0.00706238       0.00535910
Mn       2.47183107       4.77365318       4.84109705       0.00402340       0.01194135      -0.00389980
O        3.88905751       4.91181845       6.04684321       0.00446086       0.00591597       0.00042875
O        3.75619839       6.35088212       6.39344244       0.00347763      -0.00491887      -0.01053984
H        3.93960749       6.26255691       7.34846468      -0.00452988       0.00242156       0.00657237
