51
Lattice="12.336457 0.0 0.0 -6.168228499999997 10.683685154694365 0.0 0.0 0.0 15.0" Properties=species:S:1:pos:R:3:initial_magmoms:R:1:forces:R:3 energy=-444.03741219231995 free_energy=-444.03741219231995 stress="-0.0022925971436031974 0.00349800392980889 5.888743328048646e-07 0.00349800392980889 0.003963913943707727 7.118770712239958e-06 5.888743328048646e-07 7.118770712239958e-06 -1.538684533894218e-05" pbc="T T T"
C        0.03749103      -0.01099542       3.71015588       0.00000000      -0.00078933       0.00088173      -0.00484755
C       -1.18302235       2.13333565       3.48742691       0.00000000      -0.00431773      -0.00417744       0.00238262
C       -2.44466245       4.26842391       3.56729005       0.00000000       0.00652820       0.00600950      -0.00781724
C       -3.68653276       6.40352253       3.75018280       0.00000000      -0.00603416      -0.00252528      -0.00883531
C       -4.91066646       8.54052808       3.82667388       0.00000000       0.00437375      -0.00359117       0.00432775
C        2.50764387       0.01561898       3.85646804       0.00000000      -0.00405566       0.00248122      -0.00775039
C        1.30801728       2.09814435       3.46156818       0.00000000       0.00608155       0.00907779      -0.00721147
C       -0.05228570       4.35948656       3.21045456       0.00000000      -0.00531318      -0.00094057      -0.01472223
C       -1.25815392       6.43802640       3.54746146       0.00000000      -0.00025537      -0.00105414      -0.00163514
C       -2.44589901       8.54758126       3.80207426       0.00000000       0.00731327      -0.00086238      -0.00048799
C        4.97282618      -0.01258297       3.86500667       0.00000000      -0.00613641      -0.00801825       0.00491592
C        3.79056320       2.11131359       3.95039541       0.00000000       0.00787613      -0.00175284       0.00721958
O        1.13618490       6.44122480       3.51374095       0.00000000      -0.00160874       0.01610789      -0.00357972
C        0.02216440       8.52821911       3.75742272       0.00000000       0.00041212      -0.00229375      -0.01309350
C        7.45364554      -0.04501023       3.79036234       0.00000000      -0.00267391      -0.00140503      -0.00373257
C        6.23336431       2.10794827       3.87610179       0.00000000       0.00124356      -0.00172284       0.00450369
C        5.03959595       4.23940997       4.03740832       0.00000000      -0.00496396       0.00281561       0.00191032
N        3.80197140       6.37614278       4.07561733       0.00000000       0.00824937      -0.00123309       0.00709999
C        2.48372048       8.45023078       3.80561271       0.00000000      -0.00004208       0.00629115      -0.00157268
C        9.90684457      -0.04084915       3.70253439       0.00000000       0.00117059      -0.00148371       0.00712738
C        8.68872777       2.11179104       3.69472588       0.00000000       0.00293332       0.00362958      -0.00493084
C        7.44560405       4.25590850       3.79839377       0.00000000      -0.00205080      -0.00775565       0.00074048
C        6.20288979       6.38830120       3.88111049       0.00000000       0.00115417       0.00313890      -0.00763909
C        4.95657000       8.50207966       3.82283501       0.00000000      -0.01122646      -0.00592963       0.00503096
C        0.06061348       1.42593476       3.54108413       0.00000000       0.00189839       0.00633324      -0.00297999
C       -1.20800276       3.56707495       3.40261869       0.00000000       0.00245483      -0.00242923       0.00680383
C       -2.46917867       5.69173296       3.61961636       0.00000000      -0.00297630       0.00475656      -0.00849981
C       -3.68235149       7.83005007       3.79968373       0.00000000       0.00845287      -0.00265952       0.00236490
C       -4.89974561       9.97458472       3.80659677       0.00000000      -0.00195324      -0.00175768       0.00578858
C        2.53538966       1.45393978       3.80799880       0.00000000       0.00537362       0.00453401       0.00490958
S        1.45514427       3.66328661       2.70277337       0.00000000       0.00019069       0.00244631      -0.00253164
C       -0.07993435       5.75132395       3.34548078       0.00000000       0.00227027       0.00200215       0.00599123
C       -1.22970423       7.84639427       3.71041744       0.00000000       0.00404364      -0.00393080      -0.00128288
C       -2.43555971       9.97810338       3.86687298       0.00000000      -0.00716478      -0.00194428       0.00781826
C        4.98514799       1.41975520       3.91026423       0.00000000       0.00475446      -0.00689422       0.00237162
O        3.87268841       3.48669023       4.24733736       0.00000000      -0.00269993       0.00328903       0.00146092
C        1.22290976       7.82425634       3.73447717       0.00000000       0.00261591       0.00980119      -0.00974841
C        0.04100260       9.95305344       3.81968743       0.00000000      -0.00461672      -0.00643949      -0.00280188
C        7.45379633       1.39515246       3.79008196       0.00000000       0.00306553       0.00190132       0.00367657
C        6.22274031       3.53128900       3.89955096       0.00000000      -0.00882735      -0.00188362      -0.00222054
C        4.98449685       5.66650894       4.00379017       0.00000000       0.00788647       0.00265722       0.00460442
C        3.74473318       7.73975842       3.89415321       0.00000000      -0.00886481      -0.00600904       0.00777959
C        2.50722928       9.89894910       3.76200280       0.00000000       0.00072819       0.00350134       0.00228748
C        9.92624600       1.40238696       3.62168265       0.00000000      -0.00227852      -0.00354344       0.00667285
C        8.67374764       3.54070897       3.68774485       0.00000000       0.00879108       0.00387887      -0.00160440
C        7.42592793       5.67661637       3.81046175       0.00000000      -0.00552779      -0.00639641      -0.00284133
C        6.19548016       7.81241340       3.84353074       0.00000000      -0.00472483       0.00363201       0.00338090
C        4.96725779       9.93820697       3.73756914       0.00000000      -0.00231364      -0.00518933       0.00442875
Mn       2.40311871       5.11767947       4.67790052       0.00000000       0.00229373      -0.00793677       0.00527668
O        1.05406680       4.59522327       6.00464142       1.00000000      -0.00111235       0.00446352      -0.00428288
O        1.56721122       5.77829972       6.39007841       1.00000000       0.00037233      -0.00187049       0.00577466
