52
Lattice="12.336457 0.0 0.0 -6.168228499999997 10.683685154694365 0.0 0.0 0.0 15.0" Properties=species:S:1:pos:R:3:forces:R:3 energy=-450.9536323089311 free_energy=-450.9536323089311 stress="-0.0032754198073944767 0.0015696601413166427 3.900212991854602e-06 0.0015696601413166427 0.004166659230507825 8.075517520062255e-06 3.900212991854602e-06 8.075517520062255e-06 -1.0602995115115938e-05" pbc="T T T"
C        0.03770310       0.06786323       3.73579784      -0.00222847       0.00003820      -0.00088039
C       -1.19577217       2.19605403       3.53345783       0.00281981       0.00282098      -0.00386411
C       -2.45482091       4.33738888       3.63769740      -0.00485965      -0.00007951      -0.00148170
C       -3.68795368       6.47660115       3.79877515      -0.00096206      -0.00182067      -0.00177740
C       -4.91168139       8.61452241       3.85850358       0.00257974       0.00084211      -0.00087629
C        2.50574228       0.09004222       3.83228467       0.00132836      -0.00017349       0.00031908
C        1.29525492       2.15905720       3.42074267       0.00114637       0.00051469      -0.00304310
C       -0.06815251       4.40510521       3.26899596       0.00072624      -0.00310333      -0.00024068
C       -1.25554396       6.50514298       3.64607212      -0.00014720      -0.00334509       0.00475211
C       -2.44661170       8.62621957       3.83325899      -0.00008174       0.00117048       0.00127644
C        4.97587470       0.06356148       3.86085717       0.00202600       0.00454938      -0.00012663
C        3.76819459       2.24665142       3.87479189      -0.00369872      -0.00071962      -0.00062415
N        1.15866900       6.43798744       3.79250516       0.00042550      -0.00162144       0.00086386
C        0.03519087       8.58294868       3.81033596      -0.00059418      -0.00048043       0.00034687
C        7.45277057       0.02363858       3.82452192      -0.00089213       0.00162883       0.00272646
C        6.22196964       2.18597205       3.86653645      -0.00237704       0.00116919      -0.00091183
C        4.98580518       4.32382942       3.97251696       0.00111735       0.00004297       0.00019978
O        3.83519958       6.48927043       3.98697451       0.00199985      -0.00058836      -0.00112433
C        2.51530076       8.51890751       3.86734569       0.00149321       0.00239993       0.00543163
C        9.90393419       0.03030012       3.75885538      -0.00056781      -0.00113141      -0.00113167
C        8.67879799       2.18208310       3.73977478       0.00203227      -0.00056995      -0.00060679
C        7.43507546       4.32762501       3.82954251      -0.00554816       0.00054112      -0.00329794
C        6.20232638       6.46888336       3.90887802       0.00097308       0.00263562       0.00383458
C        4.96690861       8.59145695       3.86969912       0.00139332      -0.00275068      -0.00141594
C        0.04532234       1.49435741       3.55633347       0.00153045       0.00273923       0.00097604
C       -1.22114090       3.62981707       3.47140302      -0.00235782       0.00196639       0.00059599
C       -2.46484541       5.76519083       3.68728860      -0.00127997      -0.00141312      -0.00043494
C       -3.67785780       7.90527415       3.83737307       0.00076811      -0.00126727      -0.00058461
C       -4.89818872      10.05029408       3.81742097      -0.00055621       0.00106539      -0.00063814
C        2.51583415       1.52193247       3.74354590      -0.00275266      -0.00073485       0.00374296
S        1.35788689       3.69679715       2.57311969       0.00583591       0.00081319      -0.00358406
C       -0.03406107       5.81407519       3.52021810      -0.00011165      -0.00363168      -0.00043109
C       -1.22154797       7.91286624       3.77148221      -0.00169368      -0.00196827       0.00351609
C       -2.43392646      10.05104332       3.86595683       0.00349330       0.00286702      -0.00325004
C        4.98270911       1.49468146       3.87498750      -0.00284908       0.00341800       0.00162309
N        3.80508481       3.60777948       4.03667056       0.00446094      -0.00213943      -0.00305507
C        1.24247750       7.81181844       3.83571745       0.00195272      -0.00014417       0.00029279
C        0.04381492      10.01187599       3.84086019       0.00032111       0.00135457       0.00722770
C        7.45200542       1.46014429       3.81530744      -0.00072718       0.00176426       0.00218379
C        6.21773208       3.60900247       3.88658263      -0.00220714      -0.00077072       0.00045095
C        5.01869544       5.75314955       3.97309871       0.00207328       0.00099085      -0.00064686
C        3.76691273       7.88684212       3.91167013       0.00173682      -0.00004957      -0.00219823
C        2.51188825       9.96719791       3.81774747      -0.00133341       0.00186893       0.00116156
C        9.91698572       1.47338230       3.67577129       0.00441855      -0.00091583      -0.00309856
C        8.66822487       3.61079288       3.73750751      -0.00466346       0.00018334       0.00414584
C        7.43067566       5.74942658       3.84963897      -0.00236333       0.00049168      -0.00493384
C        6.20431647       7.89627737       3.88362718       0.00315459       0.00163664      -0.00007051
C        4.96855218      10.02528534       3.78851612      -0.00179329      -0.00342988      -0.00062572
Mn       2.29389988       4.83433279       4.56901326      -0.00221827       0.00110903      -0.00339036
O        1.44128099       4.02435762       6.00159429      -0.00104558       0.00180464      -0.00047643
O        2.66811458       3.82376234       6.83332606      -0.00120648      -0.01777290      -0.00840907
H        2.30125900       4.13224656       7.68350511       0.00130948       0.00819499       0.01156286
