50
Lattice="12.336457 0.0 0.0 -6.168228499999997 10.683685154694365 0.0 0.0 0.0 15.0" Properties=species:S:1:pos:R:3:forces:R:3 energy=-436.82066644089525 free_energy=-436.82066644089525 stress="-0.0007300027285633685 0.00102664455035319 -7.155827578357887e-06 0.00102664455035319 0.0018451191647542834 -8.65316599490685e-06 -7.155827578357887e-06 -8.65316599490685e-06 8.522141325505385e-06" pbc="T T T"
C        0.03520948      -0.01165239       3.83099138      -0.00237924      -0.00339423       0.00164803
C       -1.20651349       2.11947347       3.57552117       0.00050626      -0.00264939      -0.00570852
C       -2.48716529       4.25695204       3.57719929      -0.00763465      -0.00449252       0.00375310
C       -3.70352962       6.39472098       3.78999985       0.00125468      -0.00059512      -0.00266548
C       -4.91191844       8.52846105       3.92243308       0.00023104       0.01079059      -0.00426005
C        2.50626319      -0.00124972       3.91253050      -0.00837910       0.00485324       0.00458122
C        1.29358167       2.07487251       3.50279822      -0.00622909      -0.00357773      -0.00043323
C       -0.14651053       4.28360592       2.98010909       0.00288740       0.00527871       0.00612553
C       -1.28174528       6.41792264       3.36548681       0.00158521      -0.00898446      -0.00057342
C       -2.43780441       8.52533137       3.79392067      -0.00079337      -0.01069057      -0.00713533
C        4.96438492      -0.02698239       3.92217297      -0.00625637       0.00585090       0.00391098
C        3.77293708       2.10736179       3.96588077      -0.00091211      -0.00054940       0.00461306
S        1.36795480       6.44435005       2.49429941      -0.00167995       0.00029363      -0.00276122
C        0.02682777       8.52443985       3.65953288       0.00106812      -0.00290700      -0.00522629
C        7.43556001      -0.02737483       3.90302800       0.00724019      -0.00011283      -0.00939735
C        6.20310929       2.11572873       3.98637574       0.00528773       0.00827850      -0.00232317
C        4.97726848       4.23809304       4.08170993       0.00407590      -0.00320609       0.00651707
N        3.75788832       6.40675025       4.10869889      -0.00416957      -0.00005897       0.00764733
C        2.50831650       8.51554358       3.82195816      -0.00204322      -0.00241015       0.00340612
C        9.90725553      -0.01845012       3.86738910       0.00570800       0.00492400       0.00173861
C        8.66517206       2.11842742       3.83001093      -0.00744035       0.00126156       0.00039056
C        7.40946512       4.25850867       3.90535738       0.00034598       0.00092157      -0.00534104
C        6.17074571       6.38249282       3.98814953       0.00589501      -0.00125960      -0.00308635
C        4.96128106       8.51434927       3.94587614       0.00146327       0.00048763       0.00248104
C        0.04495415       1.41881513       3.63311771      -0.00273634      -0.00909323       0.00225871
C       -1.26647187       3.53109775       3.37101328       0.00075968       0.00242328       0.00461998
C       -2.49373588       5.68503969       3.57909208      -0.00166884      -0.00548272       0.00032158
C       -3.68290956       7.81689722       3.84244885      -0.00418790       0.00008872      -0.00055811
C       -4.90235785       9.96316790       3.89780293      -0.00401798       0.00771416       0.00623967
C        2.52547065       1.43302010       3.84607335      -0.00629858       0.00310297       0.00466220
S        1.43608093       3.61326244       2.71516031      -0.00001330      -0.00376911       0.00224890
C       -0.16385123       5.68717551       2.94517860       0.00625290       0.00294781       0.00213957
C       -1.22058119       7.82619407       3.59395859       0.00383574      -0.01134951      -0.00855898
C       -2.43475389       9.95584754       3.90114771      -0.00853271      -0.00444779       0.01008248
C        4.96733319       1.40953963       3.98545398       0.00293883       0.00993352       0.00948790
O        3.81675834       3.48434641       4.16449375       0.00475168      -0.00364088      -0.00551686
C        1.28085293       7.87377629       3.49781338      -0.00088595      -0.00299622      -0.00934824
C        0.03253946       9.94222338       3.85883509       0.00094675       0.00383624      -0.00647729
C        7.42954884       1.40635253       3.92629237      -0.00049085       0.00084742      -0.00151210
C        6.18172793       3.54021424       4.00325229       0.00648358       0.00446121       0.00409686
C        4.93620533       5.67167171       4.07441087       0.00079347      -0.00157503       0.00296311
C        3.74620977       7.77714405       3.94435684      -0.00263410       0.00105337       0.00180948
C        2.50571118       9.94458380       3.88983040       0.00898661      -0.00144640      -0.00585350
C        9.90997410       1.41098891       3.76811454      -0.00364803       0.00532581      -0.00204591
C        8.64053016       3.54279959       3.78378695      -0.00853458      -0.00246287       0.00557013
C        7.39933592       5.67587022       3.90386122       0.00531416      -0.00168202      -0.00602711
C        6.18926675       7.80781915       3.96249311       0.00532999       0.00356577      -0.00670938
C        4.96653695       9.95067725       3.88363254       0.00181195      -0.00063350      -0.00330493
Mn       2.07680086       5.48033075       4.59656100       0.00046989       0.00611032       0.01688636
O        1.04741868       5.65308023       5.89853885       0.00534215      -0.00088359      -0.01537568
