52
Lattice="12.336457 0.0 0.0 -6.168228499999997 10.683685154694365 0.0 0.0 0.0 15.0" Properties=species:S:1:pos:R:3:forces:R:3 energy=-446.1026766410848 free_energy=-446.1026766410848 stress="-0.0013050381045330206 0.00047195884986930793 -2.0271379793913908e-05 0.00047195884986930793 0.001968317862072919 2.37205760150369e-05 -2.0271379793913908e-05 2.37205760150369e-05 2.057239185521302e-05" pbc="T T T"
C        0.07600680       0.00902223       3.88167738       0.00074494      -0.00327262      -0.00159345
C       -1.16941466       2.13500970       3.59999963       0.00454945       0.00258701       0.00273978
C       -2.44499150       4.27445729       3.59457969      -0.00530405       0.00224000      -0.00353262
C       -3.65776550       6.41577462       3.80723103      -0.00390103      -0.00172298       0.00614288
C       -4.86402430       8.55281328       3.96264340      -0.00269171       0.00158878      -0.01082882
C        2.54825681       0.02257840       3.96737868       0.00008637      -0.00569800      -0.00627471
C        1.32907542       2.09465700       3.55104407      -0.00221793      -0.00681451       0.00169409
C       -0.10471350       4.29569353       2.99678520       0.00076776       0.00810110      -0.00626768
C       -1.23674725       6.43594745       3.38946256       0.00235603       0.00198476       0.00539247
C       -2.39426256       8.54765843       3.82026873       0.00203588      -0.00525103       0.00080610
C        5.00571524      -0.00392352       3.96942196      -0.00162489       0.00332506      -0.00422596
C        3.81013149       2.13105618       4.03609282       0.00239962       0.00222355       0.00275889
S        1.40240172       6.46111477       2.53886046      -0.00223138      -0.01161130      -0.00069173
C        0.06858001       8.54322570       3.68642345      -0.00104124       0.00218118      -0.00346622
C        7.47687636      -0.00972174       3.94385082      -0.00196958      -0.00365300      -0.00494352
C        6.24445768       2.13621472       4.03150307       0.00308919       0.00449135      -0.00470097
C        5.02635240       4.26402824       4.14109075       0.00036964       0.00012192       0.01050508
N        3.81264276       6.43060921       4.18845327       0.00206794      -0.00699541      -0.00477066
C        2.54959195       8.52779445       3.86990049      -0.00131840       0.00742992      -0.00016100
C        9.94689163      -0.00109860       3.91176506       0.00715212       0.00310243       0.00216201
C        8.70422979       2.13695191       3.85891609      -0.00060265      -0.00438043       0.00122687
C        7.45325074       4.27852597       3.92947551      -0.00894939       0.00095797       0.00349668
C        6.22451244       6.40819285       4.02524534      -0.00311067       0.00048333       0.01060737
C        5.00915778       8.53712351       3.99886022      -0.00402191       0.00125619      -0.00102375
C        0.08221836       1.43631560       3.67378667      -0.00079527      -0.00740971      -0.00214611
C       -1.22674452       3.54591345       3.38940929       0.00552495       0.00665239       0.00908287
C       -2.44968318       5.70276441       3.59804206      -0.00180963       0.00342164      -0.00438063
C       -3.63722687       7.83883739       3.86797004      -0.00101691      -0.00251088       0.00532895
C       -4.85881139       9.98677548       3.94927642      -0.00047592      -0.00154496       0.00054384
C        2.56357792       1.45842521       3.90667346       0.00066092      -0.00473338      -0.00433577
S        1.46171641       3.59607520       2.69713799      -0.00122389       0.00324776      -0.00003079
C       -0.11874666       5.69858674       2.97542717       0.00385182       0.00684590       0.00674615
C       -1.17726306       7.84513570       3.61263362       0.00081823      -0.00164170      -0.00350813
C       -2.39292779       9.97833381       3.94569866       0.00116777      -0.00371400      -0.00106483
C        5.00677134       1.43277042       4.04267756       0.00365900       0.00693418      -0.00307784
O        3.85990568       3.51053016       4.24358041       0.00068387       0.00327970      -0.00063720
C        1.32113152       7.88785802       3.54112210      -0.00031043       0.01170013      -0.01118747
C        0.07356227       9.96373043       3.89710376      -0.00459330      -0.00106473      -0.00023537
C        7.46974036       1.42550065       3.96407402      -0.00080794      -0.00483104       0.00054136
C        6.22570705       3.56139677       4.04337272      -0.00369572       0.00128296       0.00416807
C        4.98705314       5.69956285       4.13211907       0.00307913      -0.00497200       0.00270662
C        3.79339931       7.79225808       4.00622635      -0.00256844      -0.00219799       0.01100538
C        2.54646067       9.95899178       3.93567670       0.00375746       0.00835659      -0.00532977
C        9.94804073       1.42771677       3.80012567       0.00589288       0.00024316      -0.00308765
C        8.68140566       3.56124845       3.80370359      -0.00707541      -0.00025798       0.01174165
C        7.44678552       5.69723304       3.92607370      -0.00565501      -0.00034555       0.00759192
C        6.23902104       7.83267167       4.00538630      -0.00591335       0.00269984      -0.00213015
C        5.00850447       9.97062007       3.93382312       0.00338353       0.00201093      -0.00094857
Mn       2.12676473       5.31636049       4.67723681       0.00459829      -0.00152737      -0.00297381
O        0.71425386       5.17159647       5.87223161       0.00222962      -0.00963598       0.00470787
O        1.56827163       4.92851629       7.07600001       0.00712106       0.01286280      -0.00810388
H        1.19920828       5.62590158       7.65026557       0.00287856      -0.01582599      -0.00603786
