50
Lattice="12.336457 0.0 0.0 -6.168228499999997 10.683685154694365 0.0 0.0 0.0 15.0" Properties=species:S:1:pos:R:3:forces:R:3 energy=-441.58476009965864 free_energy=-441.58476009965864 stress="-0.0017773893426772855 0.0009272239832659884 1.4677750173196332e-05 0.0009272239832659884 0.0052371164325145745 -9.420654405464011e-06 1.4677750173196332e-05 -9.420654405464011e-06 1.9437503485194136e-05" pbc="T T T"
C        0.02850202       0.03449386       3.69363212      -0.00078773      -0.00269402       0.00527274
C       -1.20745762       2.16042272       3.51085827      -0.00797632       0.01193600      -0.00823182
C       -2.46874607       4.30111635       3.61461214      -0.00555875       0.00127011       0.00473573
C       -3.69804916       6.44024815       3.77860440      -0.00459275       0.00895422       0.00056785
C       -4.92054863       8.57902700       3.82586549       0.01075734      -0.00612503      -0.00526696
C        2.49673226       0.05168785       3.80971436       0.00170746       0.00796587      -0.00948649
C        1.29073751       2.12517531       3.40570119       0.00825396       0.00520218       0.00723501
C       -0.07921779       4.37084833       3.26715130       0.01914691      -0.00034263      -0.00323114
C       -1.26132877       6.46719958       3.64335219      -0.00947477      -0.01259912      -0.00165211
C       -2.45293876       8.58873799       3.81908202      -0.00585873      -0.00155165      -0.00629141
C        4.96593959       0.02832755       3.83861747      -0.00219950      -0.00854246       0.00499585
C        3.75171681       2.21498919       3.87172106       0.00574842       0.00378377      -0.00304289
N        1.16974043       6.38435325       3.77635124       0.00729679      -0.00505289       0.00657304
C        0.03315405       8.54102354       3.78655488      -0.00163961       0.00382120       0.01843746
C        7.44062688      -0.01093605       3.79226522       0.00918975       0.01345195      -0.00135794
C        6.20418956       2.15724399       3.83595259       0.00108331      -0.00958043      -0.00185397
C        4.95910917       4.29966675       3.93851374      -0.00256348      -0.00828479       0.00206781
O        3.81653858       6.45646387       3.85417317      -0.00510420      -0.00298824      -0.00950630
C        2.50728150       8.48357661       3.81796910       0.00276424       0.00618385       0.00046482
C        9.89261805      -0.00386921       3.71541653      -0.00833403      -0.00002043       0.00373137
C        8.66372080       2.14834435       3.70697573       0.00220897      -0.00742716      -0.00038753
C        7.41597064       4.29434297       3.79624671       0.01094671       0.00146464      -0.00540694
C        6.18762571       6.43421898       3.86950486      -0.00181069       0.00395739      -0.01084403
C        4.95828375       8.55798168       3.80998720      -0.00343290       0.00391975       0.00450565
C        0.03737087       1.46070893       3.52758698      -0.00058570       0.00572116       0.00211588
C       -1.23443228       3.59434696       3.45421851       0.00198532       0.01560090      -0.00119244
C       -2.47442675       5.72880167       3.67423105      -0.01600707      -0.00037021      -0.00076393
C       -3.68584645       7.86912838       3.81808058       0.00494411      -0.00083075      -0.01008940
C       -4.90799273      10.01419797       3.78296639       0.00715526      -0.00532707       0.00302645
C        2.50639897       1.48252757       3.73364697       0.00719530       0.00940554       0.00432893
S        1.39423296       3.70270741       2.63338484      -0.01246818      -0.00382680       0.00996813
C       -0.03780259       5.77871059       3.52486337       0.01209152      -0.00718392       0.00517227
C       -1.22677823       7.87491553       3.76056594      -0.00937807      -0.00538399       0.00311603
C       -2.44166012      10.01396638       3.84716599      -0.00741900      -0.00203777      -0.00581262
C        4.96534845       1.46448609       3.85401296      -0.00145455      -0.01227094       0.00602335
N        3.77737385       3.58635121       4.03172204      -0.00735496      -0.00279732      -0.01492018
C        1.24350896       7.76412322       3.80669523       0.00644781      -0.00331615       0.00802942
C        0.03488514       9.97334829       3.81399103       0.01061424       0.00624029       0.00670768
C        7.43567246       1.42811234       3.78313489       0.00354831       0.00452933      -0.00062023
C        6.19185077       3.58295609       3.85118073       0.00853768      -0.00514045      -0.00234909
C        4.99311029       5.72899901       3.91598413      -0.00005626      -0.00564276       0.00161354
C        3.76020535       7.84654537       3.83551930       0.00108297      -0.00809063       0.00650239
C        2.50064103       9.93112251       3.77701916      -0.00229358       0.00205588      -0.00301270
C        9.90444232       1.43955766       3.64256078      -0.00529727      -0.00355444       0.00073904
C        8.65141680       3.57689678       3.70748690       0.00338117      -0.01041294       0.00351529
C        7.41652451       5.71472106       3.81959731       0.00219312       0.01002944      -0.00279273
C        6.19410597       7.86117442       3.83781397       0.00156895       0.00687531      -0.00221972
C        4.95854507       9.99222988       3.73858134      -0.00952708      -0.00018326       0.00363727
Mn       2.18850082       4.65910964       4.69981684      -0.00678858      -0.00264219      -0.00718251
O        1.44322528       3.96577639       6.05424074      -0.01188583       0.01185169      -0.00556793
