49
Lattice="12.336457 0.0 0.0 -6.168228499999997 10.683685154694365 0.0 0.0 0.0 15.0" Properties=species:S:1:pos:R:3:forces:R:3 energy=-433.8551237714756 free_energy=-433.8551237714756 stress="0.0003588150718136323 0.003212691329795575 -1.1613879695199714e-06 0.003212691329795575 0.0032024496120719045 8.330305843132519e-06 -1.1613879695199714e-06 8.330305843132519e-06 -1.2249158070087348e-06" pbc="T T T"
C       -0.00477227      -0.00667178       3.74174693      -0.00241115       0.00181833       0.00433778
C       -1.22718238       2.13353141       3.85840036      -0.00118004      -0.00576239      -0.00613775
C       -2.45430984       4.26642338       3.86943120       0.00243048      -0.01223184      -0.00411093
C       -3.71284483       6.39556921       3.76739363       0.00478135      -0.00673022      -0.00346429
C       -4.96571917       8.52839356       3.68210849      -0.00364088       0.00202428       0.00472891
C        2.44757086       0.03681971       3.73411879       0.00400567      -0.00216111      -0.00527412
C        1.20386515       2.15254652       3.81237097      -0.00020480       0.00408982       0.00318673
C       -0.00156461       4.25916964       3.96745404      -0.00233234      -0.00002072       0.00225942
C       -1.24119807       6.39417112       3.87673116       0.00492984       0.00856826      -0.00722744
C       -2.49796345       8.53871680       3.77418831      -0.00527135       0.00952253      -0.00401390
C        4.90951654      -0.01316764       3.76145872       0.00392453       0.00520084      -0.00567305
C        3.72927316       2.12397698       3.67490337      -0.00308094      -0.00534819       0.00843499
N        1.16685637       6.43861961       4.06481128       0.00832734      -0.00175916       0.00734924
C       -0.03683798       8.52520353       3.81102538       0.00596338       0.00141469       0.00374564
C        7.38906902      -0.02794419       3.80277087      -0.00288760       0.00146816      -0.00334153
C        6.17871742       2.09801265       3.73943263       0.00135476      -0.00277057      -0.00538976
C        4.99351699       4.17561041       3.52680346       0.00370193       0.00022591      -0.00534899
S        3.58970193       6.31167294       2.56141042      -0.00357409       0.01697695       0.00052399
C        2.42704357       8.52018577       3.71540614       0.00364774       0.00012173       0.00135195
C        9.86222686      -0.02106987       3.77486423      -0.00434778       0.00153145       0.00654975
C        8.64295327       2.11593585       3.82484833      -0.00035849       0.00075567      -0.00131240
C        7.41875883       4.24776703       3.73732976      -0.00575696      -0.00094589       0.01392378
C        6.15450667       6.36625868       3.57950449      -0.00307782       0.00282171      -0.00617336
C        4.90663288       8.51734293       3.58565820      -0.00149055      -0.00589717       0.00371319
C        0.01104812       1.43556878       3.80787751       0.00097923       0.00235519       0.00146053
C       -1.21080020       3.55977382       3.91258300       0.00171925      -0.00972535      -0.01185000
C       -2.46891881       5.68477286       3.84300039       0.01000389      -0.00854817      -0.00086063
C       -3.72780435       7.82072647       3.74097711      -0.00266201      -0.00168324      -0.00338543
C       -4.94673794       9.97479655       3.71489156       0.00085835       0.00153289       0.00213389
C        2.45728079       1.49160933       3.73608033      -0.00591621      -0.00668578      -0.00001993
O        1.17302292       3.53671459       3.91570777      -0.00003778       0.00273421       0.01063862
C        0.00669736       5.69556936       3.98495185       0.00466494       0.00285851      -0.00231865
C       -1.26590142       7.81852816       3.82171617      -0.00209620       0.01414819       0.00955208
C       -2.49875219       9.97826654       3.75150664       0.00589848       0.00661366       0.00006287
C        4.92173375       1.41568019       3.72405799      -0.00062534       0.00010594      -0.00147436
O        3.78453843       3.49368825       3.51320087       0.01071338      -0.00967689      -0.01029666
C        1.17677236       7.79263578       3.84293993       0.00900659      -0.00166434       0.00429755
C       -0.02151026       9.95202064       3.78774470      -0.00024751       0.00106938      -0.00138475
C        7.40115703       1.39708822       3.79746497       0.00188849      -0.00060172       0.00071287
C        6.19551717       3.50807030       3.67848683       0.00095505      -0.00390706       0.00404896
C        4.97007506       5.58957152       3.41186172      -0.00935540       0.00937114       0.00138226
C        3.65155614       7.84368624       3.45166532       0.00135847      -0.01211879       0.00691675
C        2.45167478       9.94563502       3.77877524      -0.00327423       0.00028531       0.00766948
C        9.88119930       1.41248520       3.82995826      -0.00187722       0.00298136      -0.00289588
C        8.65199114       3.54266697       3.81988703      -0.00375294      -0.00238623      -0.00286332
C        7.39569166       5.67004000       3.70525431      -0.00369914      -0.00072673      -0.00330485
C        6.13862539       7.80031884       3.59312552      -0.00335166       0.00170156      -0.00680235
C        4.92293464       9.94999010       3.71273207      -0.00627779      -0.00193291      -0.00452576
Mn       2.94848551       5.79157115       4.83410132      -0.00832492       0.00098680       0.00046887
