49
Lattice="12.336457 0.0 0.0 -6.168228499999997 10.683685154694365 0.0 0.0 0.0 15.0" Properties=species:S:1:pos:R:3:forces:R:3 energy=-432.0555047061218 free_energy=-432.0555047061218 stress="-0.002015041074588001 -0.002398030080531904 1.8727934639825593e-06 -0.002398030080531904 -0.0003725697550395075 6.257738895281437e-06 1.8727934639825593e-06 6.257738895281437e-06 2.538285147210093e-06" pbc="T T T"
C       -0.00883721      -0.02083294       3.83337275       0.00194051       0.00054356      -0.00219858
C       -1.25550512       2.11926495       4.00492279      -0.00324713      -0.00551065      -0.00769783
C       -2.47418222       4.26131581       3.77691582       0.00428697      -0.00345236      -0.00343258
C       -3.68118474       6.40253737       3.56822764      -0.00361054      -0.00460044       0.00088165
C       -4.93021292       8.54035874       3.61562439       0.00026792      -0.00465204      -0.00507669
C        2.46824034      -0.02976083       3.79293421      -0.00572640      -0.00479459       0.00035387
C        1.22859451       2.05004958       4.25276100      -0.00122341       0.01635652      -0.00309914
C       -0.09007502       4.31449466       4.34964537      -0.00269684       0.00358083       0.00611122
C       -1.24499428       6.41187780       3.82717240       0.00050884       0.00346731      -0.01082649
C       -2.46001221       8.53414687       3.65216906       0.00766794      -0.00071419       0.00247742
C        4.93433393      -0.01227664       3.62898018      -0.00041032       0.00122679       0.01058412
C        3.65483409       2.08428830       3.58400389       0.00830329      -0.00415801      -0.00896476
N        1.14389984       6.42964763       4.19655201       0.00553388      -0.00753089      -0.00082544
C        0.00727858       8.51649071       3.73924713       0.00769010       0.00120748       0.00988819
C        7.40217961      -0.02786254       3.64893396      -0.00044432       0.00027190      -0.00216885
C        6.15212455       2.13635256       3.46233684       0.00628067       0.00828821       0.00002365
C        4.99565629       4.35393294       3.22222590      -0.01073182       0.00370495       0.01170184
O        3.81305417       6.43819500       3.52393216       0.01011953      -0.01259116       0.00891755
C        2.48046565       8.47045450       3.76695848       0.00132063      -0.00254992       0.00313833
C        9.85576482      -0.02941392       3.75413078       0.00339841       0.00528651      -0.01102897
C        8.62714637       2.12090746       3.66223957      -0.00518665       0.00508964       0.00118956
C        7.41505398       4.26830426       3.45929230      -0.00571395      -0.00291332      -0.00794201
C        6.21863438       6.43577723       3.39077626       0.00104753       0.00531071      -0.00530181
C        4.93954883       8.53590134       3.61981692      -0.00493040       0.00080887      -0.00268511
C       -0.01529936       1.39655139       4.04965158      -0.00132921       0.00163204       0.00013753
C       -1.25803000       3.55740018       4.04702428       0.00254397      -0.00536959       0.00245760
C       -2.46159363       5.68574529       3.71139331       0.00069482      -0.00202360      -0.00429885
C       -3.68982170       7.82580261       3.60017147       0.00503067      -0.00275486       0.00608386
C       -4.93815555       9.95536372       3.76054587      -0.00370251      -0.00639900      -0.00810756
C        2.45810163       1.38459985       3.92479841       0.00021141       0.00113590       0.00275653
P        1.18148423       3.49686338       5.27050572      -0.00193020      -0.00529622       0.00690090
C       -0.04021342       5.73678665       4.13107124      -0.00243249       0.00135451      -0.01218179
C       -1.23121152       7.82050609       3.71904363       0.00858752       0.00414020       0.00259222
C       -2.46232385       9.95743573       3.67873476       0.00022169      -0.00204612       0.00622993
C        4.91327590       1.42744850       3.54185180       0.00991495       0.00314789      -0.00039412
S        3.40556569       3.68956907       2.96749251      -0.00748232       0.00596735      -0.00174477
C        1.21332054       7.76910026       3.88737621       0.00481451      -0.00646237      -0.00581671
C        0.00342204       9.94771546       3.65305285      -0.00147873       0.00098113       0.00291644
C        7.38665323       1.41193479       3.57556851      -0.00085706       0.00381199       0.00995939
C        6.16876957       3.56705029       3.35998331      -0.00829895       0.00456787      -0.00238774
C        5.03240581       5.74279746       3.31995848       0.00312095       0.00121684      -0.00077160
C        3.73581026       7.84330914       3.66943542      -0.00197534      -0.00640094      -0.00913687
C        2.46463093       9.91760767       3.71313883       0.00373098       0.00241569      -0.00007755
C        9.85866977       1.40836799       3.80495792      -0.00762993       0.00352773       0.00598442
C        8.63951276       3.54747656       3.62135298      -0.00237024       0.00199055       0.01203863
C        7.43511340       5.68960597       3.45205438      -0.00418101      -0.00287791      -0.01027499
C        6.18782260       7.84600559       3.52624848      -0.00394600       0.00043788       0.01315757
C        4.92581234       9.95927024       3.73741910       0.00278390       0.00224453       0.00498854
Mn       2.77186543       5.29008439       4.89871673      -0.00848583      -0.00061718      -0.00503019
