52
Lattice="12.336457 0.0 0.0 -6.168228499999997 10.683685154694365 0.0 0.0 0.0 15.0" Properties=species:S:1:pos:R:3:forces:R:3 energy=-448.57615822229667 free_energy=-448.57615822229667 stress="-0.0012377954651985432 0.0027964646491007543 -1.1907135261629598e-05 0.0027964646491007543 0.0035757611659100515 -1.8071570894080375e-05 -1.1907135261629598e-05 -1.8071570894080375e-05 -2.126951102314487e-05" pbc="T T T"
C       -0.00088738       0.05193700       3.80601854      -0.00063212      -0.00774010      -0.00317534
C       -1.22954931       2.18530029       3.92867681       0.00221519      -0.00046043      -0.00248323
C       -2.45741712       4.32345389       3.90720390       0.00166893       0.00161577      -0.00191571
C       -3.70626893       6.45634580       3.77340092      -0.00370249       0.00356922      -0.00129252
C       -4.95923490       8.59107734       3.69837848       0.00406873       0.00827213      -0.00354493
C        2.45398790       0.10270350       3.79700680      -0.00411732      -0.00577053       0.00422773
C        1.20585767       2.20115328       3.92005349       0.00675158      -0.00092344      -0.00582872
C       -0.02650562       4.31577860       4.07268519      -0.00165392       0.00213684       0.00088227
C       -1.25021817       6.46156487       3.95890398       0.00657908      -0.00784514      -0.00600042
C       -2.49342881       8.60453630       3.83429715       0.00429019       0.00558935      -0.00272333
C        4.91749570       0.05071833       3.84173312      -0.00058047       0.00949106       0.00444994
C        3.73975566       2.19672122       3.72572398      -0.00016981      -0.00243910      -0.00729503
N        1.13813387       6.50137057       4.24071758      -0.00221613      -0.00237583       0.00362487
C       -0.02819832       8.58517505       3.94154052      -0.00371668      -0.00079140       0.00177404
C        7.39622066       0.02863417       3.91036061      -0.00091483       0.00813637       0.00199934
C        6.18910212       2.15645799       3.77119525      -0.00291360      -0.00217835      -0.00298696
C        5.02182922       4.23855592       3.44300154       0.00248130      -0.00792115      -0.00118865
S        3.53747314       6.35409731       2.74211611      -0.00293623      -0.00190605      -0.00704480
C        2.43957553       8.56768849       3.85570201      -0.00066025      -0.00380826       0.00985325
C        9.86731411       0.03080105       3.86740845       0.00065293       0.00043631       0.00415228
C        8.64666918       2.17220065       3.88319147      -0.00579152       0.00020078      -0.00955776
C        7.42895710       4.30748860       3.72149285       0.00341474      -0.00910636      -0.00013197
C        6.17217793       6.42741201       3.51648815      -0.00181328       0.00970078      -0.00628909
C        4.91214886       8.57431301       3.62607409       0.00095897       0.00122934      -0.00210233
C        0.01139317       1.49151180       3.89025710       0.00647330      -0.00504368       0.00055926
C       -1.22265568       3.60944118       3.97446780      -0.00053704       0.00148701       0.00176756
C       -2.47008536       5.74346328       3.88100781       0.00062116       0.00073944      -0.00043731
C       -3.72108636       7.88357700       3.76175542       0.00182492       0.00878756       0.01146863
C       -4.94011303      10.03838706       3.76373045      -0.00243548      -0.00222431      -0.00426549
C        2.46390822       1.55808062       3.81952619       0.00477745      -0.00895412      -0.01052798
O        1.15783390       3.58646033       4.07159421      -0.00496592       0.00229253       0.01005928
C       -0.02061239       5.75420010       4.10336251       0.00503842      -0.00360557      -0.00313425
C       -1.26342664       7.88560501       3.91682316       0.00082436      -0.00638541       0.00207395
C       -2.49230754      10.04400696       3.81757065      -0.00025107       0.00681020       0.01651777
C        4.93005164       1.47888996       3.78078381       0.00062323       0.00405030      -0.00622185
O        3.81048973       3.56451311       3.53800747      -0.00870012       0.00108151      -0.00266981
C        1.18398594       7.85208160       4.00238911      -0.00473862      -0.00326041       0.00151371
C       -0.01484448      10.01288393       3.89638623      -0.00120833       0.00585974       0.00112156
C        7.40743070       1.45402408       3.86626930      -0.00546208       0.00462523      -0.00847701
C        6.21373422       3.56469484       3.64109700       0.00317909      -0.00888551       0.00097702
C        5.01433454       5.63982197       3.31654370       0.00342444      -0.00542994      -0.00268271
C        3.65553059       7.90595989       3.54686334       0.00057271      -0.00494740       0.00847324
C        2.45866212       9.99769973       3.89999225      -0.00004859       0.00139039       0.00655858
C        9.88251141       1.46563390       3.90397397      -0.00443281       0.00208779       0.00569387
C        8.65476358       3.59931645       3.84620869       0.00483135      -0.00373636      -0.00405448
C        7.41126275       5.72864128       3.67403374      -0.00422104      -0.00281595      -0.00457382
C        6.14871217       7.86311994       3.58379936       0.00451748       0.01288622      -0.00251664
C        4.92835541      10.00838757       3.77975594       0.00020120      -0.00504803       0.00592055
Mn       2.62702188       5.47533217       4.92571297      -0.01409162       0.00568211       0.00519064
O        3.80215305       4.52088808       6.05343627       0.00873570      -0.00808240      -0.00103951
O        3.14727814       5.45189539       7.03614057      -0.00442637       0.01183622      -0.00460256
H        2.80678720       4.79085643       7.66493528       0.00861129       0.00169108       0.00990490
