49
Lattice="12.336457 0.0 0.0 -6.168228499999997 10.683685154694365 0.0 0.0 0.0 15.0" Properties=species:S:1:pos:R:3:forces:R:3 energy=-431.02925981554324 free_energy=-431.02925981554324 stress="-0.0043424210649840355 -0.0007493129750029665 8.50394692202816e-06 -0.0007493129750029665 0.0010607884171010607 1.0228620330035038e-05 8.50394692202816e-06 1.0228620330035038e-05 8.849936417355139e-06" pbc="T T T"
C        0.01017222       0.01029413       3.77506699      -0.00497971      -0.00209652      -0.00193091
C       -1.23149308       2.14353339       3.72120670      -0.00230389       0.00127488      -0.00125538
C       -2.46655336       4.28052259       3.94512992      -0.00639099      -0.00391117       0.00227254
C       -3.69216713       6.42839910       4.03880292       0.00183813       0.00075666       0.00364251
C       -4.92014206       8.56839486       3.95744843       0.00015255      -0.00263317       0.00259925
C        2.47878023       0.00078917       3.64666097       0.00124346       0.00133653       0.00668798
C        1.21687089       2.08506420       3.26078647       0.00383644       0.00565799      -0.01120442
C       -0.07895780       4.32914948       3.49763541       0.01565940      -0.00001794      -0.00968110
C       -1.26506849       6.44611744       3.85505220      -0.00100153       0.00153193      -0.00170292
C       -2.45731532       8.56792152       3.87763467      -0.00659486       0.00011864       0.00252716
C        4.95458667      -0.00254059       3.68324461       0.00757800       0.00356571       0.00363584
C        3.72127685       2.08393955       3.27420379      -0.00346648       0.01444636       0.00580422
N        1.16585458       6.38594046       3.78127296       0.00811251      -0.00700642      -0.00193040
C        0.02456191       8.52478338       3.80511536       0.00226318      -0.00588571      -0.00380675
C        7.42162534      -0.02182610       3.79687669       0.00116625       0.00423850      -0.00191244
C        6.17729826       2.15176383       3.69815602      -0.00063460      -0.00284501       0.00964241
C        5.02730882       4.37749772       3.66429039      -0.00384018      -0.00222697       0.01339871
O        3.81990393       6.46195888       3.73614050       0.00561005      -0.00083186       0.00735310
C        2.49773568       8.47489989       3.83694630      -0.00327475       0.00629170       0.00520132
C        9.87231409      -0.01857915       3.84467198      -0.00281690      -0.00270216      -0.00019357
C        8.64040418       2.13539999       3.88249265      -0.00377437      -0.00656072       0.00233172
C        7.41619133       4.28550157       3.99349663      -0.00026945       0.00231240      -0.00195263
C        6.20473900       6.44688687       4.05838417       0.00815495       0.00560827       0.00695958
C        4.95069208       8.55093918       3.93527171      -0.00105067      -0.00723735      -0.00128474
C        0.00346719       1.43300591       3.60145430      -0.00261889      -0.00059727      -0.01177305
C       -1.24379688       3.56792473       3.76454488       0.00181642       0.00294919      -0.00092375
C       -2.47224844       5.71007817       3.96694775      -0.00216812      -0.00127728      -0.00170986
C       -3.68629006       7.85484865       3.97454487      -0.00342429      -0.00234628       0.00682217
C       -4.92083529       9.98779437       3.80060977      -0.00116193      -0.00292073      -0.00298436
C        2.47435531       1.40366870       3.35309554       0.00025826       0.00789993       0.00987195
S        1.04326067       3.59584861       2.35451635      -0.00082975       0.00162925       0.00563934
C       -0.04703789       5.76939379       3.67284351       0.00477345       0.00213221      -0.00266791
C       -1.22997341       7.85608696       3.85856527      -0.00486950       0.00175081      -0.00395144
C       -2.45184843       9.98440204       3.74085959       0.00416238       0.00125679      -0.00428757
C        4.95074228       1.43191923       3.54691705      -0.00020950       0.00631713       0.00096056
S        3.72037821       3.74020187       2.73366765      -0.00114140      -0.00144096       0.01243637
C        1.23881517       7.75492080       3.81365232       0.00483988      -0.00630493      -0.00589891
C        0.02365691       9.95522637       3.76633955       0.00723314      -0.00234711       0.00164927
C        7.40358685       1.42204514       3.80750852       0.00007402      -0.00241093      -0.01062736
C        6.18696875       3.58421024       3.80766276       0.00248462      -0.00164564      -0.00221933
C        5.01477447       5.76961712       3.86951119       0.01016923       0.00547249      -0.00763986
C        3.75409935       7.83701447       3.86189536      -0.00306439      -0.00063692      -0.00739509
C        2.48292008       9.91848261       3.83773162      -0.00343914       0.00607031      -0.00498576
C        9.87841528       1.42318302       3.83417846      -0.00440490      -0.00366909      -0.00826762
C        8.64391120       3.56069751       3.96778758      -0.00743608      -0.00594994       0.00156537
C        7.42295804       5.70705872       4.06751123       0.00387830       0.00420553      -0.00460236
C        6.19547094       7.86471240       4.01588295       0.00301044       0.00033833       0.00356832
C        4.94072398       9.97758478       3.86810980      -0.00561533      -0.00781995      -0.00089435
Mn       2.06230023       4.37187151       4.50239328      -0.01753347      -0.00383951       0.00311415
