50
Lattice="12.336457 0.0 0.0 -6.168228499999997 10.683685154694365 0.0 0.0 0.0 15.0" Properties=species:S:1:pos:R:3:forces:R:3 energy=-439.1415053519843 free_energy=-439.1415053519843 stress="-0.000249253825620692 0.002829333776620496 -3.356415887155756e-07 0.002829333776620496 0.003725024067870586 -9.328421683857433e-07 -3.356415887155756e-07 -9.328421683857433e-07 -6.895786572098445e-07" pbc="T T T"
C       -0.01081594      -0.00996313       3.73828644       0.00094725      -0.00122480       0.00163239
C       -1.23709818       2.12572339       3.84340249       0.00066744       0.01434076       0.00726431
C       -2.46266899       4.26240545       3.83422137      -0.00523018       0.00943914      -0.00252074
C       -3.71519830       6.39506696       3.72526409       0.00175234      -0.00037140       0.00363402
C       -4.97032793       8.52843039       3.65683392       0.00440901      -0.01508795      -0.00789878
C        2.44435856       0.03783611       3.73742443      -0.00585996       0.00447550       0.00667817
C        1.19551225       2.14562406       3.82787060       0.00085737      -0.00179699       0.00409805
C       -0.02432715       4.25467117       3.97321196       0.00186395      -0.00742994       0.00079444
C       -1.25082312       6.39505837       3.87494626       0.00065233      -0.00389007       0.00459491
C       -2.49927516       8.53939707       3.77510304      -0.00521827       0.00669691      -0.00108449
C        4.90548028      -0.00915021       3.79357033       0.00334148      -0.00782620      -0.00010687
C        3.72404879       2.13324881       3.70667092       0.00743393      -0.00875264      -0.00393919
N        1.13527007       6.44294463       4.13805167       0.00213419      -0.00112274      -0.00250521
C       -0.03486130       8.52389906       3.86175337      -0.00856419       0.00322093       0.00190401
C        7.38502058      -0.02998011       3.84629224       0.00374555       0.01006468       0.00960752
C        6.17389145       2.09899978       3.76182692       0.00033756       0.00342912      -0.01444549
C        4.99893700       4.18151976       3.49440249      -0.00299529      -0.00070951      -0.00088292
S        3.51505018       6.27495605       2.70719720      -0.00949652       0.00238426      -0.00476895
C        2.42774033       8.51300442       3.77952445      -0.00838582       0.00176789       0.00890061
C        9.85704337      -0.02754993       3.79910122      -0.00189703       0.00640148      -0.00770618
C        8.63571016       2.11277988       3.82475311       0.00968695      -0.00360169      -0.00203686
C        7.41638657       4.24822127       3.70086762       0.01262661      -0.00533179       0.00224659
C        6.15833486       6.36497978       3.50320943       0.00723769      -0.00437693      -0.00024200
C        4.90021801       8.51392488       3.57913988      -0.00874888       0.00135671       0.00213771
C        0.00304916       1.43167530       3.80548217      -0.00127565       0.00522099       0.00469422
C       -1.22494430       3.55038095       3.88636772      -0.00860834       0.01258998       0.01225364
C       -2.47573673       5.68149287       3.81179014      -0.00279681       0.00583885      -0.00319288
C       -3.72990107       7.82144965       3.71494298       0.00588358      -0.00601507      -0.00544901
C       -4.95074929       9.97558238       3.70518893      -0.00015326      -0.01198558       0.00581879
C        2.45279795       1.49341918       3.75479458       0.00365888       0.00389306       0.01340770
O        1.15811392       3.53285025       3.94992439       0.00119222      -0.00577090      -0.01541527
C       -0.02189901       5.68848271       4.00527122       0.00448712      -0.01041335       0.00258820
C       -1.26751649       7.81961033       3.84173274      -0.00869409       0.00055764       0.00331348
C       -2.50124708       9.98016070       3.76366329      -0.00692112       0.00685161       0.00399987
C        4.91476067       1.42206324       3.75825996       0.00684878      -0.01107538      -0.00519191
O        3.78097347       3.50997154       3.53120618      -0.00267065      -0.00776133       0.00162817
C        1.17617255       7.79949448       3.91085104      -0.00977645       0.00283017       0.00200888
C       -0.02579782       9.95374961       3.83296421       0.00583381       0.00259136       0.00010811
C        7.39509264       1.39552779       3.82190129       0.00348475       0.00859961      -0.00669105
C        6.19559349       3.50744505       3.66113316       0.00305988       0.00477438      -0.00175176
C        4.99675643       5.57717433       3.32191109       0.00533300      -0.00125276      -0.00349863
C        3.64187745       7.84678075       3.48429675      -0.01127992      -0.00026842      -0.00919687
C        2.44782885       9.94099195       3.82639218      -0.00140371       0.00421003       0.00392989
C        9.87281675       1.40654138       3.83205334       0.00831438       0.00440739      -0.00260076
C        8.64538660       3.53972287       3.79215738       0.00933296      -0.00658527       0.00916989
C        7.39818357       5.66898985       3.64655595       0.00972262      -0.00507702       0.00085117
C        6.13762740       7.80221999       3.55442014      -0.00325471      -0.00227552      -0.00675180
C        4.91788184       9.94610813       3.71828588      -0.00521988       0.00499397      -0.00583559
Mn       2.67465964       5.61524723       4.85734494      -0.00490886       0.00064893       0.00125718
O        3.54649176       6.04693985       6.21700378      -0.00148602      -0.00158211      -0.00480875
