51
Lattice="12.336457 0.0 0.0 -6.168228499999997 10.683685154694365 0.0 0.0 0.0 15.0" Properties=species:S:1:pos:R:3:forces:R:3 energy=-446.3460009697976 free_energy=-446.3460009697976 stress="-0.0006489162847401628 -1.9676720992129775e-05 -1.2411611536096319e-05 -1.9676720992129775e-05 -0.004850950601385893 -2.6060697642631265e-06 -1.2411611536096319e-05 -2.6060697642631265e-06 1.1089491043909863e-06" pbc="T T T"
C        0.01412344      -0.01267413       3.86722565       0.00468017       0.00905815       0.00403043
C       -1.21183704       2.12985908       3.98308345      -0.00337083      -0.00361017       0.00397557
C       -2.44559423       4.26350915       3.97857446      -0.00067106       0.00062122       0.00229013
C       -3.68849181       6.39563991       3.88405236       0.00281835      -0.00079134       0.00640938
C       -4.93088808       8.52571083       3.78525181       0.00395554      -0.00371093       0.00880398
C        2.48038930      -0.02035799       3.90342394      -0.01371900       0.00339845       0.00736682
C        1.25446860       2.11354365       3.94630497       0.00639029       0.00178347      -0.01090811
C        0.04773015       4.24278144       3.83343407       0.00523236       0.00356254      -0.00112427
C       -1.21582898       6.39060433       3.71614972      -0.00242251      -0.00018055      -0.00090327
C       -2.44522505       8.52530080       3.79987596      -0.00008172       0.00156043      -0.00409800
C        4.94548436      -0.01196013       3.87596824       0.00646737      -0.00177972      -0.00003000
C        3.70483987       2.11386504       3.93791838       0.00450794       0.00705280       0.00380098
O        2.48061484       4.14932492       3.94191693      -0.00739828       0.00239739       0.01330279
S        1.18967400       6.32520850       2.50165794      -0.00010013       0.00016384       0.00210063
C       -0.00004376       8.56238909       3.56178204       0.00131382      -0.00747514      -0.00273717
C        7.41032459       0.01702509       3.79753893       0.00505282       0.00539051       0.00440718
C        6.17166019       2.13053904       3.98038724       0.00073803      -0.00205666      -0.00420854
C        4.91218368       4.24336302       3.81444032       0.00778961      -0.00747071       0.01198293
S        3.76777188       6.32683417       2.48507180      -0.00998905      -0.00236602      -0.00807850
C        2.47988992       8.65826171       3.27592916      -0.00861518       0.00107507       0.00046064
C        9.88575111       0.01725898       3.79381674       0.00538621      -0.00735811      -0.00047744
C        8.64841995       2.13688628       3.99151969      -0.00849481      -0.00426919       0.00160583
C        7.40512534       4.26364651       3.97194251      -0.00046859       0.00045202      -0.00163432
C        6.17701661       6.39038277       3.69399014       0.00163578       0.00184729       0.00297950
C        4.96111516       8.56283335       3.54201008      -0.00077972       0.00373507       0.00645110
C        0.01078546       1.40962164       3.94509915       0.00500253       0.00702018       0.00032213
C       -1.20022244       3.55073532       3.97135481       0.00337627       0.00083546       0.00608258
C       -2.45171402       5.68301111       3.89625126      -0.00080614      -0.00048469      -0.00732656
C       -3.68841412       7.81588862       3.82678671       0.00478060      -0.00352938       0.00082945
C       -4.92545123       9.95066704       3.85190428      -0.00826313      -0.00257441      -0.00156252
C        2.47976546       1.39124740       3.94305537       0.00363253       0.00548255      -0.00497412
C        1.25995519       3.49792846       3.87951016      -0.00006418       0.00010783      -0.00430397
C       -0.03263153       5.64134406       3.53972150      -0.00090747       0.00494031       0.00340397
C       -1.20809059       7.82246119       3.66938596      -0.00089775      -0.00277658      -0.00425201
C       -2.45034434       9.95031880       3.86176505      -0.00710576       0.00579426      -0.01096633
C        4.94865037       1.41067154       3.94304794       0.00458152       0.00134703       0.00410000
C        3.70028253       3.49806452       3.86672373      -0.00447892       0.00551487      -0.00196735
C        1.23579128       7.93951723       3.19611248      -0.00459255      -0.00534580      -0.00786407
C        0.01094631       9.97434598       3.75794819       0.01093103      -0.00434935       0.00291837
C        7.41231230       1.42781061       3.95001098      -0.00538168       0.00277791      -0.00465038
C        6.15944305       3.55155045       3.96178800       0.00721237      -0.00754504      -0.00044294
C        4.99406612       5.64120303       3.51619053       0.00091895      -0.00628090       0.00974751
C        3.72395330       7.94019585       3.18262307      -0.01031553      -0.00396740      -0.00456547
C        2.47982851      10.02187147       3.64818052       0.00128578       0.00259659       0.00063176
C        9.88435965       1.42768768       3.95039654      -0.00702799      -0.00885842      -0.01126382
C        8.64803683       3.55657721       4.01401574      -0.00458359      -0.00184684      -0.00513116
C        7.41143095       5.68284786       3.88496645       0.00249866       0.00186846      -0.00574477
C        6.16935623       7.82248381       3.64635089       0.00213744       0.00565839       0.01240363
C        4.94851584       9.97400804       3.74635854       0.01024830       0.00308813       0.00283150
Mn       2.48828269       6.74232264       4.58456239      -0.00408514       0.00216823      -0.01577069
O        2.49484927       5.98652084       5.97374655       0.00204646      -0.00267111       0.00174701
