52
Lattice="12.336457 0.0 0.0 -6.168228499999997 10.683685154694365 0.0 0.0 0.0 15.0" Properties=species:S:1:pos:R:3:initial_magmoms:R:1:forces:R:3 energy=-451.2231111837876 free_energy=-451.2231111837876 stress="-0.0009764354998829925 0.0002782937907956365 1.6928428404434606e-05 0.0002782937907956365 -0.004947748074958443 7.10387507505703e-06 1.6928428404434606e-05 7.10387507505703e-06 3.723920850645657e-05" pbc="T T T"
C        0.02135962       0.02747638       3.86289568       0.00000000       0.00009356       0.00010863       0.00088087
C       -1.20455482       2.16909421       3.97096179       0.00000000       0.00144733       0.00080494      -0.00018538
C       -2.43796580       4.30151496       3.99015362       0.00000000       0.00060176      -0.00025899       0.00033228
C       -3.68140106       6.43504471       3.91468984       0.00000000       0.00088799       0.00042674       0.00062037
C       -4.92385089       8.56551024       3.80762250       0.00000000       0.00071753      -0.00134253      -0.00022674
C        2.48622946       0.02237806       3.89723547       0.00000000      -0.00009943      -0.00088127      -0.00013098
C        1.26220223       2.15289828       3.90981122       0.00000000      -0.00091118      -0.00104825       0.00063760
C        0.05673985       4.28783635       3.82400614       0.00000000      -0.00024440      -0.00040288      -0.00124597
C       -1.21269027       6.43242820       3.73989630       0.00000000      -0.00097164       0.00031999      -0.00103488
C       -2.44274848       8.56724819       3.81760899       0.00000000       0.00030011      -0.00019345      -0.00022914
C        4.95168483       0.02878216       3.86309316       0.00000000      -0.00015543       0.00213622      -0.00047308
C        3.71456923       2.15326042       3.88753621       0.00000000      -0.00008332       0.00154635       0.00003020
O        2.49335270       4.17802121       3.91895532       0.00000000       0.00044414       0.00028792       0.00040796
S        1.10723964       6.37318041       2.39278139       0.00000000      -0.00063227       0.00083593      -0.00114717
C        0.00222166       8.60067870       3.55073939       0.00000000       0.00158905      -0.00186109      -0.00126249
C        7.41762608       0.05512961       3.77894354       0.00000000      -0.00009458       0.00072306      -0.00038117
C        6.18052603       2.16958598       3.95383964       0.00000000       0.00123314      -0.00129251       0.00010064
C        4.92299832       4.28737788       3.76243317       0.00000000      -0.00030424      -0.00108234       0.00164049
S        3.83567299       6.37726270       2.39182107       0.00000000       0.00164421       0.00048507      -0.00068324
C        2.48551896       8.67422074       3.26661690       0.00000000       0.00053337       0.00030856      -0.00016679
C        9.89375012       0.05416796       3.77774407       0.00000000       0.00036189       0.00048853      -0.00069152
C        8.65635297       2.17470144       3.97582972       0.00000000      -0.00142285       0.00042121       0.00032998
C        7.41429830       4.30100669       3.97052323       0.00000000      -0.00093494       0.00037636       0.00129273
C        6.18931960       6.42826196       3.69262993       0.00000000      -0.00037682       0.00062424       0.00108239
C        4.96882408       8.59740937       3.53779262       0.00000000      -0.00051444       0.00139044      -0.00057769
C        0.01929951       1.44901245       3.92828371       0.00000000       0.00008225      -0.00027895      -0.00031468
C       -1.19181843       3.59221108       3.96752555       0.00000000      -0.00042373      -0.00128203       0.00033406
C       -2.44541683       5.72224756       3.92402717       0.00000000       0.00074904       0.00194292      -0.00036991
C       -3.68279170       7.85556722       3.85549347       0.00000000      -0.00069164       0.00032120       0.00001228
C       -4.91882887       9.99132910       3.85767290       0.00000000       0.00013030       0.00082267       0.00036871
C        2.48764063       1.43384990       3.91156381       0.00000000      -0.00014758       0.00105499      -0.00047214
C        1.26572462       3.53942267       3.84147886       0.00000000       0.00095460       0.00023059      -0.00048511
C       -0.02400264       5.69016789       3.54581575       0.00000000      -0.00070357       0.00015108      -0.00078116
C       -1.20957015       7.86127935       3.68214732       0.00000000       0.00016222      -0.00138001      -0.00021405
C       -2.44566998       9.99263813       3.86023287       0.00000000       0.00003794      -0.00059859      -0.00047456
C        4.95634635       1.44955756       3.91394783       0.00000000       0.00009829       0.00028809      -0.00045064
C        3.71584231       3.53831815       3.79389054       0.00000000      -0.00057472       0.00039756       0.00009395
C        1.22518871       7.96955110       3.17223821       0.00000000       0.00070000      -0.00057043      -0.00033675
C        0.01728350      10.01619818       3.74716796       0.00000000       0.00087188      -0.00053322      -0.00091120
C        7.42010928       1.46764665       3.92796834       0.00000000      -0.00069061       0.00031933      -0.00014097
C        6.16852540       3.59186110       3.93389234       0.00000000      -0.00050549      -0.00013381       0.00154519
C        5.01438172       5.67969760       3.46618395       0.00000000      -0.00184939       0.00198011       0.00153152
C        3.74124084       7.96720866       3.17159912       0.00000000       0.00005619       0.00035523      -0.00064654
C        2.48686264      10.05440901       3.62681026       0.00000000       0.00029973      -0.00219548      -0.00139250
C        9.89231126       1.46669959       3.93306232       0.00000000       0.00038066       0.00026533      -0.00015162
C        8.65613821       3.59414521       4.01296237       0.00000000       0.00210427      -0.00090523       0.00079241
C        7.42085538       5.72103133       3.90013497       0.00000000       0.00117248       0.00034567       0.00131603
C        6.18159515       7.85889944       3.65771846       0.00000000       0.00152407      -0.00158062       0.00040299
C        4.95624850      10.01372267       3.74155707       0.00000000       0.00004112       0.00007961      -0.00055213
Mn       2.44434994       6.60828916       4.61601046       0.00000000       0.01012313       0.00466656       0.05338728
O        3.31112551       5.38714866       6.04191466       1.00000000       0.00020461       0.00295491       0.00122910
O        2.02951792       5.30165980       6.18094199       1.00000000      -0.01721461      -0.00963839      -0.05223885
