53
Lattice="12.336457 0.0 0.0 -6.168228499999997 10.683685154694365 0.0 0.0 0.0 15.0" Properties=species:S:1:pos:R:3:forces:R:3 energy=-458.8091257151377 free_energy=-458.8091257151377 stress="-0.00016162863459706354 0.002025920155088839 2.9604783421600365e-05 0.002025920155088839 -0.0026076370923285436 -4.8452646854103745e-06 2.9604783421600365e-05 -4.8452646854103745e-06 1.3752164627814686e-05" pbc="T T T"
C       -0.01715261      -0.01227634       3.79355047       0.00498888      -0.00142358       0.00461560
C       -1.22959591       2.14211040       3.88344727       0.00473977       0.00648980      -0.00232013
C       -2.45335066       4.26201648       3.87919662       0.00360220      -0.00203310       0.00465962
C       -3.71255568       6.38931235       3.79077645      -0.00397353      -0.00091592      -0.00272182
C       -4.95679256       8.52600878       3.72903066      -0.00120332      -0.00601611      -0.00299103
C        2.44760408      -0.01476159       3.78209117       0.00205751      -0.00802317      -0.00268427
C        1.22996052       2.13175413       3.88911139      -0.00138296       0.00126463       0.00813075
C        0.05760062       4.29790603       4.01978600      -0.00533514      -0.00344752       0.00003667
C       -1.23157261       6.39679930       3.89063187      -0.00244193      -0.00193941       0.00812664
C       -2.48214685       8.52449161       3.78256739      -0.00548430       0.00605001       0.00485196
C        4.91885511      -0.01769977       3.76204022       0.00634584       0.00745531       0.01466566
C        3.68356806       2.10200597       3.77824388       0.00236116      -0.00690405       0.00225651
O        2.49778722       4.12158816       4.17690788       0.00874802       0.01212598       0.00144028
O        1.12642001       6.49728643       4.18095567      -0.00221413       0.00530625      -0.00238745
C       -0.03076979       8.53752983       3.79402237      -0.00427755      -0.00383581      -0.00329756
C        7.38595735      -0.01067237       3.78711768      -0.00667150       0.00640131       0.00539019
C        6.15769422       2.11552514       3.77705337       0.00376647      -0.00096600       0.00875935
C        4.90643392       4.22035485       3.70394709       0.00307117       0.00226204      -0.00529967
P        3.66927541       6.39155022       2.54263994       0.00129557      -0.00162557       0.01269205
C        2.41566635       8.53750490       3.73041917       0.00186326      -0.00939105      -0.00782370
C        9.85440778      -0.00436309       3.79275895      -0.00196509       0.00262515      -0.00856402
C        8.63121326       2.12602103       3.83211759       0.00077608       0.00683024      -0.00097787
C        7.39732609       4.25056305       3.78118018      -0.00110785      -0.00122329      -0.00132151
C        6.15519769       6.38690107       3.62944636      -0.00646559       0.00359317      -0.00715790
C        4.91484021       8.53487255       3.63887478       0.00412000      -0.01020830      -0.00102274
C       -0.01199707       1.41596512       3.85774276       0.00033062       0.00164404       0.00555886
C       -1.20281051       3.57073298       3.93029361      -0.00162140      -0.00232762      -0.00431392
C       -2.47288589       5.67955963       3.85509182      -0.00093334      -0.00076602       0.00616759
C       -3.72148811       7.81436712       3.76886814      -0.00597417       0.00140986      -0.00021950
C       -4.95559865       9.95115580       3.77062174       0.00171136      -0.00471523      -0.00355674
C        2.45273221       1.39728338       3.81427490      -0.00300723      -0.00570658       0.00316587
C        1.23874920       3.50635402       4.02989642       0.00027703       0.00538802      -0.00377357
C       -0.03668512       5.71641525       4.03077286      -0.00138108      -0.00201659      -0.00173271
C       -1.25630994       7.82322625       3.82004609      -0.00878759      -0.00154389       0.00476560
C       -2.48509592       9.95248393       3.76862458       0.00702261       0.00447105      -0.00137585
C        4.92717553       1.40197661       3.75973038       0.00754735      -0.00069302       0.00016726
C        3.70477480       3.48464921       3.82871140       0.00639071      -0.00268015      -0.00814075
C        1.17779577       7.86410913       3.84953005      -0.00295569       0.00031523      -0.00412608
C       -0.01531337       9.96408028       3.76943806      -0.00144642       0.00135988       0.00228094
C        7.39491584       1.41216450       3.79993761      -0.00134422       0.00763948       0.00444877
C        6.15545435       3.53188767       3.75803788       0.00076925      -0.00231020       0.00222344
C        4.92456741       5.65528184       3.52518819       0.00423940       0.00534771      -0.00948647
C        3.66549637       7.83359249       3.54464808       0.00014565      -0.00133533      -0.00854829
C        2.44337220       9.96364852       3.77485496      -0.00759058      -0.00449126       0.00779681
C        9.86470337       1.41894834       3.84196076       0.00383177       0.00866438      -0.00309500
C        8.63540566       3.54791303       3.83539358       0.00803928       0.00124756       0.00183505
C        7.38934313       5.67729707       3.74456970      -0.00542897      -0.00125912      -0.00732571
C        6.14285684       7.81226111       3.64456784       0.00455216      -0.00586122      -0.00309760
C        4.91724144       9.95846294       3.75216124       0.00376835      -0.00818232      -0.00094645
Mn       3.04495204       6.02394255       5.18127565       0.00371216       0.00949118       0.00316614
O        4.39474715       6.83599420       6.24743417      -0.00273715      -0.00279091      -0.00665321
O        3.47905710       6.58788292       7.40029886      -0.00890299      -0.00604775      -0.00523245
H        4.08126153       6.06717210       7.96132652      -0.00543991       0.00329779       0.00299232
