50
Lattice="12.336457 0.0 0.0 -6.168228499999997 10.683685154694365 0.0 0.0 0.0 15.0" Properties=species:S:1:pos:R:3:forces:R:3 energy=-432.74636291062166 free_energy=-432.74636291062166 stress="-0.006243568680923697 0.0009572158056691569 2.951222193640331e-06 0.0009572158056691569 -0.0069794238500963885 -1.3660814266714969e-05 2.951222193640331e-06 -1.3660814266714969e-05 -4.121000847501655e-06" pbc="T T T"
C        0.03727805      -0.00734198       3.86167523      -0.00052861       0.00235600       0.00560265
C       -1.17655932       2.14733327       3.83285146      -0.00083429       0.00014093      -0.00142641
C       -2.42743490       4.26884226       3.60465281       0.00726317      -0.00276477      -0.00144877
C       -3.66686604       6.40769129       3.63181215      -0.00681534      -0.00164389       0.00418105
C       -4.91398945       8.53239167       3.70167653      -0.00573333      -0.00213284      -0.00906639
C        2.49834659      -0.05171394       4.00245629      -0.00138775      -0.00197755       0.00643127
C        1.25311433       2.04460814       4.37295504      -0.01241525       0.00382824      -0.00868474
C        0.02736142       4.27872751       3.38096384      -0.00410784      -0.00082821      -0.00252224
C       -1.24237605       6.42795507       3.31084535       0.00463695       0.00716472      -0.01049075
C       -2.43976801       8.54363420       3.63193795       0.00976677       0.01480669      -0.00560640
C        4.96950933      -0.01513177       3.92248447       0.00576100       0.00098239      -0.00624280
C        3.73727828       2.02098246       4.44411493       0.00454125      -0.01041458       0.00044358
S        1.14106304       6.50792849       2.08018536       0.00151855       0.00097869      -0.00155996
C        0.00854287       8.57882598       3.44850422       0.00506731       0.00037708       0.00340377
C        7.43490208       0.02334638       3.74894181      -0.00847571      -0.00051245       0.00440671
C        6.22376172       2.12254439       4.13172522       0.00642177      -0.00145741       0.00231603
C        5.06774931       4.29823895       4.28937383       0.00056312       0.00302158       0.01092089
S        3.58999303       6.21940237       3.25074979       0.00802824       0.00145015       0.00623404
C        2.51239230       8.63571913       3.32183836      -0.00622120      -0.00477189       0.01058944
C        9.91884644       0.02620424       3.69903786       0.00570781       0.00037758      -0.00734354
C        8.68403696       2.14265361       3.83896390       0.00358142       0.00414057      -0.00651915
C        7.46723012       4.27010963       3.90200189      -0.00729739      -0.00426488       0.00045315
C        6.22477350       6.41247926       3.74697516      -0.01032478      -0.00367490       0.00699482
C        4.97329764       8.55894418       3.54022322      -0.00298880      -0.01071318       0.00122919
C        0.03937790       1.41766497       4.02256405      -0.01017812       0.00358334       0.00437937
C       -1.18411646       3.55780108       3.60795338       0.00413249      -0.00383128       0.00601352
C       -2.44466558       5.69301170       3.51436933       0.00289800       0.00078144      -0.00891903
C       -3.67420476       7.82770244       3.64609679       0.00362477       0.00614798      -0.00147549
C       -4.90742277       9.94939827       3.85000427      -0.00243199       0.00032841      -0.00918124
C        2.49429785       1.33448471       4.30170130      -0.00610786      -0.00303465       0.00339088
P        1.31497103       3.80005023       4.52535969       0.00051090      -0.00284608       0.00450374
C       -0.05608576       5.68691278       3.06074796       0.00623322      -0.00065155      -0.00073238
C       -1.21555480       7.84884605       3.42906004       0.00790442       0.00966855      -0.00462214
C       -2.43124526       9.95092235       3.85079881       0.00627512       0.00991401       0.00358539
C        4.98366253       1.39313005       4.18948108       0.00997788      -0.00653115      -0.00718575
P        3.63888008       3.64205085       5.09896711       0.00358711       0.01263470       0.00003752
C        1.25279845       7.91003674       3.20090791      -0.00307647      -0.00940282      -0.00109963
C        0.02896256       9.98448959       3.71385545      -0.00268538      -0.00306376      -0.00041819
C        7.44507841       1.43213950       3.91971271       0.00317845       0.00111861       0.00244059
C        6.25726854       3.54820648       4.15077522      -0.00511115      -0.00285663       0.00133892
C        5.05687612       5.65521701       3.89660296      -0.00384072      -0.00015149       0.00869381
C        3.72934403       7.93317897       3.33377528      -0.00521200      -0.00572139      -0.00207731
C        2.50629854      10.02618572       3.58375343      -0.00444083       0.00165186      -0.00256295
C        9.92490642       1.44380149       3.79277378       0.00331951       0.00213751      -0.00028245
C        8.68998222       3.56157392       3.79214209       0.00242489       0.00372800      -0.00077403
C        7.45797724       5.69012523       3.77367990      -0.01301529      -0.00470650       0.00649979
C        6.19420895       7.82771647       3.62969838      -0.00770959      -0.00878980      -0.00555319
C        4.97730815       9.98842427       3.68108925       0.00618874      -0.00637523      -0.00141004
Mn       1.51542908       6.36672215       4.81581549       0.01168819       0.00857346       0.01221926
O        0.97640129       4.66359301       5.81049007      -0.00386134       0.00322634      -0.00910441
