51
Lattice="12.336457 0.0 0.0 -6.168228499999997 10.683685154694365 0.0 0.0 0.0 15.0" Properties=species:S:1:pos:R:3:initial_magmoms:R:1:forces:R:3 energy=-436.1850975003356 free_energy=-436.1850975003356 stress="-0.002588561369355883 -7.623865473214144e-05 -0.00019390293408913604 -7.623865473214144e-05 -0.011643407619055794 6.403805103387507e-05 -0.00019390293408913604 6.403805103387507e-05 8.018644967387442e-05" pbc="T T T"
C        0.02471275       0.03592856       3.94411259       0.00000000      -0.00173514       0.01914617       0.02207273
C       -1.20940533       2.20289221       3.95310350       0.00000000       0.06076627      -0.01662829      -0.05211916
C       -2.44928293       4.33297489       3.65049550       0.00000000       0.02579605      -0.06130195       0.02268131
C       -3.67919172       6.45432933       3.57248585       0.00000000       0.03136823      -0.00229958       0.00798439
C       -4.92011105       8.56919546       3.78862262       0.00000000       0.02980810       0.03627092      -0.00849112
C        2.49790818      -0.01465767       3.76307882       0.00000000      -0.01388914      -0.00250261      -0.00140168
C        1.28996964       2.10163250       4.05339421       0.00000000       0.05072518       0.00305929       0.01937689
C       -0.02252482       4.37101649       3.78816806       0.00000000      -0.01205143      -0.00066896      -0.06091299
C       -1.21053380       6.45796168       3.36572516       0.00000000      -0.03616172      -0.01958718       0.01318474
C       -2.43901996       8.56997801       3.51218205       0.00000000       0.00862929       0.02042303       0.00371197
C        4.96139176       0.02852633       3.51624824       0.00000000      -0.01869390       0.01540296      -0.01529329
C        3.69791603       2.08785934       3.45744446       0.00000000      -0.04699021      -0.01846141      -0.03454317
P        1.57489246       6.33656105       2.77906486       0.00000000      -0.02522246      -0.01211834      -0.03395342
C        0.03709967       8.60267557       3.38167522       0.00000000      -0.03103529       0.01120606       0.00128603
C        7.42048183       0.07926110       3.56693511       0.00000000       0.00936352       0.02624978       0.02675050
C        6.18554027       2.19013512       3.42029453       0.00000000      -0.02887685      -0.03192933       0.01356695
C        5.00697771       4.35204288       3.30603809       0.00000000      -0.00316961      -0.01727472       0.02215882
P        3.44674600       6.28577535       4.34773184       0.00000000       0.03013544       0.02191411      -0.03647148
C        2.49112419       8.67968186       3.70787150       0.00000000      -0.06588493       0.02121059      -0.01245721
C        9.89668570       0.08460931       3.85706632       0.00000000       0.00773814       0.02328554      -0.01424957
C        8.66007985       2.20084744       3.67026248       0.00000000      -0.00536058       0.03636705       0.00412962
C        7.42841338       4.32508093       3.54797996       0.00000000      -0.00904154      -0.00915651      -0.03937006
C        6.18992242       6.45331220       3.75074231       0.00000000      -0.00833024      -0.02408613       0.02194435
C        4.94987664       8.60710283       3.96650168       0.00000000       0.02084080      -0.00910942      -0.00194744
C        0.02635732       1.46707267       4.01562263       0.00000000       0.05792813       0.00617635       0.01267893
C       -1.22243083       3.62152765       3.82928499       0.00000000       0.02095272      -0.04029295      -0.04004885
C       -2.44545309       5.74864535       3.50761932       0.00000000       0.00960713      -0.05336167       0.04998934
C       -3.68149554       7.86999203       3.61298520       0.00000000       0.02915791       0.01882145       0.03695855
C       -4.91547332       9.98625984       3.85214219       0.00000000      -0.01235102       0.03272514       0.01825288
C        2.50022159       1.39909274       3.80020357       0.00000000      -0.00578834      -0.02360689      -0.00360930
P        1.45344284       3.76122365       4.52320059       0.00000000      -0.00522957      -0.03649338      -0.04123080
C       -0.00244812       5.70706753       3.35337525       0.00000000      -0.04761073       0.01234522       0.06952926
C       -1.20413695       7.87803200       3.36473427       0.00000000      -0.02687403      -0.00716605       0.01791887
C       -2.43659721       9.98531543       3.59096289       0.00000000      -0.00491361       0.01470639       0.00618458
C        4.95635902       1.45959246       3.45888166       0.00000000      -0.04763097      -0.00325299      -0.00743098
S        3.51686467       3.64297480       2.74663894       0.00000000       0.05480606      -0.00498220       0.02608616
C        1.29922538       7.96914555       3.37549344       0.00000000      -0.05633847      -0.00433608      -0.00147631
C        0.02978439      10.02795713       3.47975528       0.00000000      -0.00100269       0.02805997       0.02170972
C        7.41866401       1.49714586       3.54196359       0.00000000      -0.00944962       0.01460567       0.05976252
C        6.19616073       3.60572895       3.40705209       0.00000000      -0.00086070      -0.03657066      -0.07127781
C        4.99073034       5.69975500       3.69095570       0.00000000      -0.04337801      -0.01372140       0.05041592
C        3.69200916       7.97970494       3.99035768       0.00000000      -0.00961884       0.07232524      -0.04809198
C        2.49101925      10.08678400       3.71591946       0.00000000      -0.00889045       0.02443577       0.01383306
C        9.89616271       1.50154317       3.84342936       0.00000000       0.02263488       0.03729773      -0.02716163
C        8.66063033       3.61735502       3.62490801       0.00000000      -0.00177216       0.01912742       0.00317884
C        7.42529561       5.74435600       3.62395904       0.00000000       0.00770384       0.00297168      -0.01073587
C        6.18178310       7.87333334       3.87882592       0.00000000       0.04808773      -0.01700199       0.00350573
C        4.95614128      10.03805579       3.93445369       0.00000000       0.00512168      -0.00212949       0.01418318
Mn       2.31937801       5.27053077       6.18891025       0.00000000       0.02266028      -0.00218544      -0.03819374
O        1.45283189       4.34631784       7.75212272       1.00000000       0.08663285      -0.02104795      -0.00864889
O        0.42832423       4.60788680       6.97282753       1.00000000      -0.05231198      -0.02685997       0.02608090
