52
Lattice="12.336457 0.0 0.0 -6.168228499999997 10.683685154694365 0.0 0.0 0.0 15.0" Properties=species:S:1:pos:R:3:forces:R:3 energy=-440.79700362260735 free_energy=-440.79700362260735 stress="-0.003095893321852756 0.00013449444344779216 -0.00014850533251442003 0.00013449444344779216 -0.011839519383258853 -0.00010507171747670317 -0.00014850533251442003 -0.00010507171747670317 0.00013849645352556188" pbc="T T T"
C       -0.11020742      -0.00091259       3.96443399      -0.00478321      -0.00283807      -0.03892247
C       -1.33715388       2.16052637       3.95094216      -0.00338416       0.02084706       0.02893828
C       -2.57890923       4.29628498       3.73814120      -0.00306547       0.00890254      -0.00234847
C       -3.80913124       6.42294531       3.69508439      -0.00289277      -0.01718945      -0.02177044
C       -5.05528774       8.53615803       3.86471886       0.02023305      -0.00576100      -0.01740574
C        2.35556216      -0.04247740       3.70474094       0.02060502      -0.01115813       0.01648158
C        1.16001266       2.06848894       3.93340840       0.00820830      -0.03610591       0.00663605
C       -0.15633745       4.32869889       3.90750726       0.01330795       0.01774637      -0.01423868
C       -1.34071465       6.43007526       3.57491075      -0.00136555       0.01736868      -0.00161294
C       -2.57206889       8.54289645       3.63881664      -0.00738954      -0.00293362      -0.01748770
C        4.82493458       0.00570756       3.53239436       0.00435560      -0.00827441       0.01702427
C        3.56502015       2.05395596       3.30212501       0.00885711       0.01356271       0.02030418
P        1.41787249       6.32731190       2.92843748       0.01120361       0.02875372       0.00881098
C       -0.10158949       8.57996418       3.57075288      -0.02209619      -0.00444736      -0.02528031
C        7.28564262       0.05586604       3.67691247      -0.03215964      -0.01169210       0.02608147
C        6.05668284       2.16037308       3.38937704      -0.01855894      -0.00527654      -0.00084035
C        4.88734289       4.32737036       3.23984875       0.01429065      -0.00397474      -0.04181082
P        3.31925431       6.22956583       4.36411471      -0.01038510       0.00553317       0.02184993
C        2.34849568       8.65122400       3.90080444      -0.00034341       0.02393390      -0.01187271
C        9.76130174       0.05233204       3.93722711       0.01118668      -0.01342416       0.02255510
C        8.52876263       2.17239509       3.69219490      -0.00923645      -0.03627332       0.03276365
C        7.30168902       4.29517650       3.53895718      -0.01289047       0.00010970       0.02578434
C        6.05594139       6.41775585       3.77556762      -0.01872743       0.01804401       0.04144706
C        4.81736834       8.57055151       4.06519258       0.00355042       0.00502088      -0.00046430
C       -0.10134373       1.42839867       3.97992695      -0.01188016      -0.00115091      -0.01776306
C       -1.35319184       3.57967516       3.89014011      -0.00024047       0.02871795      -0.00798765
C       -2.57553128       5.71582984       3.66641592       0.00965881       0.00783387      -0.01829930
C       -3.81280065       7.83934250       3.73338329       0.00956614      -0.02364315       0.00530586
C       -5.05186555       9.95447357       3.86823054       0.00410385      -0.00398729       0.00040329
C        2.36103834       1.36876955       3.64621693       0.02664063      -0.00582960       0.03560850
P        1.33935335       3.67292028       4.53793147       0.02152569      -0.01074702       0.00179960
C       -0.13374566       5.68880726       3.56146635       0.00322287       0.01089593      -0.01291056
C       -1.33727342       7.85067593       3.55587223      -0.01737334       0.00920923      -0.01481590
C       -2.57240763       9.95979934       3.61357157       0.01400774      -0.00839575       0.01648526
C        4.82209392       1.43207058       3.39073122      -0.00097792      -0.00299958      -0.00012814
S        3.42046765       3.62465196       2.62039586      -0.02019534      -0.00881050       0.02402213
C        1.15555192       7.93884481       3.58584145      -0.00484192       0.02319152      -0.01460052
C       -0.10615826      10.00759650       3.59613384      -0.02015676      -0.02033267       0.01732899
C        7.28542422       1.47117850       3.58323555      -0.02956399      -0.02202271      -0.02688461
C        6.07423167       3.57627223       3.34930652      -0.00063230      -0.00774804       0.00057863
C        4.85488343       5.66915671       3.66262558       0.01257857      -0.02352690       0.01168838
C        3.55834488       7.94536875       4.13571881       0.00308835       0.01047506      -0.02810923
C        2.34959186      10.05953673       3.86810611      -0.00395897       0.02017020      -0.03248302
C        9.76359999       1.46738087       3.86573428       0.01775719      -0.01825566       0.01635114
C        8.53112468       3.58749147       3.64856794      -0.01000579      -0.02355997       0.01598557
C        7.29487842       5.71220298       3.66435969      -0.02293146       0.01023912       0.01312784
C        6.04848615       7.83530227       3.94961417       0.00371936       0.02315750      -0.00048205
C        4.82055831      10.00137793       4.01278837       0.00663343      -0.00923427      -0.01256325
Mn       2.58270198       4.76566095       6.17467924      -0.01175077       0.00333406       0.02838783
O        3.95563493       5.88804662       7.00040632      -0.01326629       0.01394334      -0.01720324
O        2.90116382       5.72137532       8.06000871       0.02149533      -0.01183723      -0.05176200
H        3.40690087       5.24495670       8.73645307       0.04525744       0.04043954      -0.00570244
