52
Lattice="12.336457 0.0 0.0 -6.168228499999997 10.683685154694365 0.0 0.0 0.0 15.0" Properties=species:S:1:pos:R:3:forces:R:3 energy=-439.66879426334145 free_energy=-439.66879426334145 stress="-0.0032115092169370412 -0.00016011528523315844 -2.1515567596667922e-05 -0.00016011528523315844 -0.011726116559235519 -3.0082173431392236e-06 -2.1515567596667922e-05 -3.0082173431392236e-06 1.199988232412539e-05" pbc="T T T"
C       -0.00633663      -0.01073009       3.64556097      -0.00210388       0.00370033       0.00083777
C       -1.23304191       2.14641006       3.51649425      -0.00250057       0.00415478      -0.00272408
C       -2.47834223       4.27930673       3.62821947      -0.00063350      -0.00366754      -0.00239690
C       -3.70839481       6.40717134       3.70829685       0.00654746      -0.00011489       0.00430305
C       -4.95423621       8.52218584       3.67558958       0.00410491       0.00220313      -0.01029393
C        2.45322624      -0.06327646       3.85941508       0.00116350      -0.00091480       0.00185433
C        1.25513583       2.03983343       3.49514623       0.00018790      -0.00752643       0.00686516
C       -0.05422808       4.31127329       3.39588758      -0.00578031       0.00275371      -0.00719348
C       -1.24355396       6.40665060       3.86260064      -0.00408171      -0.00040397       0.00339855
C       -2.46967675       8.52171080       3.92745903       0.00054815       0.00409310       0.00448615
C        4.92344161      -0.01076981       4.03557732      -0.00453896      -0.00185843      -0.00201041
C        3.65466447       2.05992746       4.05830679      -0.00034278      -0.00344672       0.00179864
P        1.45535376       6.25021540       4.50250610       0.01090478      -0.00204186       0.01290954
C        0.00199519       8.55765381       4.07132847       0.00104625       0.00181332      -0.00308883
C        7.38892588       0.03989892       3.95749100      -0.00178556       0.00279556       0.00947637
C        6.14990919       2.15502176       3.97903223      -0.00348502       0.00455027      -0.00029117
C        4.95481226       4.31784550       3.74132620      -0.00705158      -0.00682654       0.00221965
S        3.47745653       6.36386256       2.82322425      -0.00582366       0.00087916       0.01147771
C        2.46782307       8.62798802       3.84032717      -0.00099261       0.00394415       0.00429571
C        9.86950411       0.03855030       3.71991329       0.00283941      -0.00285139       0.00236050
C        8.62621884       2.15742965       3.76050603       0.00443876      -0.00088046      -0.00342816
C        7.39378421       4.28210745       3.71493362       0.00240981       0.00317881       0.00148147
C        6.16425065       6.41880599       3.46342498      -0.00479974      -0.00601677       0.00147743
C        4.91938359       8.56025067       3.54048539      -0.00129487      -0.00127572       0.00902592
C       -0.00083800       1.41852177       3.54056404      -0.00502112       0.00338194       0.00158504
C       -1.24392849       3.56167829       3.47989491      -0.00429088       0.00184687      -0.00644496
C       -2.47718595       5.69667798       3.73179650       0.00109233      -0.00324001      -0.00628883
C       -3.70947239       7.82141170       3.77153486       0.00543980       0.00101252      -0.00296789
C       -4.95207126       9.94031455       3.72844608       0.00040256       0.00435903      -0.00946841
C        2.45041504       1.35021262       3.83333151      -0.00001844      -0.00481619       0.00920206
S        1.44175755       3.62327629       2.83372080       0.01290683      -0.00684513       0.00880907
C       -0.04046363       5.65944900       3.78267090      -0.00133561       0.00032171       0.00127614
C       -1.23309322       7.82416457       4.00201546      -0.00230825       0.00297397      -0.00775370
C       -2.47164912       9.93920375       3.96716044      -0.00186972       0.00195153      -0.00108098
C        4.91549744       1.42278369       4.05740411      -0.00290167      -0.00317422      -0.00730555
P        3.45206659       3.73693715       4.45601502       0.00901155       0.00555217       0.00817057
C        1.26265154       7.92179242       4.07445878       0.00204624      -0.00295287      -0.00599600
C       -0.00617852       9.99090163       4.03568450      -0.00326342       0.00239538      -0.00022143
C        7.38638258       1.45715013       3.91149781      -0.00165765       0.00401026       0.00004071
C        6.15952379       3.57168558       3.83329106      -0.00225380       0.00249377      -0.00417129
C        4.97604393       5.66976510       3.36556791      -0.00636932      -0.00777616       0.00135239
C        3.66345604       7.93784009       3.49981875      -0.00271381       0.00570061       0.00014502
C        2.46430922      10.04143148       3.85391928      -0.00016910       0.00371517       0.00062198
C        9.87151862       1.45705294       3.66839220       0.00439142      -0.00317839      -0.00842950
C        8.62507564       3.57186520       3.70255351       0.00239628      -0.00108326      -0.00402676
C        7.39642778       5.69985838       3.61808203       0.00465567       0.00243589      -0.00364122
C        6.15141015       7.83319615       3.51428408      -0.00084679      -0.00184633      -0.00457624
C        4.92445403       9.98963466       3.64391284       0.00129219      -0.00099624      -0.00084822
Mn       2.47771305       5.05945545       6.31790814      -0.00536112      -0.00086566      -0.00564425
O        3.44957117       4.21139253       7.78594370      -0.00666576      -0.00708084       0.00737975
O        2.27599597       4.82740682       8.45209590       0.00787586       0.00843524       0.00149018
H        2.72852603       5.40409109       9.08112152       0.00655953      -0.00297158      -0.00804869
