50
Lattice="12.336457 0.0 0.0 -6.168228499999997 10.683685154694365 0.0 0.0 0.0 15.0" Properties=species:S:1:pos:R:3:forces:R:3 energy=-433.76913292367993 free_energy=-433.76913292367993 stress="-0.005825067511133868 -0.0005723498979611401 1.3368368010955448e-05 -0.0005723498979611401 -0.013678082095827144 4.655088784506305e-06 1.3368368010955448e-05 4.655088784506305e-06 3.51233906205191e-06" pbc="T T T"
C       -0.00417012      -0.03739137       3.80253641       0.00083408      -0.00207667       0.00736243
C       -1.24265997       2.10381649       3.89972676      -0.00134174       0.00687096       0.01735998
C       -2.48559561       4.24118369       3.82722212       0.00800570      -0.00557858      -0.00052355
C       -3.70756472       6.37321534       3.76131951      -0.00524205       0.00532147       0.00366272
C       -4.95065075       8.49445409       3.80220147      -0.00498007      -0.00876301      -0.00423829
C        2.45853180      -0.08255028       3.65869554      -0.00353880      -0.00153910       0.00032481
C        1.25447443       2.03283138       3.97117862      -0.00779257       0.00529252       0.00178404
C       -0.06195415       4.21934758       4.20423694       0.00150565      -0.00473469       0.00289720
C       -1.24614376       6.38027958       3.81732256      -0.00030968       0.00172817      -0.00231916
C       -2.47347218       8.49441035       3.66376207      -0.00201330       0.00603207      -0.00332289
C        4.92061419      -0.04278487       3.49770650       0.00125083      -0.01007378      -0.00724454
C        3.65929088       2.01662924       3.32889837       0.01331426      -0.00335128       0.00718940
P        1.50421094       6.21843915       3.14650493       0.00440393      -0.01468435      -0.00338200
C       -0.01149627       8.52887135       3.63388927      -0.00029276       0.01481126       0.00451833
C        7.38020307       0.00908349       3.55102422      -0.00327175       0.00849871      -0.00058792
C        6.14735866       2.11625610       3.36751497      -0.00004866      -0.00684107       0.00024200
C        4.98008518       4.27913910       3.35130985       0.00316505      -0.00075371      -0.00194877
P        3.45807665       6.25814972       4.39954545       0.00603320      -0.00940836      -0.00252742
C        2.46494701       8.62658303       3.79534044       0.00375561       0.00586666      -0.00520089
C        9.86957659       0.01062320       3.72625574       0.00217615       0.00173156      -0.00031825
C        8.62391458       2.12402613       3.61817462      -0.00064443      -0.00675862       0.00347616
C        7.39811891       4.24603645       3.59502569       0.00419703       0.00278770      -0.00163752
C        6.16436874       6.36976548       3.84138245      -0.00351371       0.00514661      -0.00744288
C        4.92902407       8.54365136       3.91214144       0.00530750       0.00020162       0.00434931
C       -0.00379500       1.38574122       3.89580666      -0.00629142       0.00275872       0.01479037
C       -1.26332703       3.51631163       3.99074653       0.00857825       0.00092288       0.00592499
C       -2.47486665       5.66441196       3.80120997      -0.00385336      -0.00223660       0.00278614
C       -3.70988923       7.79036992       3.74788261      -0.00215343       0.00305158      -0.00463187
C       -4.94806668       9.91248241       3.76487051      -0.00336821      -0.00956741      -0.00703323
C        2.45759830       1.33082721       3.65566174       0.00158793       0.00346732       0.00406414
P        1.37737306       3.50615294       4.89864632      -0.01093059       0.00040791      -0.00415075
C       -0.02358860       5.64569636       3.99878488       0.00240754      -0.00918703      -0.00776788
C       -1.23727084       7.79225734       3.68052728      -0.00024144       0.00962876      -0.00657007
C       -2.47297340       9.91175481       3.58866395      -0.00202872       0.00137427       0.00156029
C        4.91526208       1.38578783       3.37169763       0.00763017      -0.01633188       0.00195116
S        3.49823466       3.61963071       2.73052059      -0.01202772       0.00742525      -0.00318490
C        1.24356559       7.87409510       3.73900407      -0.00425919       0.00603584      -0.00631447
C       -0.01193917       9.95329897       3.54674003       0.00251729       0.00950330       0.00149221
C        7.38038734       1.42392404       3.49100648      -0.00443674       0.00066544       0.00490088
C        6.16946031       3.53099565       3.39897300       0.00153462      -0.00246808      -0.00342348
C        4.96950124       5.60254301       3.81207994       0.00759866       0.00077767      -0.00829386
C        3.67476610       7.94547485       4.00954565       0.00543121      -0.00030744      -0.01328708
C        2.45591367      10.02089843       3.67280139      -0.00238387       0.00960526      -0.00007054
C        9.86409178       1.42051373       3.73356092       0.00209005       0.00134311       0.00499491
C        8.62805113       3.53808995       3.66930514       0.00551429      -0.00632783      -0.00120372
C        7.39766444       5.66252185       3.73081832      -0.00493974       0.00736776      -0.00032104
C        6.15661665       7.79565933       3.89343175      -0.00245797      -0.00296585       0.00490815
C        4.93005445       9.96854218       3.80605837       0.00348636      -0.00019487       0.00942127
Mn       1.18866944       6.31211729       5.81140405      -0.00465259      -0.00453804       0.00332284
O        3.17534264       6.00080218       5.91104990      -0.00531087       0.00006387      -0.00633673
