50
Lattice="12.336457 0.0 0.0 -6.168228499999997 10.683685154694365 0.0 0.0 0.0 15.0" Properties=species:S:1:pos:R:3:forces:R:3 energy=-430.0767278050115 free_energy=-430.0767278050115 stress="-0.004186802200293842 7.162148225558549e-05 -1.3304223055794894e-05 7.162148225558549e-05 -0.011067000271011209 6.098356309594524e-06 -1.3304223055794894e-05 6.098356309594524e-06 -2.220999539554903e-05" pbc="T T T"
C        0.00098105      -0.01339486       3.62672132       0.00221498      -0.00425107      -0.01202571
C       -1.22488554       2.14040558       3.48272413      -0.00352127      -0.00041509      -0.00428434
C       -2.47168050       4.27240589       3.58830236      -0.00112053       0.00139275       0.00118753
C       -3.70116160       6.40400530       3.67404960      -0.00028135      -0.00537486      -0.00409304
C       -4.94734710       8.52009239       3.64577731       0.00451597      -0.00952690      -0.00643111
C        2.46050014      -0.05746035       3.81700297       0.00312592      -0.01272772      -0.00355977
C        1.26143212       2.04098077       3.43177404       0.00228445      -0.00315659       0.00281302
C       -0.05567612       4.30665174       3.30080284      -0.00629480       0.00292251       0.00449527
C       -1.23860754       6.40235519       3.78794824      -0.00067718       0.00261430       0.00654091
C       -2.46311952       8.52061106       3.87315888      -0.00637342      -0.00394797       0.00173063
C        4.93255017      -0.01544483       3.97840882       0.00050765      -0.00248869       0.00263744
C        3.66948542       2.05848025       4.02258861      -0.00269375       0.01079449      -0.00635559
P        1.40489334       6.25989390       4.50674302       0.00968887      -0.00241324       0.01593846
C        0.00627689       8.55216139       3.99545747       0.00238010      -0.00221423       0.00047370
C        7.39936724       0.02881589       3.91079815      -0.00209579       0.00797998       0.00539849
C        6.16205068       2.14732934       3.95192631       0.00453302      -0.00332230       0.00199566
C        4.96835671       4.31112415       3.73387445      -0.00552540      -0.00481068       0.00244793
S        3.51770707       6.35540719       2.72635765      -0.00061406       0.00042397       0.00642598
C        2.47524885       8.61215732       3.76752004      -0.00392523       0.00824195       0.00280162
C        9.87883940       0.02774628       3.69500093      -0.00393615       0.00998585      -0.01069454
C        8.63740042       2.14815363       3.73667144       0.00182731       0.00796360      -0.00532407
C        7.40594965       4.27513378       3.69494348       0.00173535       0.00035808      -0.00154953
C        6.17265720       6.41044594       3.44105157       0.00431063       0.00113252      -0.00304116
C        4.92760344       8.55196209       3.50449454      -0.00018312       0.00126968       0.00076272
C        0.00696998       1.41529660       3.50847908       0.00001698      -0.00074568      -0.00005452
C       -1.23941051       3.55581754       3.42786887      -0.00514336      -0.00084869      -0.00406043
C       -2.47155454       5.69204155       3.68059982      -0.00071974      -0.00007749      -0.00118225
C       -3.70297764       7.81941873       3.73250599      -0.00044384      -0.00913946      -0.00528189
C       -4.94427028       9.94006339       3.69945739       0.00305965      -0.01169377      -0.01120170
C        2.45871710       1.35659676       3.78624766       0.00338161      -0.00800833       0.00020676
S        1.41804995       3.60198148       2.71492500      -0.00039386       0.00110639       0.00552153
C       -0.03398191       5.65682906       3.69542483       0.00386847       0.00587372       0.00153332
C       -1.22712822       7.81998272       3.93202574      -0.00538614       0.00426536       0.00354976
C       -2.46512851       9.93887124       3.91453434       0.00191749      -0.00773286       0.00410085
C        4.92830371       1.41535223       4.01480536      -0.00286105       0.00099275      -0.00123071
P        3.53428312       3.70384469       4.54977681      -0.01098514       0.00400305       0.01611828
C        1.26454547       7.90962156       3.99560753       0.00225649      -0.00941243      -0.00342515
C        0.00166866       9.98337479       3.97242867       0.00098875       0.00023969       0.00278876
C        7.39778697       1.44704060       3.88080532       0.00615742       0.00475496       0.00128962
C        6.17400468       3.56521398       3.81494887       0.00016580      -0.00096629       0.00575303
C        4.98830183       5.65807169       3.32706249       0.00481801      -0.00203547       0.00518356
C        3.67393413       7.92637239       3.42372506      -0.00264856       0.00381628       0.00536208
C        2.47352316      10.02591727       3.80652803      -0.00428335       0.01242292      -0.00222320
C        9.88170620       1.44755922       3.64508576      -0.00353884       0.00749917      -0.00631983
C        8.63551897       3.56335996       3.67812463       0.00156924       0.00454190      -0.00467038
C        7.40558347       5.69455090       3.59719548       0.00148962      -0.00095910       0.00195957
C        6.15937189       7.82645516       3.48532502       0.00338777       0.00029667      -0.00338162
C        4.93345319       9.98089421       3.62355169      -0.00276425       0.00413797      -0.01178341
Mn       2.43920192       4.97715703       6.12176417      -0.00032495      -0.00020573      -0.00808226
O        2.44322799       4.97628826       7.80803376       0.00653358      -0.00255585       0.01123973
