49
Lattice="12.336457 0.0 0.0 -6.168228499999997 10.683685154694365 0.0 0.0 0.0 15.0" Properties=species:S:1:pos:R:3:forces:R:3 energy=-435.36350882047424 free_energy=-435.36350882047424 stress="-0.0018251591675546236 -0.0021088932809867683 6.833060474381603e-06 -0.0021088932809867683 -0.0004816018169387866 2.3818824019786276e-06 6.833060474381603e-06 2.3818824019786276e-06 -1.8662393892947125e-07" pbc="T T T"
C       -0.00560509       0.00269999       3.59485100       0.01164444       0.00183429       0.00256600
C       -1.26374343       2.12718548       3.63169602      -0.00274064      -0.00081776       0.00145650
C       -2.48763942       4.27422509       3.73097597      -0.01160371      -0.00550785      -0.00538389
C       -3.69994740       6.41109239       3.71575564       0.00693923       0.01257499       0.00043675
C       -4.93074087       8.55546873       3.63576974       0.00137841      -0.00604727       0.00470896
C        2.45963341       0.03534120       3.64986133       0.00216032      -0.00604631       0.00703571
C        1.17721261       2.12146239       3.64445272       0.00098582      -0.00067740       0.01192239
C       -0.06020722       4.22717100       3.78547239      -0.00091299       0.00798656      -0.00177854
C       -1.21943381       6.38607407       3.81611441      -0.00568576      -0.00230369       0.00964410
C       -2.46569184       8.54566452       3.73005693       0.00255448      -0.00000231      -0.00807897
C        4.92032373       0.00517575       3.74274395       0.00210404      -0.00636311       0.00549596
C        3.70708309       2.13878277       3.68717271      -0.00044512       0.00378280      -0.00518905
B        1.32143048       6.34456942       4.10465731      -0.00805672       0.00076802       0.00132832
C       -0.00141746       8.53731111       3.84554147      -0.00408173      -0.00988358       0.00073305
C        7.38573088       0.00399402       3.75789406      -0.00121993       0.01611925       0.00206658
C        6.15444082       2.14334843       3.79862618       0.00400650       0.00456800       0.01051914
C        4.93889225       4.26900749       3.91341385      -0.00413781       0.00015974      -0.00697400
C        3.73329292       6.45041365       3.81082939       0.00149035      -0.00023403       0.00513993
C        2.45970996       8.56245317       3.80691384      -0.00905922      -0.00737489      -0.01085807
C        9.85533176       0.00037575       3.66103212      -0.00634176      -0.00147157      -0.00092016
C        8.61474964       2.13951123       3.72270658       0.00959171      -0.00067750      -0.00137039
C        7.38969071       4.28131540       3.79725214      -0.00245078      -0.00340559       0.01217206
C        6.16993420       6.41227043       3.69539257       0.00404676      -0.01225230      -0.00207834
C        4.93813193       8.55577298       3.64689598       0.00742777       0.00848143      -0.01425024
C       -0.02023241       1.42831200       3.59597506       0.00235463      -0.00107229       0.00710746
C       -1.26995030       3.53793946       3.70051217      -0.00238797       0.00302643      -0.01323268
C       -2.46813477       5.69328345       3.75126318      -0.00476052      -0.00012951       0.00865533
C       -3.69913954       7.83840922       3.68705151       0.00546537       0.00621208       0.00165947
C       -4.93279801       9.98999561       3.61688959       0.00769562      -0.01067235      -0.00046118
C        2.44678204       1.49278365       3.65223736      -0.00132168      -0.00178098      -0.00745286
O        1.10733547       3.50680311       3.65769213      -0.00018194       0.00538183       0.00512223
C        0.00224578       5.62629597       3.90000860       0.00138600       0.00801260      -0.01422329
C       -1.22991405       7.81878802       3.80843668      -0.00441808      -0.00598168      -0.00039949
C       -2.48015903       9.98493614       3.70602840       0.00216525      -0.00463138      -0.00710356
C        4.91229215       1.44087335       3.73691047      -0.00130940       0.00345074       0.01368811
O        3.79124165       3.54077318       3.48669439      -0.00291887       0.00830832      -0.00262440
C        1.24415014       7.84762575       3.92284207      -0.00639529      -0.00632613       0.00955084
C       -0.01299945       9.97225147       3.78677408       0.00339214      -0.00330996      -0.01157083
C        7.37793523       1.43077561       3.75616982       0.00956142       0.01532470       0.00309891
C        6.15833347       3.56085308       3.88489157      -0.00507339      -0.00076772       0.00478633
C        4.92701261       5.69285913       3.79726135      -0.00028087      -0.00669934      -0.00273676
C        3.69471297       7.84648707       3.73914731       0.00361377      -0.00132671      -0.01733938
C        2.45534735       9.98464045       3.73507498      -0.00998509       0.00073571      -0.00086272
C        9.85096921       1.42382632       3.66000184       0.00151551      -0.00161116      -0.00536261
C        8.61572065       3.56427222       3.74496090      -0.00582899      -0.00791313       0.00173042
C        7.39730431       5.70163589       3.72949326       0.00832877       0.00061319       0.00730015
C        6.17025250       7.84017473       3.63969846       0.00128212      -0.00468703       0.00611481
C        4.92774778       9.97384183       3.62174630       0.00353334       0.01413247      -0.00367925
Mo       2.82017571       4.90942597       4.71087979      -0.00302552      -0.00149864      -0.00010884
