50
Lattice="12.336457 0.0 0.0 -6.168228499999997 10.683685154694365 0.0 0.0 0.0 15.0" Properties=species:S:1:pos:R:3:forces:R:3 energy=-442.0327035319091 free_energy=-442.0327035319091 stress="-0.0023742277301870237 -0.0011917134620837637 3.6715963498011482e-06 -0.0011917134620837637 -0.0003952017211488379 6.208543726387004e-07 3.6715963498011482e-06 6.208543726387004e-07 -1.2427076380887099e-05" pbc="T T T"
C        0.00580780       0.02115880       3.68767513      -0.01240216      -0.00237547       0.00125872
C       -1.24677676       2.14492614       3.68348217       0.00596035      -0.00294631      -0.00550179
C       -2.47838298       4.29279175       3.69417822       0.01040963       0.00792250       0.00837286
C       -3.69500890       6.43269309       3.68192305       0.00035857      -0.00594366      -0.00167944
C       -4.92407959       8.57503178       3.67535437       0.00644252      -0.00820882      -0.00584429
C        2.47005657       0.05005784       3.69472688      -0.00277061       0.00394336       0.00131826
C        1.20240629       2.13535968       3.73878620       0.00355200       0.00210447      -0.00793027
C       -0.05752593       4.25710329       3.78920346      -0.00255020      -0.00232984      -0.00120371
C       -1.23101732       6.41547597       3.78195817      -0.00012866       0.00123742      -0.00354525
C       -2.46160337       8.56931363       3.71765482       0.00241798      -0.01149192       0.00023460
C        4.92937642       0.02817386       3.72021924       0.00676700       0.00217062       0.00340002
C        3.71975353       2.14908012       3.69375850       0.00253203       0.00832475       0.00865932
B        1.27024368       6.39878702       4.08845755      -0.00368435       0.00418029       0.00434965
C       -0.00254826       8.57019042       3.82287407      -0.00380296       0.00124817      -0.00560655
C        7.40031839       0.02166318       3.74329183       0.00354683      -0.00972368      -0.00381196
C        6.16769031       2.16009773       3.71143678      -0.00708990      -0.00313521      -0.00035010
C        4.96372652       4.29134589       3.79870539       0.00075237      -0.00341994      -0.00057809
C        3.74985459       6.43032997       3.94652714      -0.00293791      -0.00457493      -0.00226597
C        2.47493399       8.57469302       3.85649824       0.00325056       0.01283882      -0.00064566
C        9.86965216       0.01382428       3.71677940      -0.00474306       0.01242700      -0.00145602
C        8.63106937       2.15640613       3.68999655      -0.01084058      -0.00688503       0.00024364
C        7.39922572       4.29909008       3.70769557       0.00471528       0.00093550      -0.00634567
C        6.18446291       6.43216221       3.69296317       0.00284619       0.00323972       0.00070992
C        4.94451880       8.56381494       3.73908226      -0.00125352       0.00586618       0.00419248
C        0.00160153       1.45208827       3.69414258       0.00605210      -0.00318112      -0.00654495
C       -1.25435474       3.55840104       3.70455962       0.00334192      -0.00331611       0.00224619
C       -2.46699083       5.71349497       3.70898702       0.00261982       0.00651577       0.00851225
C       -3.69413350       7.85971139       3.68298025       0.00433552      -0.01352210       0.00714864
C       -4.92391018      10.00840048       3.68278156      -0.00796706      -0.00424079       0.00299694
C        2.46356055       1.50915878       3.71335258       0.00568020       0.01142673      -0.00850302
O        1.14871933       3.55148081       3.65123215      -0.01271226      -0.00673242      -0.00855267
C       -0.01390557       5.65377642       3.87585458      -0.00367490       0.00006676      -0.01471782
C       -1.23004386       7.84671042       3.78085511       0.00035582      -0.00566936      -0.00871658
C       -2.47079010      10.00684853       3.70867166       0.00397087      -0.00355754       0.00049505
C        4.92247504       1.46292612       3.69845417      -0.00361445       0.00350772       0.00507320
O        3.77572627       3.56392603       3.50550388       0.00412861      -0.00605956       0.01310330
C        1.24196613       7.88345531       3.91982570      -0.00031220       0.01390696      -0.00287508
C       -0.00452757       9.99775926       3.75996087       0.00480488      -0.00237131       0.00014076
C        7.39251108       1.44919501       3.70768312      -0.01252086      -0.01457539       0.00029721
C        6.16224927       3.58102347       3.74628191       0.00060077      -0.00011515      -0.00346383
C        4.94598957       5.70822155       3.79167108       0.00418026      -0.00326946       0.01245346
C        3.70605332       7.83740310       3.85098129       0.00038866       0.00247709       0.00310689
C        2.46990016       9.99585807       3.76635656       0.00595045       0.00937853       0.00026531
C        9.86848702       1.43952795       3.68642515      -0.00242576       0.00533490       0.00062045
C        8.62701482       3.58193954       3.68653701       0.00808461       0.00044002       0.00314593
C        7.40605460       5.71959306       3.68260436       0.00099785       0.00077820      -0.00361379
C        6.17908894       7.85774623       3.69157581       0.00306272       0.00349675       0.00435343
C        4.93926022       9.98546457       3.70911928      -0.01468026       0.00641972       0.00113420
Mo       2.57603695       4.82249016       4.67855647       0.00020238       0.00148150      -0.00966493
O        2.64337664       4.05780378       6.20741743      -0.00219710      -0.00402434       0.01558476
