49
Lattice="12.336457 0.0 0.0 -6.168228499999997 10.683685154694365 0.0 0.0 0.0 15.0" Properties=species:S:1:pos:R:3:forces:R:3 energy=-429.2664677177719 free_energy=-429.2664677177719 stress="-0.0021687379341291846 -0.0035902130229505617 -4.037879616904326e-06 -0.0035902130229505617 -0.00308382455030017 -3.723171345912598e-06 -4.037879616904326e-06 -3.723171345912598e-06 3.118711477220244e-06" pbc="T T T"
C       -0.01168658      -0.01152108       3.79772132      -0.00056681      -0.00476519      -0.00322749
C       -1.27404100       2.11038294       4.02487610       0.00107460      -0.00859228      -0.00027289
C       -2.51397369       4.25518382       3.95160564       0.00891029       0.00976650       0.00061670
C       -3.70132235       6.40075427       3.81569003      -0.00474158       0.00120007      -0.00517165
C       -4.92626896       8.54302039       3.74063129      -0.00190119      -0.00388256       0.00223975
C        2.46711635      -0.03326779       3.70451393      -0.01054831       0.00130939      -0.00354187
C        1.23492097       2.04922923       4.12607284       0.00209044       0.01020216       0.01175593
C       -0.12669037       4.27328009       4.42205435      -0.01688709       0.00314566      -0.00501775
C       -1.24705450       6.39377451       3.94754160       0.00714684      -0.00092633      -0.00390207
C       -2.45474269       8.52379281       3.72255562       0.00037394      -0.00448638      -0.00387061
C        4.92529974      -0.01601029       3.53691671       0.00215447       0.00089314      -0.00330903
C        3.63638439       2.07685693       3.36988167       0.00420680       0.00539118       0.00687799
B        1.28672488       6.35958097       4.08195204       0.00450948      -0.01149418       0.00140617
C        0.01361133       8.51901411       3.69288667      -0.00108193      -0.00287194       0.00158527
C        7.38840664      -0.00879639       3.54517913       0.00349722      -0.00048781       0.00822422
C        6.13103089       2.14957544       3.45384790       0.00405990       0.00307434      -0.00738848
C        4.93286697       4.36570715       3.38985233       0.00129883       0.00396321       0.00478784
O        3.81545028       6.49228330       3.16995867      -0.00232804      -0.00507024      -0.00199054
C        2.48468562       8.52473231       3.56782456       0.00064521       0.00532498       0.00278153
C        9.85323950      -0.00648020       3.66507098       0.00505893       0.00919708      -0.00326381
C        8.60272211       2.12944054       3.70707992      -0.00624254      -0.00202850      -0.00115351
C        7.36829232       4.27336370       3.69097221      -0.00258210      -0.01010974       0.00248678
C        6.19435145       6.44575825       3.76388593      -0.00024207      -0.00025997      -0.00074492
C        4.94588686       8.55248692       3.60703368      -0.00167668       0.00315914       0.00348892
C       -0.02114539       1.40191750       3.99873019       0.00364186      -0.00598842      -0.00167354
C       -1.30204674       3.52835184       4.15358923       0.00243418      -0.00107673       0.00697317
C       -2.48481073       5.68165859       3.90743682       0.00635340       0.01141002      -0.00875946
C       -3.69048686       7.82307915       3.76674540      -0.00224280      -0.00195281      -0.00240607
C       -4.93807165       9.96064089       3.75046872      -0.00582904      -0.00785808      -0.00519583
C        2.44846764       1.39052877       3.73854234      -0.00403983       0.01054039       0.00998257
P        1.31273555       3.51386825       5.12159727       0.00474602      -0.00626296       0.00082391
C       -0.04997871       5.66181203       4.17469757      -0.00223134      -0.00206521      -0.00042678
C       -1.22120925       7.80833138       3.78238441      -0.00001676      -0.00558022      -0.00396433
C       -2.46497811       9.94636449       3.63371418      -0.00377139       0.00119296       0.00496660
C        4.89632343       1.42338828       3.41887402       0.00692390       0.00456439      -0.00245461
S        3.45630304       3.71462943       2.70734186      -0.00909067      -0.01412260       0.00302510
C        1.26143533       7.81954128       3.74214222       0.00204950      -0.00081181       0.00077281
C       -0.00639598       9.95363082       3.56695202       0.00242356      -0.00075652       0.00591685
C        7.36775305       1.42722846       3.55223303      -0.00428626      -0.00342775       0.00188851
C        6.13621844       3.57588927       3.50208954      -0.00334246      -0.00041942      -0.00312984
C        4.97398618       5.77385906       3.61293943       0.00531332       0.00067819      -0.01283733
C        3.73410070       7.86255202       3.49901416      -0.00009080      -0.00109257      -0.00191789
C        2.46412103       9.96179740       3.56596492       0.00783307       0.00978411       0.00355609
C        9.84183108       1.41604099       3.79675201      -0.00232752       0.00359524      -0.01049104
C        8.59833857       3.55069697       3.78196590       0.00607890      -0.00262204       0.00361894
C        7.39896725       5.69646505       3.77263608      -0.00495794      -0.00637590       0.00086558
C        6.18451044       7.85231682       3.71176916      -0.00220278       0.00304744       0.00778873
C        4.92431316       9.97304266       3.68624104      -0.00097068       0.00505850       0.00311219
Mo       3.03190172       5.09877582       4.51429293       0.00137396       0.00889009      -0.00343083
