50
Lattice="12.336457 0.0 0.0 -6.168228499999997 10.683685154694365 0.0 0.0 0.0 15.0" Properties=species:S:1:pos:R:3:forces:R:3 energy=-437.2783807365979 free_energy=-437.2783807365979 stress="-0.003684375937902409 0.0029023478782585566 1.6660511059575178e-06 0.0029023478782585566 -0.005567464461981463 -1.3822389157856167e-05 1.6660511059575178e-06 -1.3822389157856167e-05 -4.772986555798312e-06" pbc="T T T"
C        0.00558192      -0.03276042       3.68237994       0.00868309      -0.00137608      -0.01161547
C       -1.20391528       2.13210481       3.80180616      -0.00139406      -0.00488248      -0.00345997
C       -2.43327008       4.25910048       3.83606853      -0.00599279       0.00098628       0.00668452
C       -3.68868796       6.38453240       3.73915918       0.00117803       0.01094590      -0.00261427
C       -4.94271360       8.50758463       3.60474132       0.00167235      -0.00508858       0.01508051
C        2.47137102      -0.05838852       3.76822909      -0.00183712      -0.00112517      -0.00212101
C        1.26362216       2.06983534       3.84507772       0.00338262       0.00025404       0.00545285
C        0.04534450       4.32337319       3.89227293      -0.00662371      -0.00401273       0.01028394
C       -1.24667452       6.41665908       3.88291617      -0.00506741       0.00068235      -0.00756301
C       -2.46820340       8.52003683       3.77872437       0.00012833       0.00735843      -0.00371142
C        4.94181508      -0.02320191       3.85766569      -0.00967221       0.00368046       0.01018806
C        3.70391617       2.07257028       3.94187554      -0.00095658       0.00407818       0.00329746
O        1.09245690       6.47634106       3.45154383       0.01458058      -0.01147698      -0.00501128
C       -0.00747589       8.53961665       3.81182136       0.00354468       0.00075174      -0.01150162
C        7.41510387      -0.01617998       3.82765559       0.00650179       0.00060425       0.00082705
C        6.19277327       2.11094458       3.89928999       0.00239060      -0.00370697       0.00701792
C        4.96985107       4.25101831       3.77550275      -0.00402477      -0.00351602       0.00727023
S        3.59557377       6.24484284       2.71321525      -0.00298453      -0.00416160      -0.00210318
C        2.44776129       8.52378605       3.60942639      -0.00839014      -0.00580156      -0.01397659
C        9.88195007      -0.01590248       3.71340360      -0.00097151       0.00499234       0.00368052
C        8.66294099       2.11947955       3.83664502       0.00330640      -0.00117637       0.00454378
C        7.43453913       4.24661748       3.79192928       0.00865531      -0.00551519      -0.00941150
C        6.20580848       6.38030315       3.48785150       0.00531431      -0.00757937       0.00482625
C        4.92684756       8.51434324       3.46724238      -0.00200604       0.01270928       0.00273911
C        0.01676408       1.39684927       3.77065606       0.00477466      -0.00367069       0.00374448
C       -1.18780719       3.56379208       3.84490841      -0.00951505      -0.00439139      -0.00252586
C       -2.45965674       5.67685044       3.83460212      -0.01025419       0.00408428       0.00792705
C       -3.70307574       7.80440292       3.70081665       0.00501759       0.00824431      -0.00045109
C       -4.93533604       9.93044163       3.67359325       0.00426240      -0.00669343      -0.00020727
C        2.48191765       1.35542670       3.85171105       0.00341128      -0.00083192       0.00485344
B        1.36220383       3.56760432       3.99240696      -0.00035956       0.00328007      -0.00312693
C       -0.03712421       5.72965309       3.87762925      -0.00323620      -0.00437033       0.00001634
C       -1.24492743       7.82856474       3.83330436      -0.00123265       0.00613930       0.00371960
C       -2.46055500       9.93956609       3.79796960      -0.00630391       0.00255727      -0.00621313
C        4.95084816       1.40013368       3.90904470      -0.00296875       0.00295967       0.00071189
B        3.62517594       3.58191260       4.04925576      -0.01693275       0.00530085       0.00698695
C        1.19894523       7.86561295       3.69665631      -0.00113886      -0.01575921      -0.00301774
C        0.00756240       9.96327728       3.84066586      -0.00270689       0.00888182      -0.00907477
C        7.42419322       1.40815403       3.86295989       0.00666212      -0.00045413       0.00721200
C        6.20402331       3.52783208       3.84385808       0.00073296      -0.00211767       0.00898902
C        5.03611088       5.60607387       3.40053494       0.00096122      -0.00502395      -0.00418602
C        3.67569283       7.85630628       3.36442053      -0.00268753       0.00897935      -0.00169624
C        2.47279758       9.96052494       3.73108860       0.00321325      -0.00513125       0.00240363
C        9.89679450       1.41461842       3.78996410      -0.00165731       0.00107044      -0.00752931
C        8.66892897       3.54238020       3.83124263       0.00397410      -0.00486482      -0.00613870
C        7.42983302       5.66519413       3.68028814       0.01187243      -0.00439770      -0.00409272
C        6.16579253       7.79943055       3.47514114      -0.00041710      -0.00221525       0.00396397
C        4.93904165       9.94640659       3.62174181       0.00179565       0.01346984      -0.00049876
Mo       2.31704802       5.30654861       4.60988035       0.00028076      -0.00037468      -0.01614724
O        1.98081633       5.86282737       6.20059222       0.00303512       0.00770506       0.00557451
