50
Lattice="12.336457 0.0 0.0 -6.168228499999997 10.683685154694365 0.0 0.0 0.0 15.0" Properties=species:S:1:pos:R:3:forces:R:3 energy=-441.80124653191956 free_energy=-441.80124653191956 stress="-0.0015405941273384212 0.004437628767642267 -1.2360626693314893e-05 0.004437628767642267 0.001564465955016734 -4.861483852412822e-06 -1.2360626693314893e-05 -4.861483852412822e-06 -6.224431542419305e-06" pbc="T T T"
C       -0.01522779       0.04179841       3.70312512       0.00093702      -0.00355067      -0.00009054
C       -1.23203864       2.17956387       3.70566005       0.00168039      -0.00684071       0.00519535
C       -2.46291284       4.30482978       3.68777760       0.00360561      -0.00180012      -0.00302910
C       -3.72704712       6.43267653       3.67747664      -0.00046655       0.00992167       0.00070896
C       -4.97293885       8.57267391       3.68674583       0.00281776       0.01149493       0.00097861
C        2.44579288       0.05264474       3.68118661       0.00236141      -0.01249974       0.00721253
C        1.23642116       2.23519565       3.83476716      -0.00138797       0.00421423      -0.01141124
C        0.01825029       4.34649215       3.83435662      -0.00760887       0.00376190       0.00827687
C       -1.26338711       6.45413743       3.68807687      -0.00025733       0.00416796       0.00416674
C       -2.50313832       8.57874855       3.64827032       0.00329835      -0.00752018      -0.00595033
C        4.91553328       0.01935562       3.65929491      -0.00566965      -0.00192339      -0.00470537
C        3.72469753       2.13501812       3.69147093       0.00124765      -0.01407317      -0.00310696
O        1.12442443       6.49472796       3.67181001      -0.00724539      -0.00123170       0.01065972
C       -0.03821943       8.56869764       3.66341976      -0.00565730       0.00232593      -0.00161851
C        7.39033899       0.00773204       3.66240515      -0.00159497      -0.00866371       0.00061257
C        6.18288983       2.13515374       3.72946733       0.00672356       0.00544143      -0.00590673
C        4.98305454       4.22917446       3.92671781      -0.00012834      -0.01208846       0.00666852
B        3.68237853       6.39457509       4.15632415       0.00127581       0.00222844      -0.00252645
C        2.41161798       8.54562930       3.74640294      -0.00200326      -0.00085407       0.00331311
C        9.85223715       0.01693846       3.68974224       0.00371122       0.01063052      -0.01131189
C        8.64029629       2.15515232       3.68132866      -0.00859198      -0.00374669      -0.00111915
C        7.41323326       4.28754365       3.75138575       0.00393595       0.00195334      -0.00152932
C        6.14133551       6.41027033       3.76401878      -0.00181702       0.00251791      -0.00084649
C        4.89506501       8.56061456       3.76589627       0.00038860       0.00567165       0.00888026
C        0.00065418       1.47579042       3.73245718       0.00280300      -0.00538158      -0.00566690
C       -1.22861307       3.60975448       3.71849481       0.00191000      -0.00724501       0.00953557
C       -2.48783839       5.72521442       3.68221156       0.00081983       0.00460964      -0.00280696
C       -3.73989788       7.86176984       3.66427073      -0.00009994       0.00887437      -0.00352697
C       -4.95703343      10.00837685       3.68762691       0.00142702       0.00247985       0.01167023
C        2.46827020       1.49357084       3.73903946      -0.00163749      -0.00862077      -0.00403656
C        1.21693219       3.63031769       4.02503358      -0.00405119       0.01007182      -0.00442534
C       -0.04702341       5.77141906       3.76422155      -0.00553848       0.00185225      -0.00033604
C       -1.27672387       7.87221788       3.65596783       0.00150332      -0.00050639      -0.00005153
C       -2.49860779      10.01259254       3.65422755       0.00040654      -0.01238816      -0.00176926
C        4.93765307       1.43892285       3.68436981       0.00556541      -0.00004017       0.00249263
O        3.81331277       3.53503254       3.49860903       0.00288813       0.00291526      -0.01249773
C        1.16451989       7.86234163       3.71163340      -0.00708800       0.00034476       0.00113421
C       -0.01560189       9.99133929       3.65757943      -0.00770669      -0.00051338      -0.00492895
C        7.40403377       1.43586219       3.68017094      -0.00334528      -0.00822685       0.00412783
C        6.19923460       3.54426003       3.83599846       0.00422706       0.00152300      -0.00206593
C        4.92972339       5.64815046       3.89952084       0.00170721      -0.01045921      -0.00347211
C        3.64862119       7.85456238       3.86165256      -0.00048004       0.00048316       0.00163995
C        2.44121483       9.97507401       3.68596119       0.00612644       0.00155057      -0.00014793
C        9.86773207       1.44640607       3.67923156      -0.00354329       0.00697070      -0.00104404
C        8.64262021       3.58058984       3.69521138       0.00066980      -0.00394845       0.00428740
C        7.38420555       5.71081444       3.72143255       0.00128141       0.00400807       0.00315897
C        6.12869216       7.84266749       3.74067455       0.00314550       0.01005617       0.00468123
C        4.91687412       9.99677606       3.70952863       0.00001257       0.00462177      -0.00295220
Mo       2.92912728       4.56964266       5.01058870       0.00041615       0.00877092      -0.00101093
O        3.19701739       3.70727725       6.45763824       0.00902631      -0.00133963       0.00449018
