49
Lattice="12.336457 0.0 0.0 -6.168228499999997 10.683685154694365 0.0 0.0 0.0 15.0" Properties=species:S:1:pos:R:3:forces:R:3 energy=-430.3218074142038 free_energy=-430.3218074142038 stress="-0.003674424906616831 -0.0010819552443985438 7.2897002240218855e-06 -0.0010819552443985438 -0.0009156416014373054 -8.616191603822792e-06 7.2897002240218855e-06 -8.616191603822792e-06 -3.6163349742527225e-06" pbc="T T T"
C       -0.00762429       0.00100005       3.75614552      -0.00129325      -0.00010442       0.00718069
C       -1.25477286       2.13586634       3.74229951      -0.00015907       0.00788247      -0.00372481
C       -2.51088884       4.26959634       4.02157950       0.00095763       0.00122282      -0.00304619
C       -3.72738692       6.41204643       4.10024056      -0.00391899       0.00030352       0.00645175
C       -4.94449120       8.55515581       3.95487797      -0.00865514       0.00340877       0.00787545
C        2.46186684      -0.01563001       3.67944131       0.00560289      -0.00896419      -0.00056487
C        1.21392050       2.06615346       3.34041118      -0.00356227       0.00510458      -0.01080211
C       -0.12398309       4.32590063       3.68786023       0.00181333      -0.00422062      -0.00274790
C       -1.28095434       6.42165921       4.06990302      -0.00332256      -0.00493990       0.00390627
C       -2.48300273       8.54950910       3.97132490       0.00672759       0.00409832       0.00868377
C        4.92967822      -0.02053617       3.71916610       0.00097012       0.00152878      -0.00257418
C        3.70962839       2.04590820       3.16411452      -0.00157558      -0.00370671       0.00886057
C        1.20320917       6.37227986       3.93728760       0.00711449       0.00046225      -0.00258532
C       -0.00208492       8.52221020       3.91867650       0.00569616       0.00042211      -0.00432878
C        7.39625796      -0.02448575       3.80137152      -0.00888236      -0.00406427      -0.00564832
C        6.15308228       2.13641513       3.65942171       0.00085527       0.00332732      -0.00250511
C        4.97621916       4.34778339       3.49869534      -0.00831558      -0.00204352       0.00147114
O        3.83553854       6.50135767       3.29248478       0.01585012       0.01161582       0.00047808
C        2.48335644       8.49946161       3.77795943       0.00424331      -0.00007176      -0.00118438
C        9.85406521      -0.01512154       3.79698258       0.00129172      -0.00401547       0.00144697
C        8.61226316       2.12837002       3.87765589      -0.00070039       0.01001722      -0.00344812
C        7.36849838       4.26968507       3.97798021       0.00161099       0.00565547       0.00030142
C        6.16232913       6.43636245       4.02002077      -0.00112025       0.00192689       0.01576054
C        4.93690911       8.55037174       3.81276447      -0.00474852      -0.00804909      -0.00324136
C       -0.01397635       1.42845334       3.62455149      -0.00100938       0.00616566      -0.00713007
C       -1.28349453       3.55529787       3.84373221      -0.00170545       0.00521349      -0.00124158
C       -2.49973957       5.69642192       4.09308272      -0.00529731      -0.00577436      -0.00797531
C       -3.71368662       7.83869496       4.03315628      -0.00242489       0.00667575      -0.00095345
C       -4.94036969       9.97661700       3.80474008       0.00036390       0.00283015       0.00262073
C        2.46248675       1.39450960       3.37008379       0.00083260      -0.01156412       0.00614795
S        1.17114811       3.69175601       2.75665363       0.00046268      -0.01518093      -0.00378034
C       -0.03916206       5.71583531       3.94123154       0.00341030      -0.00526911       0.00909809
C       -1.25014739       7.83824361       4.01589790       0.00755425      -0.00258804      -0.00368525
C       -2.47555342       9.96199003       3.79438317       0.00687019       0.00022504       0.00039279
C        4.92709214       1.40493726       3.50908735       0.00130310      -0.00556967      -0.00069316
S        3.83813645       3.60665230       2.33656310       0.00368189       0.00070364       0.00165346
C        1.24212849       7.76011297       3.88909687       0.00715484       0.00499317      -0.00460255
C       -0.00325395       9.94335838       3.82003748      -0.00754988      -0.00169470      -0.00457101
C        7.37950946       1.41234875       3.79371174      -0.00186907       0.00292505      -0.00870099
C        6.15997010       3.55812465       3.74394817      -0.00037636       0.00806826      -0.00496088
C        4.96708929       5.76031823       3.74970315      -0.00039572       0.00384262       0.01161040
C        3.73002576       7.86170852       3.67512135      -0.00003317      -0.00230016       0.00669344
C        2.46397115       9.93688384       3.80337216      -0.00415743      -0.00392086      -0.01016344
C        9.85563675       1.42035166       3.82211527       0.00023001       0.00425682      -0.00850818
C        8.60257690       3.55063884       3.98666115       0.00071006       0.00970902      -0.00083307
C        7.37964193       5.69659369       4.06828948      -0.00107582       0.00103254       0.00070590
C        6.16884712       7.85324448       3.95141380      -0.00761465      -0.00150321       0.00701387
C        4.92336959       9.97413411       3.80284034       0.00196537      -0.01300342      -0.00220050
Mo       2.86351360       4.87000252       4.14658022      -0.00750970      -0.00506906       0.00804795
