52
Lattice="12.336457 0.0 0.0 -6.168228499999997 10.683685154694365 0.0 0.0 0.0 15.0" Properties=species:S:1:pos:R:3:forces:R:3 energy=-444.56326466521614 free_energy=-444.56326466521614 stress="-0.0057010780190671975 -0.001099378086357836 -2.6680654291764437e-05 -0.001099378086357836 -0.0015113133304279277 1.3993976300684448e-05 -2.6680654291764437e-05 1.3993976300684448e-05 8.602924791914358e-06" pbc="T T T"
C       -0.03034190      -0.09759453       3.77009239      -0.00283714       0.00311420       0.00803916
C       -1.27964091       2.03439994       3.73556467       0.00346925       0.00169127       0.00230020
C       -2.53298671       4.17070373       4.02254879       0.00235895      -0.00497239      -0.00566739
C       -3.74471087       6.31656842       4.11936426       0.00117540      -0.00240160      -0.00418855
C       -4.96430239       8.46092383       3.97504987       0.00133310       0.00048012       0.00672230
C        2.44005855      -0.11114960       3.70215754       0.00804130      -0.00349318       0.00791940
C        1.18899854       1.96393662       3.33191647      -0.00502313       0.01204802       0.00908066
C       -0.15735134       4.22691226       3.63354060      -0.00232241      -0.00674797       0.00830875
C       -1.31191782       6.32446571       4.04600405       0.00271943       0.00727518       0.00026475
C       -2.50584002       8.45462613       3.98728080      -0.00384700       0.00329352       0.00338986
C        4.90744677      -0.11578014       3.76581753       0.00479675       0.00189631      -0.00346793
C        3.69321829       1.95611843       3.23390409      -0.00407928      -0.00441308      -0.00366012
C        1.15859342       6.27687709       3.94613076      -0.00330649      -0.00666616       0.00648624
C       -0.02744783       8.42574955       3.93552381      -0.00704392       0.00483464      -0.00521132
C        7.37476944      -0.12333887       3.85203970      -0.00687713       0.00114681       0.00310191
C        6.13334788       2.03812786       3.74003755       0.00084687      -0.00563756       0.00062630
C        4.94699809       4.23922080       3.65312871      -0.00206949       0.00879915       0.00727732
O        3.80165051       6.37436378       3.50419580       0.00002769      -0.00801912       0.00046437
C        2.46133164       8.39955674       3.84062561       0.00369980      -0.00020094      -0.00188457
C        9.83315943      -0.11668649       3.83879042      -0.00368366       0.00954331      -0.00309195
C        8.59235548       2.02790928       3.92136120       0.00352442      -0.00484053      -0.00428910
C        7.35184056       4.17096934       4.03964498      -0.00474605      -0.00295345       0.00464837
C        6.15963638       6.34262499       4.05723915      -0.00540956       0.00264651      -0.00406277
C        4.91643574       8.45015550       3.86540851       0.00563842      -0.00231715       0.00283911
C       -0.03985278       1.32709822       3.61783646      -0.00322149       0.00477457      -0.00157565
C       -1.31109242       3.45536649       3.81651214      -0.00168391      -0.00475933      -0.00663047
C       -2.52474306       5.59687499       4.08981266       0.00685861      -0.00038187      -0.00598982
C       -3.73446549       7.74372870       4.05032763      -0.00138934      -0.00068575       0.00017248
C       -4.96209033       9.88100124       3.82254225       0.00281995       0.00005178       0.00385151
C        2.44242807       1.29697963       3.39695455      -0.00616152      -0.00209158      -0.00288409
S        1.14505087       3.57942333       2.71101740       0.00379345       0.00702313       0.00822611
C       -0.07950487       5.61796406       3.90235185      -0.00488948      -0.00702968       0.00283462
C       -1.27576874       7.74116147       4.01773006      -0.00585243       0.00941143      -0.00076205
C       -2.49819765       9.86752877       3.82403408       0.01059883      -0.00087703       0.00203668
C        4.90691258       1.31117138       3.57951016      -0.00040397      -0.00327562      -0.00247222
S        3.82736308       3.53538595       2.44607704       0.00628519       0.00311296      -0.00447900
C        1.21144552       7.66323262       3.91581520      -0.00424240      -0.00426029       0.00702467
C       -0.02620474       9.84839857       3.86006104      -0.00440609       0.00283998       0.00071137
C        7.35974849       1.31340241       3.85368115       0.00125776      -0.00485854      -0.00268317
C        6.13843082       3.45652559       3.84707535      -0.00028569      -0.00259145      -0.00751873
C        4.97191442       5.65604804       3.84946918      -0.00279903       0.00176524       0.00103703
C        3.70882495       7.76149861       3.76628533       0.00670210      -0.00336836      -0.00849508
C        2.44147812       9.83660912       3.85476279      -0.00469543       0.00660867       0.00206347
C        9.83421162       1.31898271       3.84704077       0.00483121       0.00711623      -0.00837446
C        8.58299128       3.45089387       4.02498857       0.00027039      -0.00500990      -0.01363714
C        7.36951677       5.59870999       4.10631634      -0.00675823       0.00175942       0.00179922
C        6.15280177       7.75909870       3.98248957       0.00345522      -0.00112882       0.00625633
C        4.90351719       9.87402352       3.83653622      -0.00500633       0.00110791      -0.00225874
Mo       2.75388076       4.77722257       4.31104608      -0.00359871      -0.00742782      -0.00027830
O        2.73371539       5.84004110       6.17990610       0.00648866       0.00292512      -0.00194016
O        3.99663036       6.52918910       6.39791319       0.00544015       0.00318155      -0.00550531
H        3.79690031       6.96293190       7.25177153       0.01020641      -0.00803787       0.00352586
