50
Lattice="12.336457 0.0 0.0 -6.168228499999997 10.683685154694365 0.0 0.0 0.0 15.0" Properties=species:S:1:pos:R:3:forces:R:3 energy=-436.3908419879767 free_energy=-436.3908419879767 stress="-0.005409748627857016 -0.0007527445100226536 4.377997853588953e-06 -0.0007527445100226536 -0.0014173911015731148 4.759058847099995e-06 4.377997853588953e-06 4.759058847099995e-06 -7.05212461775912e-07" pbc="T T T"
C       -0.01315507      -0.01679598       3.72901108      -0.01397328      -0.00243669       0.00550951
C       -1.25957195       2.11845370       3.70868273      -0.01072016      -0.00177716      -0.00766894
C       -2.51918554       4.25269036       3.98667055       0.00384513       0.00451055       0.00203461
C       -3.73154729       6.39696791       4.08133312       0.00125650       0.00779461       0.00982987
C       -4.94972294       8.54198137       3.94789308       0.00257714      -0.00417862      -0.01329999
C        2.45794465      -0.03250196       3.66288326       0.00410833      -0.00693158      -0.00800810
C        1.21344303       2.04611009       3.33352193       0.00360835      -0.00694918      -0.00963711
C       -0.13403030       4.31248680       3.69921046      -0.00871605       0.00828196       0.00207158
C       -1.29588439       6.40918970       4.04962017      -0.01191553      -0.00196112       0.01110685
C       -2.48975830       8.53551450       3.95567729      -0.00492156       0.00282197      -0.00124871
C        4.92342348      -0.03528313       3.70335056       0.00730367      -0.00192800      -0.00017409
C        3.70914273       2.03379924       3.15866826      -0.00627114       0.00818402       0.00451897
C        1.18092212       6.36406170       3.94983090       0.01567624      -0.00073492       0.01074191
C       -0.01146696       8.51073886       3.90428613      -0.00657664      -0.00645714      -0.00842104
C        7.39106973      -0.04198388       3.77916709       0.01592605      -0.00191552      -0.00045197
C        6.15003426       2.11898166       3.66086131      -0.00200257      -0.00679892      -0.00787386
C        4.95724648       4.32364383       3.59305572      -0.00985015      -0.00306718       0.00199650
O        3.83596401       6.45888249       3.32044697       0.00323595       0.01006451      -0.00207989
C        2.47874578       8.47844623       3.77310991       0.00096202       0.00471350      -0.00438201
C        9.84911073      -0.03377509       3.76976443      -0.00528334      -0.00065413      -0.00775808
C        8.60880704       2.11000921       3.84714437       0.00276183       0.00704218       0.00120482
C        7.36532415       4.25125630       3.97406694       0.00868424       0.00285062       0.00883264
C        6.16964621       6.42357562       4.02006241       0.00084175      -0.00495266      -0.01841219
C        4.93025544       8.53136176       3.80585600       0.00088031      -0.00627443       0.00003406
C       -0.02028691       1.40957072       3.59295675      -0.00393361       0.00188641       0.01186438
C       -1.29407428       3.53700083       3.81576440      -0.00775703      -0.00016094      -0.00863775
C       -2.50884977       5.67931556       4.06241547      -0.00755500       0.00015894       0.01554733
C       -3.71954034       7.82445333       4.01939042       0.00184070       0.00376071       0.00424129
C       -4.94559081       9.96197547       3.78958325      -0.00482594      -0.00242230      -0.00915165
C        2.46310793       1.37330034       3.35543774       0.00385448      -0.00369917       0.00295472
S        1.20997792       3.69639647       2.83668629      -0.00000520       0.00109779       0.00426942
C       -0.05828819       5.70208850       3.94563663       0.00058653       0.00712578       0.00907024
C       -1.25872452       7.82522739       3.99780793      -0.01538709      -0.00439198       0.00230954
C       -2.48056042       9.94692197       3.77912614       0.00622091      -0.00094043      -0.00006402
C        4.92328778       1.39026048       3.49984390      -0.00922715      -0.00270072      -0.00199746
S        3.81924618       3.64136765       2.40212966       0.01326113       0.00385276       0.00923533
C        1.23089764       7.75086340       3.88735750       0.00284442       0.00264308      -0.00149274
C       -0.01055473       9.93046636       3.80286551       0.01254894      -0.00335122      -0.00794726
C        7.37653324       1.39440092       3.77270805       0.00789199      -0.00166217       0.00783272
C        6.15426902       3.53618819       3.77583668       0.00351328      -0.00423013      -0.00276893
C        4.98924868       5.73873741       3.75829910      -0.00257099       0.00189545      -0.00582580
C        3.72478628       7.84077132       3.68011353       0.00003080       0.00674904       0.00558097
C        2.45849692       9.91855202       3.78317569       0.00770781      -0.00101664      -0.00956122
C        9.85167424       1.40241905       3.78642202      -0.00838028      -0.00139359      -0.00278951
C        8.59713651       3.53216567       3.95791183       0.01088906       0.00720269       0.00565940
C        7.38124421       5.67905729       4.06253032       0.00643991       0.00581369      -0.00247170
C        6.16538877       7.84025932       3.94875666       0.00400580      -0.00645112      -0.00665781
C        4.91819171       9.95574225       3.77887442      -0.01356150      -0.00731675       0.01131672
Mo       2.84439427       4.96843545       4.33780482      -0.00148491       0.00026324      -0.00448710
O        3.11273851       5.51480293       5.95769041       0.00161586      -0.00195911       0.00550557
