50
Lattice="12.336457 0.0 0.0 -6.168228499999997 10.683685154694365 0.0 0.0 0.0 15.0" Properties=species:S:1:pos:R:3:forces:R:3 energy=-441.9576344572319 free_energy=-441.9576344572319 stress="-0.0026816206985807653 0.001943093393314798 6.943523863391695e-06 0.001943093393314798 0.0044546452474309535 6.019544287426376e-06 6.943523863391695e-06 6.019544287426376e-06 4.8226912737181675e-06" pbc="T T T"
C        0.02358827       0.02086247       3.78067179      -0.00694531      -0.00145555       0.00730366
C       -1.21434015       2.14008997       3.64247649       0.00385145      -0.00193976      -0.00450492
C       -2.47932337       4.27368449       3.64572316      -0.00018023       0.00952250      -0.00122214
C       -3.71596280       6.41603258       3.72469662      -0.00043713      -0.00558021      -0.00279899
C       -4.93168585       8.55370470       3.79978709       0.00424109       0.01224815       0.00410754
C        2.49291310       0.02226853       3.78557862      -0.00156846      -0.00288757       0.00180261
C        1.28585727       2.17230531       3.62145423       0.00344203      -0.00677731       0.00147496
C       -0.05168099       4.32116302       3.36812077      -0.00506182       0.00289981       0.01333070
C       -1.28224653       6.44891541       3.56072545       0.00682547       0.00122744      -0.00505918
C       -2.46514371       8.56516338       3.73270922       0.01050071      -0.00700050      -0.00374471
C        4.96380640      -0.00387994       3.78384435      -0.00482243       0.00091107      -0.00022008
C        3.76077742       2.16609409       3.83826531       0.00517000      -0.00953613       0.00554655
N        1.14466445       6.37134495       3.68582625       0.00623889      -0.00075083      -0.01085790
C        0.02318467       8.51645570       3.73029528       0.00171752      -0.00792045       0.00176073
C        7.43643241      -0.03991843       3.79895960      -0.00410196      -0.00458912      -0.00536511
C        6.20148922       2.12729663       3.81620060      -0.00216359       0.01197966       0.00234327
C        4.94124068       4.26941333       3.93362260      -0.00349710      -0.00491926       0.00678921
O        3.80582560       6.43491469       4.00643487      -0.00182613      -0.00117827      -0.01893212
C        2.49894287       8.45358558       3.84409112      -0.00483565      -0.00037986      -0.00991320
C        9.88450263      -0.02957069       3.79248678       0.00825313       0.00089052       0.00020008
C        8.65591490       2.12067538       3.75121377       0.00266584       0.00428760       0.00203801
C        7.40062120       4.26687814       3.78467546      -0.00124308      -0.00204040       0.00601857
C        6.17022604       6.40611157       3.85876698      -0.00244222       0.00295275      -0.00007334
C        4.95126587       8.53543797       3.85769872      -0.00992745      -0.00342048       0.00584162
C        0.02959252       1.45360666       3.69539016       0.00258713      -0.00642366      -0.00530620
C       -1.24921739       3.55948747       3.56246378      -0.00539008       0.00139666       0.00313708
C       -2.49314423       5.70627211       3.63242273       0.00576889       0.00634737      -0.00923914
C       -3.69994114       7.84445787       3.75042350       0.00505818      -0.00179269       0.00045143
C       -4.91413483       9.98985564       3.79155929      -0.00478901       0.01119040       0.00607874
C        2.51659206       1.45754418       3.75967439       0.00064591      -0.00741806       0.00727439
S        1.22583354       3.51838792       2.38537009      -0.00272615       0.01278004      -0.00770190
C       -0.05913350       5.76720487       3.47614340       0.00267014       0.00334057       0.00129580
C       -1.24012161       7.85474014       3.66770804       0.00934321      -0.00686046       0.00314536
C       -2.44781736       9.98801770       3.77759766      -0.00106989      -0.00470732      -0.00955330
C        4.97587372       1.42450035       3.81337132       0.00395046       0.00240603       0.00925597
N        3.76683733       3.53277063       3.98521714       0.00058381      -0.01091241      -0.00107051
C        1.23428431       7.75149725       3.77244632      -0.00008280      -0.00162032      -0.00726045
C        0.03084578       9.94481047       3.77678993      -0.00764995      -0.00787873       0.00260576
C        7.43077090       1.39870025       3.79317701      -0.00377920       0.00481649      -0.00364835
C        6.17905204       3.55393476       3.83887963      -0.00221429       0.00650549       0.00812671
C        4.96948940       5.69713611       3.94093244      -0.00166710      -0.00229834       0.00344842
C        3.75393963       7.81682311       3.89972151      -0.01064388      -0.00274910       0.00628550
C        2.49423010       9.90278378       3.81655223       0.00564853       0.00092249      -0.00912023
C        9.89020727       1.40974847       3.73263581       0.00693160       0.00145538      -0.00774027
C        8.63825768       3.54923903       3.72803716       0.00248831       0.00609931       0.00501434
C        7.39687306       5.68925368       3.78939527      -0.00425243      -0.00559069       0.00264429
C        6.18189302       7.83293735       3.84388324      -0.00086648       0.00861580      -0.00424431
C        4.95279935       9.97112544       3.81064924      -0.00046156      -0.00554021       0.01141390
Mo       1.93200745       4.50101297       4.46582746       0.00052435       0.00981298       0.00839756
O        1.74165669       4.92105253       6.13210955      -0.00446130       0.00155912      -0.00955641
