52
Lattice="12.336457 0.0 0.0 -6.168228499999997 10.683685154694365 0.0 0.0 0.0 15.0" Properties=species:S:1:pos:R:3:forces:R:3 energy=-440.89293560148127 free_energy=-440.89293560148127 stress="-0.0025928046839636893 -0.002402804043971929 4.8455420186374826e-05 -0.002402804043971929 -0.003067073220442422 -6.651259996473756e-06 4.8455420186374826e-05 -6.651259996473756e-06 5.543114760475348e-05" pbc="T T T"
C        0.03210007      -0.06804762       3.96427632      -0.00757033       0.00345524       0.01733959
C       -1.23110116       2.04861086       3.73269374      -0.00512420      -0.00392848       0.01440981
C       -2.46907765       4.19711394       3.94387621      -0.00055211       0.01310283      -0.00326830
C       -3.65450626       6.34307406       4.20179076      -0.01083338      -0.00157473      -0.04216191
C       -4.88834222       8.49207953       4.20529788       0.01990663       0.01575405      -0.01631976
C        2.50049657      -0.08490462       3.83247186      -0.00439485      -0.00057933       0.01225441
C        1.21870924       1.92788539       3.26389208       0.01496836      -0.01161748       0.00593917
C       -0.19494187       4.19335639       3.11861643      -0.01354293      -0.00294147      -0.01004567
C       -1.24069559       6.33814200       3.72074886      -0.00246901       0.01224268      -0.04204289
C       -2.42035876       8.47301402       4.00519016       0.00474978      -0.00030054       0.00879032
C        4.96590152      -0.06895326       3.86678887      -0.00789384       0.00243228      -0.02351231
C        3.73096118       2.00099949       3.35609638       0.00338169       0.01106045      -0.00380348
P        1.35364474       6.32382192       2.59310433       0.01801155       0.00216049       0.02541545
C        0.04337747       8.47472672       3.75729813       0.00602427       0.00810940       0.00347102
C        7.43040079      -0.06752552       3.96689347       0.00661102      -0.01110650       0.01850526
C        6.17986347       2.08800638       3.91252515       0.00139832      -0.01445629      -0.02774775
C        4.97902089       4.29852586       3.82612079      -0.01143558      -0.01704007       0.02518727
O        3.90340647       6.43572554       3.67285880      -0.01626041      -0.00418838       0.01141557
C        2.52775948       8.46875979       3.84949017       0.01379914      -0.01058270       0.01825032
C        9.89681164      -0.07247470       4.03962483      -0.00364968       0.00477202      -0.00287247
C        8.64895510       2.06765298       4.03041970      -0.00811571       0.00815671       0.02516655
C        7.41598378       4.21274762       4.17436067      -0.00972072      -0.00832416       0.00092357
C        6.23162797       6.37980007       4.31034788      -0.00575895       0.00612552      -0.00573484
C        4.98077438       8.49211251       4.17394957       0.00565089      -0.00610151      -0.02324411
C        0.00566744       1.33047851       3.66604332       0.00790003       0.00126169       0.02152084
C       -1.27884516       3.46364507       3.62146826      -0.01567575      -0.00138972      -0.01788499
C       -2.44583970       5.62283367       3.99047271       0.00183277       0.01251257      -0.01011318
C       -3.65059285       7.77051165       4.16729235       0.00805440       0.00180362      -0.01273880
C       -4.89422062       9.90998646       4.01565786      -0.00151830       0.01789009       0.02427481
C        2.48864296       1.30592596       3.46910775       0.01356723       0.00134078       0.04141418
S        1.11374338       3.37015908       2.31293112       0.00915577      -0.00153555       0.03038856
C       -0.12806832       5.59933398       3.23034891       0.00179378      -0.00806030      -0.00801937
C       -1.19760972       7.76016771       3.83065476       0.00545232       0.00849929      -0.02403929
C       -2.42985371       9.89767757       3.91951813      -0.00863748      -0.00411516      -0.00742534
C        4.95269185       1.36062120       3.72839495      -0.00169705      -0.00056384      -0.02006770
P        3.87712848       3.60169046       2.52586568       0.01887584       0.00916124      -0.04714333
C        1.28959622       7.81337125       3.54632444       0.00898574      -0.00366111       0.04251108
C        0.03221070       9.90368350       3.89645149      -0.00154401       0.00377071       0.00634596
C        7.41364983       1.36247310       4.00413107       0.00246225      -0.01000895      -0.00094365
C        6.19022701       3.51134946       4.01170438       0.00273027      -0.01908608      -0.03797205
C        5.05238698       5.70535762       4.04524359      -0.01632110      -0.01126283       0.03709170
C        3.78434029       7.82201105       3.95490864       0.00651277      -0.01257739      -0.01210809
C        2.50231133       9.89642028       3.99835809       0.00880336      -0.00729218      -0.01967622
C        9.89145694       1.35518586       3.96046067      -0.01143434       0.00849523       0.03194418
C        8.64566970       3.48994043       4.08685425      -0.00087552       0.01141656       0.01094738
C        7.45117233       5.63554784       4.27665073      -0.01306798      -0.00541209      -0.00533310
C        6.22463939       7.79799584       4.27949947       0.01999303       0.01239166      -0.03131963
C        4.96837171       9.91530591       4.09525133      -0.01059426      -0.00364622      -0.00478356
Mo       2.78115084       4.78823920       4.24959158      -0.00225569       0.01604766       0.03451002
O        3.27851027       5.33375513       6.13454412      -0.07759125       0.01674165      -0.00544680
O        2.32681638       6.45551992       6.32396663       0.04876479      -0.07540068       0.04880337
H        1.77206978       6.05164940       7.02269369       0.00914841       0.04804932      -0.05105181
