50
Lattice="12.336457 0.0 0.0 -6.168228499999997 10.683685154694365 0.0 0.0 0.0 15.0" Properties=species:S:1:pos:R:3:forces:R:3 energy=-431.9292446515257 free_energy=-431.9292446515257 stress="-0.004709029364187186 -0.0011716657136350004 9.080410995282013e-06 -0.0011716657136350004 -0.005156594486670006 -1.781414143716464e-05 9.080410995282013e-06 -1.781414143716464e-05 5.08617920245407e-06" pbc="T T T"
C       -0.01069368      -0.01140855       3.91791029       0.00645434       0.00400361       0.00615629
C       -1.26612079       2.11233064       3.74937296       0.00180661      -0.00196663       0.00269354
C       -2.52024442       4.25882555       3.91658272       0.00289537      -0.00142717      -0.00319267
C       -3.72094811       6.40175639       4.10782627       0.00236002      -0.00811262       0.00803553
C       -4.93919288       8.54646375       4.10497463      -0.00290883      -0.00349971       0.00581924
C        2.46074969      -0.03071429       3.80973363       0.00330625       0.00208183      -0.00737365
C        1.20192054       2.00191699       3.33797765      -0.00010798      -0.00852187      -0.00336078
C       -0.20945057       4.27836464       3.23629796       0.00759024      -0.00578547       0.01285645
C       -1.30040370       6.40903416       3.70703232       0.00959002      -0.00084725      -0.00074020
C       -2.46750480       8.53003397       3.95837097      -0.00224491      -0.00356021      -0.00331033
C        4.92328506      -0.01472016       3.82188224       0.00214004       0.00714848       0.00885623
C        3.69910882       2.05025225       3.27537244       0.00093651       0.00935252       0.00346513
S        1.28386263       6.38505074       2.72039609      -0.00779231      -0.00140384      -0.01079425
C       -0.00438376       8.53285999       3.75368806       0.00147110      -0.00202543       0.00693776
C        7.39069565      -0.01319765       3.93911186       0.00289997      -0.00417703      -0.00636023
C        6.14666693       2.13601321       3.82587826      -0.00420139       0.01052472       0.00438899
C        4.94131770       4.35022465       3.65088741      -0.01496792      -0.00040038      -0.00964442
O        3.87499915       6.50672592       3.41971636       0.00978833      -0.00373498      -0.00217768
C        2.48406125       8.52223620       3.81328029       0.00785637      -0.00378140      -0.00255538
C        9.85490404      -0.01465073       3.99268001       0.00773320       0.00250156      -0.00726952
C        8.60931521       2.12371868       3.99704782      -0.00707740       0.00626131      -0.00159584
C        7.36487547       4.26424735       4.07342576      -0.01343221       0.00730945       0.00062638
C        6.17358478       6.43118187       4.15836982      -0.00592197      -0.00788109      -0.00935971
C        4.93053921       8.54254710       4.04210048       0.00947328       0.00283494       0.00382975
C       -0.02715705       1.39798346       3.68061693       0.00043151      -0.00312612      -0.00652705
C       -1.31913901       3.52885758       3.65458444       0.00445131      -0.00504145       0.00155354
C       -2.50933269       5.68257260       3.94189256       0.00932095      -0.00197610       0.00234885
C       -3.70542286       7.82630598       4.08169052      -0.00378233      -0.00754663      -0.00032874
C       -4.93988259       9.96740026       3.96150288       0.00368496       0.00178338       0.01033768
C        2.45994244       1.36220087       3.47138342       0.00378251       0.00232848      -0.00720620
S        1.21982730       3.54027502       2.58562867      -0.01068022      -0.01100186       0.01243715
C       -0.19102798       5.66531689       3.28078905       0.00258233      -0.00362774      -0.01043595
C       -1.24737297       7.82463696       3.79927562       0.00190244      -0.00137997       0.00374188
C       -2.47229102       9.95331292       3.88156963       0.00302420       0.00059056      -0.00651271
C        4.91878616       1.40742654       3.64893273      -0.00048397       0.01099920       0.01009774
P        3.88410373       3.59443852       2.33883354      -0.00193256      -0.00046571      -0.00286298
C        1.23682994       7.88602382       3.55065953       0.00173044       0.00037782      -0.00941975
C       -0.00899131       9.96301907       3.87392945       0.00008466      -0.00117765       0.01165811
C        7.37718325       1.41676694       3.95693539      -0.00442007       0.00023984      -0.01153396
C        6.15316234       3.55675652       3.88863075      -0.01462957       0.00974970       0.00186767
C        5.00141569       5.75914570       3.84693576      -0.00839639      -0.00662060       0.00521714
C        3.73582845       7.87166646       3.83947226       0.01079908      -0.00063884       0.00704137
C        2.46024218       9.95436302       3.96224316       0.00855997      -0.00182796      -0.00848590
C        9.85272243       1.41477693       3.94307271      -0.00174865       0.00411062       0.00121499
C        8.59713212       3.54528582       4.03331626      -0.00792557       0.00894384       0.00471449
C        7.38888470       5.68859894       4.15791003      -0.00594220       0.00014863       0.00637455
C        6.17440850       7.84766701       4.13976571      -0.00024460      -0.00925603      -0.00779856
C        4.92171128       9.96889600       4.01458054       0.00961756       0.00388218      -0.00108196
Mo       2.84601754       4.89459033       4.14531421      -0.00495923       0.00760140       0.00551738
O        3.00400216       5.20119301       5.84327072      -0.01247329       0.00803769      -0.00785942
