52
Lattice="12.336457 0.0 0.0 -6.168228499999997 10.683685154694365 0.0 0.0 0.0 15.0" Properties=species:S:1:pos:R:3:forces:R:3 energy=-449.1045611839931 free_energy=-449.1045611839931 stress="-0.002801847520840741 -0.0025694098468631494 1.4349268917972903e-05 -0.0025694098468631494 -0.005076591132018305 -3.6502218467640297e-06 1.4349268917972903e-05 -3.6502218467640297e-06 -1.0238030031516339e-05" pbc="T T T"
C        0.06200450       0.04312979       3.85515834      -0.00129118       0.00423433      -0.00793630
C       -1.20353385       2.16644915       3.63389737       0.01230828      -0.00294652       0.00466293
C       -2.43609900       4.31979157       3.82179122       0.00254257       0.00338069       0.00213816
C       -3.61382461       6.46711913       4.06633781      -0.00674418       0.00272747       0.00432731
C       -4.84298444       8.61136468       4.08003501      -0.00427335      -0.00057938      -0.00736654
C        2.53307618       0.02082339       3.72889293      -0.00488939       0.00619432       0.00638769
C        1.25851925       2.04690975       3.17399347       0.00206778       0.00651941      -0.01428146
C       -0.12299638       4.32104866       3.10573885      -0.00131915      -0.00640341      -0.01839171
C       -1.19204778       6.46086702       3.61846540      -0.00036092      -0.00404356       0.00185571
C       -2.37782024       8.58891184       3.86261193       0.00311144      -0.00060072       0.00072559
C        4.99861718       0.05659383       3.81093349       0.01055868       0.00515056      -0.00198840
C        3.77118782       2.09295680       3.32337196      -0.00406856       0.00202391      -0.00404200
S        1.46473866       6.42166005       2.81016263      -0.00689588       0.00396567       0.00046426
C        0.08278030       8.59645943       3.72724158       0.00630867      -0.00192406       0.00744228
C        7.45600760       0.06314204       3.97066157       0.00303765      -0.00244547       0.00107855
C        6.20237994       2.20550471       4.02727372      -0.00125041       0.00836495      -0.00484577
C        5.07291296       4.40268795       4.46252101      -0.01331265      -0.00559554       0.00406547
C        3.83929493       6.51500847       4.29913879       0.00601589       0.00484841      -0.00284114
C        2.54244932       8.61842634       3.95814340      -0.00461230      -0.00336488      -0.00409543
C        9.93148971       0.06071085       4.00764803      -0.00458490      -0.00576699       0.00337100
C        8.68035665       2.19437372       4.00045184      -0.00045605      -0.00135136      -0.00363524
C        7.46616373       4.33222260       4.21177517      -0.00588295       0.00001118      -0.00076742
C        6.30695013       6.51441096       4.36316038       0.00370532      -0.00686418       0.00207293
C        5.01179283       8.61772787       4.17723665       0.00171466       0.00088400      -0.00727818
C        0.03686313       1.44344817       3.55088407       0.01188936       0.00298541       0.00216428
C       -1.24910545       3.58245088       3.51862789       0.01188925      -0.00301468       0.01243473
C       -2.41122714       5.74422882       3.84936519      -0.00587280       0.00558191       0.00504986
C       -3.61267517       7.88930698       4.01672370      -0.00271143      -0.00018717       0.00610895
C       -4.86655378      10.01718874       3.89470216      -0.00490509       0.00225824       0.00165466
C        2.50805343       1.40708890       3.41852023      -0.00619472       0.00836193       0.01083558
S        1.21566489       3.56189587       2.28033022      -0.00319673      -0.00302154       0.00980406
C       -0.06622152       5.70547618       3.22628774      -0.00530272      -0.00691626      -0.00489897
C       -1.15103920       7.88080497       3.72145458       0.00693021      -0.00191782       0.00149526
C       -2.39275558      10.01528008       3.80038615       0.00366585       0.00624983       0.00159214
C        4.99156759       1.47903111       3.76771581       0.00210012       0.00621200      -0.01130466
O        3.82117418       3.22782592       2.63879926       0.01121416      -0.00558673      -0.00460393
C        1.34382038       7.95073944       3.60984894      -0.00049772      -0.00309084      -0.00651837
C        0.06912502      10.02623283       3.87042596       0.00865697      -0.00185056       0.00605676
C        7.43761260       1.49265031       4.02665920      -0.00259986      -0.00136214      -0.00299875
C        6.21849732       3.62511927       4.26775215      -0.00652337       0.00415565      -0.00190242
C        5.06899975       5.80677030       4.40894060       0.00070825      -0.00300381      -0.00482681
C        3.77330063       7.90128776       4.15537333      -0.00062596       0.00392394      -0.00335770
C        2.52777445      10.04047700       4.02038830      -0.00391986      -0.00732288      -0.00135749
C        9.92214928       1.48042429       3.89801676       0.00514330      -0.00272513       0.00198934
C        8.67970228       3.61572189       4.02476864       0.00157230       0.00328155       0.01275727
C        7.49898082       5.76393869       4.24836917      -0.00144191      -0.00308294       0.00071333
C        6.26539331       7.91960755       4.23620306       0.00091650      -0.00442462       0.00378737
C        5.00068883      10.03056655       4.03045967      -0.00193593       0.00437063       0.00636290
Nb       3.06598754       4.61442944       3.95315274       0.00084531      -0.00392270      -0.00618446
O        2.36403167       4.16342697       5.53942267      -0.00871543      -0.00918911      -0.00082089
O        1.60710136       3.70475473       6.66440211      -0.01829097       0.00448577       0.00226172
H        2.15430676       4.03589597       7.41021612       0.01577385       0.00233324       0.00258395
