50
Lattice="12.336457 0.0 0.0 -6.168228499999997 10.683685154694365 0.0 0.0 0.0 15.0" Properties=species:S:1:pos:R:3:forces:R:3 energy=-448.4782175517063 free_energy=-448.4782175517063 stress="-0.0008375253263117083 -0.0003010479862065113 1.3107907676313932e-05 -0.0003010479862065113 -0.002363131049949731 -1.7467861511354857e-05 1.3107907676313932e-05 -1.7467861511354857e-05 1.2862911418245284e-05" pbc="T T T"
C       -0.00063082      -0.00751704       4.00647987       0.00086469      -0.00775575       0.00173862
C       -1.22817948       2.14225915       3.99434039       0.00851194       0.00419969       0.00767055
C       -2.46861131       4.27195691       3.79817521       0.00077543       0.00157577       0.00802478
C       -3.70458332       6.40853519       3.75163628      -0.00693787       0.00348039       0.00495039
C       -4.94352501       8.53241268       3.84211630       0.00005554       0.00132230      -0.00419852
C        2.46858291      -0.01914957       3.94890079       0.00535227       0.00730550       0.00372445
C        1.23725645       2.12681202       3.91502517      -0.00906416       0.00536141      -0.00356766
C       -0.01409675       4.24788507       3.66037274       0.00146676      -0.00488019       0.00343529
C       -1.24404835       6.40167608       3.59746970      -0.00801803      -0.00111765      -0.00488601
C       -2.45505539       8.52889049       3.85040696       0.00166845      -0.00592883      -0.00664980
C        4.93882127      -0.00945787       3.98620971       0.00207582      -0.01081376       0.00324577
C        3.70276181       2.11911550       3.86697197      -0.00037219      -0.00500014       0.00466839
C        2.47459602       4.23895658       3.68111109       0.00653081       0.01517813       0.00609256
O        0.67851331       6.02079079       2.18492508       0.01566625      -0.00321453       0.00449674
C        0.01725485       8.53294428       3.92490279      -0.00527046       0.01099938      -0.00083269
C        7.39423825       0.02610599       4.14073603      -0.00000850       0.00382475      -0.00139855
C        6.16344718       2.14226371       3.94387449      -0.00607384      -0.00530325       0.00185790
C        4.94758472       4.24292234       3.52822598      -0.00189013       0.00100924       0.01086877
S        4.22589169       6.11411550       1.57568299       0.00288126      -0.01214682       0.00335334
C        2.47201097       8.63082957       4.05453507      -0.01036400       0.00260413      -0.00013627
C        9.88123700       0.02517364       4.15336280       0.00079434       0.00731960      -0.01102594
C        8.63497589       2.15231485       4.03505011       0.00075425       0.00102839      -0.00011832
C        7.40078316       4.27272144       3.76864772       0.00134093      -0.00407463      -0.00030404
C        6.16811960       6.40896355       3.53838684      -0.00132414      -0.01064949      -0.00371266
C        4.92403491       8.53724718       3.90174749       0.00666354      -0.00103733      -0.01397144
C        0.00527307       1.42396751       3.99190779      -0.00059491      -0.00745443      -0.01203553
C       -1.23962664       3.55844719       3.83787362      -0.00002085      -0.00125754       0.01057187
C       -2.46595509       5.69357723       3.71278408      -0.00780722       0.00322198       0.00231915
C       -3.70093520       7.82598915       3.80164559      -0.00260138       0.00161066       0.01029484
C       -4.93738460       9.95640139       3.94129000       0.00657821       0.00341755      -0.00370013
C        2.46981728       1.40978708       3.92890611      -0.00609134       0.01033268       0.00118662
C        1.23876742       3.55707920       3.76473300       0.00197197       0.00575804      -0.00736848
C       -0.09117924       5.61294248       3.21405529      -0.00025015      -0.00806499       0.00817714
C       -1.22159646       7.81514627       3.77122507       0.00128101      -0.00003046       0.00407053
C       -2.46219414       9.95524795       3.93595763       0.00282107      -0.00678438      -0.01098186
C        4.93339010       1.42039760       3.94368357      -0.00192447      -0.01297119       0.00556492
C        3.70394060       3.54822588       3.68672163       0.00304530      -0.00361419       0.00798397
C        1.26984517       7.91574744       3.91924893      -0.00807293       0.00503820      -0.00197091
C        0.00142982       9.97133316       4.04060169       0.00419090       0.00127991       0.00231544
C        7.39441885       1.44697158       4.06706372      -0.00361165       0.00288512       0.00567309
C        6.17008326       3.55721897       3.76603005      -0.00328068      -0.00315754       0.00186956
C        5.00651149       5.62924578       3.09940460      -0.00847503       0.00361700      -0.00661820
C        3.67069073       7.90993333       3.89442313       0.00298841       0.00226800      -0.00254804
C        2.47014204      10.04167070       4.20269565      -0.00131284       0.00669977      -0.00408655
C        9.87656119       1.44589376       4.09218293       0.00612550       0.00904360      -0.01189147
C        8.63374541       3.56702138       3.88335456       0.00241790      -0.00214632       0.00248224
C        7.39158527       5.69882683       3.69049057       0.00067662      -0.00714510      -0.00102856
C        6.15826322       7.81981921       3.73790502       0.00387013      -0.01059197      -0.00925472
C        4.93774398       9.97288492       4.04753711      -0.00067412      -0.00069321      -0.00135245
Nb       2.43356209       6.33216196       3.08964435       0.00267161       0.01545251      -0.00299812
