50
Lattice="12.336457 0.0 0.0 -6.168228499999997 10.683685154694365 0.0 0.0 0.0 15.0" Properties=species:S:1:pos:R:3:forces:R:3 energy=-441.288346750275 free_energy=-441.288346750275 stress="-0.0034140040974375524 -0.0030279867527946472 -3.526325989133698e-07 -0.0030279867527946472 -0.005400307065348253 8.349986255434555e-06 -3.526325989133698e-07 8.349986255434555e-06 -9.374602223240057e-06" pbc="T T T"
C        0.00336174       0.01641492       3.81357094      -0.00214256      -0.00013761       0.00193286
C       -1.26444041       2.13876401       3.58378775       0.00399777       0.00525619      -0.00863263
C       -2.49687072       4.29332530       3.77861156      -0.00705372      -0.00172910       0.00383536
C       -3.66888185       6.44220061       4.04081731       0.00596651       0.00038701       0.00040820
C       -4.89772338       8.58741016       4.05139509      -0.00313623      -0.00068451       0.00640298
C        2.47445959      -0.00575757       3.70213161      -0.00210751       0.00197308      -0.01178074
C        1.19706167       2.01331756       3.12192679       0.00760565       0.00765413      -0.00315920
C       -0.19899102       4.29191324       3.02323229       0.00152281       0.00211187      -0.00163391
C       -1.25514660       6.43400646       3.56674888       0.00169457      -0.00555178      -0.00253948
C       -2.43443068       8.56287310       3.82632423      -0.00106842      -0.00283904       0.01131316
C        4.94111707       0.02893780       3.77626072      -0.00330797       0.00326776      -0.00078961
C        3.70956850       2.06459299       3.28717905       0.00030383      -0.00355142      -0.00988229
S        1.39854053       6.39229921       2.76352736      -0.00149607      -0.00024316       0.01104025
C        0.02345686       8.56926725       3.68424987       0.00407204      -0.00180331       0.00581572
C        7.39693751       0.03589768       3.93261189       0.00282699       0.00059805      -0.00237609
C        6.14207556       2.17833150       3.98959484       0.00059069       0.00501302      -0.00774563
C        5.01726538       4.38809021       4.39600201       0.00170013      -0.00497122      -0.00261046
C        3.79818158       6.49101148       4.23972137      -0.00166092       0.00245380      -0.00083369
C        2.48408349       8.59172517       3.90757162       0.00065790      -0.00760486       0.00040652
C        9.87190131       0.03345959       3.96145491      -0.00068231      -0.00926649       0.00960478
C        8.61988235       2.16766507       3.95994471       0.00413634      -0.00138506       0.01045736
C        7.40886729       4.30799900       4.18201940      -0.00009396       0.01038380      -0.00804473
C        6.25875835       6.49417857       4.34654346      -0.00559248      -0.00122104      -0.00849193
C        4.95761980       8.59247325       4.13345598      -0.00372585      -0.00593787       0.00212482
C       -0.02452798       1.41488536       3.50452755       0.00678708       0.00467618      -0.00240109
C       -1.31363365       3.55413863       3.46181716      -0.00310467       0.00771377      -0.00226010
C       -2.47085387       5.71766491       3.80984481       0.00149049      -0.00506943      -0.00024604
C       -3.66810151       7.86432339       3.98899389      -0.00235479      -0.00166574       0.00014506
C       -4.92461285       9.99216504       3.86283505      -0.00186524      -0.00014685      -0.00490932
C        2.44510550       1.37863482       3.38787422       0.00374409       0.00410459      -0.00421388
S        1.15292646       3.52723237       2.21805275      -0.00676393       0.00050589       0.00042351
C       -0.13902992       5.67764258       3.15280046       0.00490647       0.00027479       0.00068679
C       -1.20892291       7.85344663       3.67755217       0.00207045      -0.00382523       0.00050180
C       -2.45034944       9.98932799       3.76739204      -0.00383433       0.00029212       0.00872885
C        4.93332696       1.45039554       3.73739793      -0.00407215       0.00512493      -0.00454656
O        3.76060534       3.18441935       2.60089937      -0.00895675       0.00336894       0.00512904
C        1.28400127       7.92286226       3.56328435       0.00362564      -0.00292741      -0.00789891
C        0.01139377       9.99848616       3.83210333       0.00087116       0.00284803       0.00630101
C        7.37748302       1.46565491       3.99116518       0.00129111       0.00329238      -0.01499391
C        6.15679928       3.60334829       4.21923694       0.00658926       0.00285093       0.00352548
C        5.02204912       5.78900269       4.36988134      -0.00783305      -0.00288988       0.01072065
C        3.71884332       7.87362271       4.09763507      -0.00267690       0.00017062       0.00847133
C        2.46877491      10.01268790       3.97636030      -0.00080421      -0.00917053      -0.01128945
C        9.86134915       1.45316290       3.85364040       0.00529564      -0.00483938      -0.00450277
C        8.62037646       3.58961108       3.98985666      -0.00589646       0.00050943       0.00571810
C        7.44595119       5.73902751       4.22938644       0.00216008       0.00917471      -0.00425225
C        6.21162264       7.89707075       4.20968039      -0.00449516      -0.00269969      -0.00180828
C        4.94226263      10.00416502       3.98505295      -0.00142652      -0.00698502       0.01533309
Nb       2.96102106       4.57147165       3.93550289       0.01386494       0.00308835      -0.01000152
O        2.24088956       4.13844363       5.46571150      -0.00161949       0.00005127       0.01281776
