50
Lattice="12.336457 0.0 0.0 -6.168228499999997 10.683685154694365 0.0 0.0 0.0 15.0" Properties=species:S:1:pos:R:3:forces:R:3 energy=-437.3380588571441 free_energy=-437.3380588571441 stress="-0.0029494857243657093 -0.003274476554041292 -1.9927945591552004e-05 -0.003274476554041292 -0.004980503952387312 1.3348254200877758e-05 -1.9927945591552004e-05 1.3348254200877758e-05 1.4330583328499692e-05" pbc="T T T"
C       -0.03819091      -0.00220898       3.67882742      -0.00351658       0.00342286      -0.00247748
C       -1.29845640       2.12078111       3.96028874      -0.00306325       0.00169014       0.00301795
C       -2.53688361       4.26622148       3.92307186       0.00164006       0.00515151       0.00496975
C       -3.72004897       6.41084103       3.69264852      -0.00299257      -0.00214186       0.00358044
C       -4.95022967       8.55122151       3.56366364      -0.00328716      -0.00698427       0.00171602
C        2.44018475      -0.03251981       3.67114757      -0.00161129      -0.00537818       0.00670246
C        1.20060914       2.03308408       4.13109577       0.00542418      -0.00494474       0.00602443
C       -0.19891550       4.25907809       4.60769458       0.00481334      -0.00410089       0.00196107
C       -1.30896356       6.41763930       4.16198835       0.00103105       0.00103182       0.00064190
C       -2.47924369       8.53358783       3.75713642      -0.00147885      -0.00099458       0.00078620
C        4.90408290      -0.00655091       3.60471521       0.00455352       0.00143885       0.00641916
C        3.62369221       2.08156393       3.44696913      -0.00586086       0.00684170      -0.00002611
P        1.33777393       6.44037546       5.08287136      -0.00255409       0.00173568      -0.00206747
C       -0.01569193       8.55137915       3.92474556      -0.00321923       0.00107207      -0.00436973
C        7.36494585       0.00249271       3.58597542       0.00454389      -0.00422644      -0.00241166
C        6.11345232       2.15245415       3.43441577      -0.00281066      -0.00328945       0.00008027
C        4.92062529       4.36273070       3.23262353       0.00842435       0.00702360      -0.00044829
O        3.74377073       6.47361997       3.39490702       0.01323694       0.00145554      -0.00598261
C        2.46156124       8.54324062       3.69019488      -0.00997041       0.00490884      -0.00782260
C        9.83087767       0.00626021       3.58697407       0.00258951      -0.00488958       0.00324652
C        8.58532675       2.14139158       3.63753850      -0.00173021       0.00031734      -0.00699750
C        7.35963956       4.28275715       3.52980116       0.00221559       0.00652596      -0.00014300
C        6.18971259       6.45782799       3.38676107       0.00269948       0.00358280      -0.00130605
C        4.91690339       8.56464224       3.45024706      -0.00334094      -0.00060158       0.00043202
C       -0.05587896       1.40178904       3.93199822      -0.00010672       0.00435878       0.00325115
C       -1.33816136       3.53195084       4.16820788       0.00066274       0.00195797       0.00214822
C       -2.51654814       5.69459298       3.92404318      -0.00009909       0.00333568       0.00329538
C       -3.71379004       7.83242480       3.66709694      -0.00116025      -0.00533061      -0.00195467
C       -4.96652313       9.96707990       3.63983158      -0.00611732      -0.00449437      -0.00491619
C        2.41851335       1.37987718       3.75910148       0.00303564      -0.00486820       0.00970845
P        1.27185350       3.44304323       5.18167510       0.01168944       0.00077846      -0.00724777
C       -0.17366938       5.67260398       4.59013939       0.00366812      -0.00340172      -0.00793547
C       -1.25799180       7.83118115       3.96864469      -0.00220535       0.00145361       0.00047684
C       -2.48768041       9.95397851       3.65711157       0.00308877      -0.00037757       0.00374542
C        4.88501365       1.42444301       3.46713553      -0.00474997       0.00183676      -0.00010096
S        3.42836539       3.62266107       2.60297845      -0.01563161      -0.00214555       0.00772723
C        1.24136712       7.89853417       4.09407105      -0.00730588       0.00197669      -0.00208786
C       -0.02933002       9.96873727       3.67734824       0.00524015      -0.00020601       0.00445592
C        7.35094842       1.43414558       3.53054952      -0.00135899      -0.00583232      -0.00590595
C        6.13098409       3.57366208       3.39086012       0.00553882       0.00208686      -0.00184862
C        4.99026713       5.78134125       3.29635722       0.00644391       0.00409616      -0.00118011
C        3.70476799       7.89111182       3.52372987      -0.00588159       0.00648219      -0.00766883
C        2.43834718       9.97334279       3.57959504       0.00204765       0.00006868      -0.00204376
C        9.82217412       1.42885047       3.71462420      -0.00167073      -0.00359599      -0.00163341
C        8.58550115       3.56272470       3.68757632       0.00238297       0.00546340      -0.00350494
C        7.39308500       5.70683831       3.52425008      -0.00328124       0.00513354       0.00247078
C        6.16640394       7.86866046       3.44325421      -0.00393520      -0.00320762       0.00790495
C        4.89950517       9.98721437       3.55829877       0.00010728      -0.00239501      -0.00190533
Nb       3.32538661       4.84902081       4.80524996       0.00028820      -0.00546107       0.00600676
O        4.31205613       4.70672062       6.23414621       0.00357442      -0.00635991      -0.00678292
