50
Lattice="12.336457 0.0 0.0 -6.168228499999997 10.683685154694365 0.0 0.0 0.0 15.0" Properties=species:S:1:pos:R:3:forces:R:3 energy=-434.2224779312763 free_energy=-434.2224779312763 stress="-0.00174080182319079 -0.0010926220055036135 -3.8272318967348474e-05 -0.0010926220055036135 0.002169757951487193 0.0001703029490447313 -3.8272318967348474e-05 0.0001703029490447313 7.809168803769349e-05" pbc="T T T"
C       -0.02760983      -0.00769974       3.79015390       0.05900114       0.00325428       0.00680409
C       -1.26192152       2.12733233       3.64524637      -0.00498411       0.04152422       0.05933747
C       -2.46721253       4.27223509       3.64356681      -0.06186820      -0.12386099       0.01197520
C       -3.68888282       6.40731305       3.78906589      -0.01502556      -0.01327136      -0.01668751
C       -4.94989243       8.54952030       3.89521074       0.06755669      -0.04949236      -0.01243120
C        2.43689100       0.00578380       3.71229953       0.03757633       0.05444707       0.03520033
C        1.17507454       2.11136132       3.70380658      -0.08442875      -0.14711978       0.04801949
C       -0.04890486       4.27438744       3.62372736      -0.08011684       0.03728107       0.03127189
C       -1.22492488       6.38852816       3.59186935      -0.01907462       0.04645333       0.04776234
C       -2.47186069       8.53101876       3.68692551      -0.03288017       0.06521398       0.01848992
C        4.91290176      -0.00825101       3.64139789      -0.00762193      -0.00668034      -0.00575910
C        3.66096413       2.12498691       3.47668227       0.05452687      -0.08728371       0.04089622
O        1.17183265       6.41852941       3.56549063      -0.19265930       0.17269622       0.03285497
C       -0.00202213       8.50774374       3.65596863      -0.07188583       0.06899442      -0.00753839
C        7.37843861      -0.03474771       3.68904731       0.04026943       0.12625746      -0.00630171
C        6.14591305       2.13157964       3.61367528       0.00832765       0.06938859      -0.02780573
C        5.00018846       4.34173808       3.64362217       0.09340752       0.06028721       0.03685969
B        3.77703195       6.41443315       4.67125797      -0.23676953      -0.18358284       0.07928694
C        2.44349864       8.48792970       3.89698409       0.07309361      -0.00996397      -0.04772877
C        9.83565396      -0.02319911       3.77986724       0.01084994      -0.00273216      -0.01648333
C        8.61113744       2.12013987       3.67894580       0.04252650       0.02958494       0.00937970
C        7.41646633       4.26661932       3.78633547      -0.02718721       0.01164786      -0.04769366
C        6.20435454       6.41204122       4.04713280      -0.09671390      -0.07202106      -0.07778309
C        4.90380206       8.54553165       4.05811552      -0.00829110      -0.03566558      -0.05723687
C       -0.02718337       1.42342966       3.69352309      -0.05735018      -0.01958066      -0.01662012
C       -1.23983386       3.55759756       3.59387875      -0.01257596      -0.02550611       0.02616338
C       -2.45764026       5.68561465       3.66177419      -0.03924566      -0.00955902       0.01293490
C       -3.71042203       7.83320873       3.79409850       0.06536630      -0.00377786       0.00780150
C       -4.95882256       9.97847306       3.81172238       0.07143961      -0.04558754      -0.01065266
C        2.41805052       1.45022840       3.64427624       0.07221047      -0.08749515       0.02377811
O        1.10258732       3.49502007       3.92322842      -0.07063292       0.03985008      -0.03514715
C       -0.01752133       5.68179438       3.58941680      -0.00617879       0.07394067       0.03452386
C       -1.23998999       7.81259119       3.61619551      -0.05910230       0.05066825       0.07213706
C       -2.48966081       9.96819477       3.68108870      -0.02643201       0.02293746      -0.01148361
C        4.89938714       1.43261316       3.57559300       0.02288961      -0.03631252       0.03049584
S        3.65122700       3.70569448       2.71309881       0.10043444       0.02842182      -0.11281875
C        1.20090172       7.78969048       3.72273172      -0.11986184       0.13601328       0.04535275
C       -0.01654455       9.94500423       3.66616577      -0.00792199       0.05836086       0.00465877
C        7.37162396       1.40501003       3.66558611       0.02808203       0.12261215      -0.01476822
C        6.18041186       3.55474383       3.68640184      -0.00245835       0.04178206      -0.00100895
C        5.00185634       5.69147906       4.05941318       0.01699335      -0.07185692      -0.07823735
C        3.67745525       7.86051545       4.17226059      -0.01611300      -0.07572314      -0.02715650
C        2.43655560       9.92926778       3.77502708       0.04057742      -0.10181075       0.04661346
C        9.84830494       1.41089669       3.69006560       0.01324122       0.03367065      -0.00841533
C        8.63630180       3.54778300       3.70542367      -0.02125149      -0.03190276      -0.03362635
C        7.43217425       5.69166224       3.88665098      -0.08276264       0.00340053      -0.01948815
C        6.16624362       7.84491352       4.05017617       0.06486697      -0.02243156       0.02879834
C        4.90604808       9.96716221       3.87017789       0.03666237      -0.03997711       0.00922638
Ni       2.60268428       4.38123424       4.56666447       0.44744737      -0.19886641      -0.00656338
O        3.02668669       5.79191604       5.60993002      -0.00595266       0.10337319      -0.10118674
