50
Lattice="12.336457 0.0 0.0 -6.168228499999997 10.683685154694365 0.0 0.0 0.0 15.0" Properties=species:S:1:pos:R:3:forces:R:3 energy=-436.63520789069855 free_energy=-436.63520789069855 stress="-0.0045322935324392175 1.529448404471496e-06 -7.093366820460233e-06 1.529448404471496e-06 0.007604928545099323 -1.958545982149081e-07 -7.093366820460233e-06 -1.958545982149081e-07 -1.329716088271655e-06" pbc="T T T"
C        0.03115450       0.03112943       3.90722905      -0.00477437       0.00295487       0.00493122
C       -1.22932257       2.12352218       3.82202373       0.00609456       0.00262843       0.00048858
C       -2.51289707       4.26760496       3.59305599      -0.00021987       0.00130579       0.00188462
C       -3.71886681       6.42259237       3.64342651      -0.00218440       0.00023031      -0.00977026
C       -4.91851769       8.56946304       3.77701893      -0.00223257       0.00866447       0.00244769
C        2.49655954       0.05582770       3.88958888       0.01094522       0.00459915      -0.00200013
C        1.27549363       2.21842405       4.08995024      -0.00388727      -0.00562881      -0.00425201
C       -0.11912267       4.28693537       3.71277852      -0.00376809      -0.00026180       0.00586503
C       -1.29028822       6.42885485       3.66135136      -0.00272826       0.00032091       0.00062246
C       -2.45503551       8.56762532       3.80283900       0.01340151       0.00168319       0.00470134
C        4.96477281      -0.00927326       3.86447873       0.00003967       0.00437004       0.00221724
C        3.76140671       2.13825477       3.76740384      -0.00624751       0.00386258      -0.00566460
B        1.17149099       6.22260496       4.23845192       0.00650010       0.00442635       0.00529458
C        0.04632298       8.49395135       3.96490178      -0.00157361      -0.00422062       0.00877059
C        7.43338126      -0.04338668       3.86947029      -0.00255868      -0.01277470       0.01102992
C        6.19591852       2.12026908       3.72739424      -0.00898742      -0.00264659      -0.01057604
C        4.98670622       4.27268187       3.51122737      -0.00206570      -0.00101282       0.00841512
O        3.81162817       6.46960986       3.43157474       0.01420085       0.00781525      -0.00804609
C        2.50367695       8.45898608       3.93315521      -0.00206753      -0.00179805      -0.00282124
C        9.88542621      -0.03419501       3.85995227       0.00961464      -0.00085504      -0.00165847
C        8.64573322       2.11188385       3.73228298       0.00783059      -0.00339947      -0.00344761
C        7.39204077       4.27206845       3.62463199      -0.00326557      -0.00043376       0.00603539
C        6.17417879       6.41648291       3.63048783      -0.00389455      -0.00021048      -0.00898481
C        4.96396695       8.54145771       3.79306433      -0.01135704       0.00051568      -0.00407324
C        0.04649426       1.47289586       3.96517852      -0.00311022      -0.00143239       0.00841872
C       -1.29021855       3.53771452       3.66177313      -0.00346032      -0.00123330      -0.00074545
C       -2.51283469       5.69871255       3.59272946      -0.00169407       0.00115828       0.00270279
C       -3.69070969       7.85444400       3.73223771       0.00580144       0.00518155      -0.00527593
C       -4.90334815      10.00981904       3.86955371       0.00214752       0.01340299       0.01053784
C        2.50374885       1.50746636       3.93302841      -0.00238670       0.00198148      -0.00280276
B        1.17174902       3.74412414       4.23845444       0.00349810      -0.00602037       0.00433224
C       -0.11926725       5.67962449       3.71296680      -0.00201014      -0.00007857       0.00351234
C       -1.22937018       7.84309021       3.82151979       0.00563686      -0.00370108       0.00024327
C       -2.45118136      10.00059056       3.85965459       0.01059705       0.00243252      -0.00337971
C        4.96398955       1.42486113       3.79268120      -0.01134243       0.00166769      -0.00450651
O        3.81179793       3.49679249       3.43138190       0.01056540      -0.00691320      -0.00822240
C        1.27518607       7.74834090       4.08990056      -0.00016925       0.00141490      -0.00389081
C        0.03124567       9.93561133       3.90708125      -0.00754369      -0.00715191       0.00278163
C        7.41797906       1.39686388       3.77688416      -0.00164815      -0.00664483       0.00244179
C        6.17417605       3.54988478       3.63016574      -0.00335759       0.00030947      -0.00805201
C        4.98664268       5.69380947       3.51152558      -0.00117223      -0.00108415       0.00733903
C        3.76130484       7.82812473       3.76758730      -0.00516144      -0.00255197      -0.00491266
C        2.49677245       9.91054028       3.88974565       0.00775434      -0.00270938      -0.00236228
C        9.88147656       1.39881125       3.80335270       0.01441873      -0.00058042       0.00301756
C        8.61746701       3.54375692       3.64375404       0.00110506       0.00070289      -0.01115866
C        7.39210530       5.69437050       3.62463832      -0.00502339      -0.00112232       0.00589857
C        6.19590947       7.84606104       3.72759123      -0.00987290       0.00392323      -0.00953852
C        4.96483196       9.97567245       3.86517935       0.00043104      -0.00317936      -0.00093394
Ni       2.50779193       4.98344046       2.96930777      -0.01290700      -0.00083514       0.01219275
O        1.86315753       4.98320516       4.78896683       0.00208926       0.00292850       0.00095383
