49
Lattice="12.336457 0.0 0.0 -6.168228499999997 10.683685154694365 0.0 0.0 0.0 15.0" Properties=species:S:1:pos:R:3:forces:R:3 energy=-431.47645525808105 free_energy=-431.47645525808105 stress="-0.008947158567096115 0.0010662424104419495 -1.7320664687212927e-07 0.0010662424104419495 0.0008738960132058826 -1.5944548337764195e-07 -1.7320664687212927e-07 -1.5944548337764195e-07 6.309532862860596e-07" pbc="T T T"
C       -0.00244123       0.00558970       3.74796827      -0.00413052      -0.00970130       0.00488765
C       -1.24458915       2.12802438       3.74099573       0.00356925       0.00784356       0.00206368
C       -2.46430540       4.27817831       3.73583525       0.00189094       0.00259044      -0.00151442
C       -3.68953440       6.41896766       3.74091533       0.00343665       0.00189414      -0.00135277
C       -4.93394431       8.56480683       3.74989502      -0.00044645      -0.00670789      -0.00193583
C        2.45410994       0.05520875       3.75172038       0.00470003       0.00340788       0.00253683
C        1.19571081       2.13836919       3.75559134      -0.00189287      -0.00318087      -0.00112634
C       -0.06604167       4.28386680       3.74440371       0.00042120       0.00187919       0.00092188
C       -1.24628445       6.41812670       3.73785064      -0.00316667      -0.00691656       0.00161591
C       -2.47308977       8.56900696       3.74190768       0.00378408      -0.00316871       0.00117977
C        4.93007473       0.01786750       3.74928278      -0.00215409      -0.00923393       0.00507755
C        3.70619075       2.20880380       3.77169657       0.00990038      -0.00204176       0.00032741
O        1.13555949       6.42956989       3.74884608       0.00333625      -0.00428878       0.00007859
C       -0.01456832       8.53453675       3.74506850      -0.00959139       0.00965395      -0.00157251
C        7.40192125      -0.02907981       3.74731117       0.00296059      -0.00317756      -0.00207871
C        6.19449099       2.11071384       3.75428087      -0.01166076       0.00418866      -0.00081134
C        5.01947717       4.23638518       3.78349374      -0.00910429       0.00506839       0.00512473
B        3.77424843       6.36762876       3.81046987       0.00322549       0.00183999      -0.00699832
C        2.43290289       8.49881180       3.76016675       0.00624815      -0.00273650       0.00256014
C        9.85995933      -0.02862694       3.74865092      -0.00458429       0.00233864      -0.00066386
C        8.64374539       2.11623789       3.74330040       0.00197465      -0.00367826      -0.00381044
C        7.44333607       4.26303430       3.74680907       0.00387567      -0.00042920       0.00616334
C        6.20966934       6.40999732       3.76496867      -0.00183003      -0.00327287       0.00446349
C        4.92971233       8.53302241       3.76373941      -0.00492528       0.00761932       0.00587730
C       -0.00955217       1.43417336       3.74515138      -0.00335848      -0.00583568       0.00780234
C       -1.24631601       3.55705409       3.73775762       0.00125381       0.00556214      -0.00110347
C       -2.46506733       5.69596128       3.73583397      -0.00338346       0.00060866       0.00122751
C       -3.70375429       7.85150964       3.74407497       0.00465092      -0.00040602      -0.00458737
C       -4.93453328      10.00025736       3.75049737       0.00113324      -0.00292535      -0.00789753
C        2.44050799       1.49292259       3.76160568       0.00578728       0.00804342      -0.00351513
O        1.11784611       3.53423640       3.75959916      -0.00037427       0.00784149      -0.00717487
C       -0.06301088       5.68834541       3.74432853      -0.00058116      -0.00402276      -0.00225343
C       -1.25324033       7.84523063       3.74053352      -0.00359523      -0.00821320      -0.00243001
C       -2.48128513      10.00558282       3.74633542       0.00152259      -0.00384189       0.00978595
C        4.94008177       1.44112879       3.75886568      -0.00189822      -0.01016837       0.00029391
C        3.80090035       3.58587433       3.79169236      -0.00584315       0.00004521      -0.01048450
C        1.18951180       7.83087915       3.75131139      -0.00304559       0.01276796       0.01147627
C       -0.00578523       9.96496816       3.74755081      -0.00102752       0.00951288      -0.00543661
C        7.41947311       1.39606414       3.74671671      -0.00915658       0.00070423       0.00111662
C        6.23693699       3.52375531       3.75985595      -0.00751637       0.00604198       0.00477544
C        5.03086531       5.65270990       3.78948039      -0.00174572       0.00142814      -0.00497170
C        3.68631225       7.82738303       3.78047719       0.00800861      -0.00168619      -0.01029304
C        2.45304158       9.93293812       3.74964983       0.00282654      -0.00347790       0.00526069
C        9.87339082       1.40553357       3.74442943       0.00677749      -0.00126465      -0.01143774
C        8.65665825       3.54729713       3.73981436       0.00617317      -0.00150915      -0.00043316
C        7.43885572       5.69437230       3.74854434       0.00730157       0.00172362       0.00161084
C        6.17565246       7.83869769       3.75840006      -0.00750311       0.00095982       0.01509588
C        4.93307839       9.96175307       3.75152480      -0.00863023       0.00348787       0.00247383
Ni       2.45051489       4.94087290       3.78552050       0.01638718      -0.00516623      -0.00991449
