51
Lattice="12.336457 0.0 0.0 -6.168228499999997 10.683685154694365 0.0 0.0 0.0 15.0" Properties=species:S:1:pos:R:3:initial_magmoms:R:1:forces:R:3 energy=-441.60935600037106 free_energy=-441.60935600037106 stress="-0.0035642398760187747 0.0007804865436029797 -1.4089055862229813e-06 0.0007804865436029797 0.005797731935768852 9.709147799217853e-06 -1.4089055862229813e-06 9.709147799217853e-06 -3.479977913553395e-06" pbc="T T T"
C        0.02710322       0.02281136       3.68684324       0.00000000      -0.00344926       0.00107557       0.00154401
C       -1.20670031       2.14886885       3.53553277       0.00000000      -0.00283542       0.00425643       0.00043125
C       -2.42124332       4.29107202       3.51982926       0.00000000       0.00168620      -0.00060445      -0.00335827
C       -3.65135641       6.43268828       3.64415846       0.00000000      -0.00144831      -0.00286694      -0.00415812
C       -4.90420976       8.57816890       3.73975664       0.00000000      -0.00072183      -0.00102474      -0.00437986
C        2.48471232       0.07492131       3.70926232       0.00000000       0.00211545       0.00043815      -0.00299405
C        1.22535039       2.18947183       3.62294291       0.00000000       0.00010699      -0.00344278       0.00227867
C        0.00646963       4.29591213       3.40316969       0.00000000       0.00196921       0.00283171      -0.00777775
C       -1.19431807       6.42178809       3.49073240       0.00000000       0.00221402      -0.00143822      -0.00318617
C       -2.43977953       8.57993920       3.63009157       0.00000000      -0.00023747       0.00011040      -0.00284449
C        4.96077246       0.02807612       3.67904088       0.00000000       0.00120509       0.00394353       0.00025557
C        3.73466854       2.20747525       3.86559015       0.00000000       0.00568852       0.00228615      -0.00316605
O        1.18513610       6.44138801       3.53216012       0.00000000       0.00868937      -0.00632699       0.00516403
C        0.02080347       8.54326069       3.59988145       0.00000000      -0.00475953       0.00098331      -0.00471287
C        7.43360143      -0.01545548       3.63698715       0.00000000       0.00028756      -0.00088071      -0.00440173
C        6.22189191       2.13039554       3.71290586       0.00000000       0.00076613       0.00024592       0.00390287
C        5.06406770       4.25678617       4.00363487       0.00000000      -0.00347857       0.00301989      -0.00267405
B        3.80159184       6.38490026       4.25079258       0.00000000       0.00340411      -0.00500279       0.00212448
C        2.46651553       8.50117759       3.73656449       0.00000000      -0.00057997       0.00013614       0.00467181
C        9.89131061      -0.01584426       3.65424410       0.00000000       0.00353685      -0.00109768       0.00160560
C        8.67576930       2.13199810       3.59399799       0.00000000      -0.00118839      -0.00305001      -0.00552335
C        7.48199496       4.28040564       3.69443333       0.00000000      -0.00301925       0.00069608      -0.00527358
C        6.24503753       6.42356539       3.87297683       0.00000000      -0.00446206       0.00310151       0.00069433
C        4.95296458       8.54352900       3.83783096       0.00000000       0.00015553      -0.00005964      -0.00161101
C        0.02610932       1.45535677       3.60622224       0.00000000      -0.00333813       0.00297987      -0.00019396
C       -1.19529756       3.58121350       3.45755926       0.00000000       0.00143898       0.00303591       0.00409331
C       -2.42220333       5.71133071       3.54040090       0.00000000       0.00224174      -0.00180538      -0.00009907
C       -3.67066267       7.86494129       3.67078217       0.00000000       0.00077999      -0.00231904       0.00188190
C       -4.90516759      10.01460537       3.71375021       0.00000000      -0.00203838       0.00078569       0.00186388
C        2.47113313       1.51302242       3.74223667       0.00000000       0.00668384       0.00059070       0.00394454
O        1.17113886       3.56147145       3.51411455       0.00000000       0.00087009       0.00245315       0.00773293
C        0.01092648       5.71226997       3.42633684       0.00000000       0.00381758      -0.00171168      -0.00019073
C       -1.21474683       7.85179012       3.56396214       0.00000000      -0.00372010      -0.00132350      -0.00006995
C       -2.44968162      10.01856949       3.67908800       0.00000000       0.00278178       0.00113225       0.00237162
C        4.96434486       1.45439223       3.75010340       0.00000000       0.00331217       0.00123040       0.00165675
C        3.85484792       3.57525501       4.13164771       0.00000000      -0.00837154       0.00657404       0.00670383
C        1.21939024       7.81218575       3.63092518       0.00000000      -0.00350762       0.00244043      -0.00597219
C        0.02630205       9.97642562       3.63906057       0.00000000      -0.00190878       0.00182924       0.00327537
C        7.44667358       1.41332116       3.63891031       0.00000000      -0.00223206      -0.00186830      -0.00048345
C        6.26653294       3.54812010       3.77183210       0.00000000      -0.00412811       0.00162735      -0.00213152
C        5.07064666       5.67027845       4.05756429       0.00000000      -0.00018250      -0.00321356      -0.00024611
C        3.70811459       7.83491332       3.91798282       0.00000000       0.00140724       0.00059325       0.00227798
C        2.48553453       9.93787770       3.66159314       0.00000000       0.00238311      -0.00011647       0.00689386
C        9.90633666       1.42138320       3.58262759       0.00000000       0.00061847      -0.00081677      -0.00247707
C        8.69297907       3.56358980       3.59136883       0.00000000      -0.00065933      -0.00099651      -0.00062427
C        7.47644716       5.70998029       3.73539468       0.00000000      -0.00541323       0.00291848       0.00081211
C        6.20537456       7.85216348       3.83285746       0.00000000      -0.00084879       0.00168942       0.00540050
C        4.96132327       9.97411013       3.71954799       0.00000000       0.00069521      -0.00347542      -0.00201192
Ni       2.91452339       4.85404811       5.09779427       0.00000000       0.00172533      -0.00168660       0.00199003
O        1.42439357       3.96036176       6.08547183       1.00000000       0.00505795      -0.00606979       0.01665879
O        1.22951980       5.23575268       5.81426690       1.00000000      -0.00310987      -0.00180698      -0.01966842
