52
Lattice="12.336457 0.0 0.0 -6.168228499999997 10.683685154694365 0.0 0.0 0.0 15.0" Properties=species:S:1:pos:R:3:forces:R:3 energy=-446.5619347900963 free_energy=-446.5619347900963 stress="0.0022607538661394548 -0.001110037207305902 -2.188808274113472e-05 -0.001110037207305902 0.0015342581776436616 3.5853969296973994e-05 -2.188808274113472e-05 3.5853969296973994e-05 -4.59936814746724e-06" pbc="T T T"
C        0.06955959       0.05381514       3.72337618      -0.00464878       0.00015940      -0.00308679
C       -1.17704789       2.18246972       3.68083688       0.00299785      -0.00464246      -0.00213482
C       -2.40770386       4.32604462       3.67228991       0.00721605       0.00016368       0.00404496
C       -3.63678572       6.46236136       3.69777124       0.00128029       0.00217372       0.00132655
C       -4.86318179       8.60337157       3.72538719       0.00017132       0.00499471      -0.00153311
C        2.53475546       0.10021043       3.71318402       0.00181646       0.00328405       0.00306043
C        1.26141242       2.20071931       3.65031799       0.01165022       0.00024056       0.00273548
C        0.04518205       4.27209484       3.64305634      -0.00605389       0.00384806      -0.00180427
C       -1.13778102       6.43549633       3.70447250      -0.00073641      -0.00181816      -0.00507630
C       -2.39401369       8.59780564       3.72314314      -0.00159311      -0.00257726       0.01405925
C        4.99348411       0.06033140       3.75373300      -0.00534646       0.00132191      -0.00747718
C        3.79130528       2.20527550       3.70050716       0.00272875       0.00709168      -0.00244420
B        1.38300451       6.44213392       3.88210682       0.00454545       0.00627894       0.00289467
C        0.07249487       8.60044808       3.79010269      -0.00605295       0.00191073       0.00331856
C        7.46307333       0.06364832       3.78949188       0.00495146       0.00122549      -0.00220852
C        6.22606180       2.19757438       3.74538275      -0.00712281      -0.00503521       0.00125828
C        4.99503009       4.30075053       3.74560631      -0.00224577      -0.00174463      -0.00774427
C        3.73329611       6.45920530       3.98379225       0.00166360       0.00024038      -0.00296638
C        2.53945922       8.62178076       3.87367555       0.00237942      -0.00042969      -0.00892914
C        9.93753273       0.05753170       3.77308382      -0.00005742       0.00268938      -0.00068176
C        8.69492675       2.19635136       3.72782254      -0.00104531       0.00054165       0.00407851
C        7.45453765       4.33533620       3.71638688       0.00328342      -0.00514688      -0.00140136
C        6.20497140       6.45237349       3.73893656      -0.00429269       0.00031787      -0.00037252
C        5.00336559       8.59273162       3.79367344      -0.00494252      -0.00139698       0.00073083
C        0.06588952       1.48210057       3.68476597       0.00927415       0.00044892      -0.00423855
C       -1.17792560       3.59527616       3.64644275      -0.00158206      -0.00396588       0.00156301
C       -2.39751748       5.74597548       3.68236609       0.00248319      -0.00017612       0.00738041
C       -3.63114350       7.88939188       3.71057371       0.00006709       0.00258476       0.00329259
C       -4.85886117      10.03972871       3.72054894      -0.00099986       0.00483145       0.00419402
C        2.52961847       1.54832469       3.68853743       0.01090509       0.00353250       0.00164433
O        1.22205647       3.56572559       3.65698436      -0.00689057       0.00023737      -0.00038355
C        0.08498519       5.68134807       3.71752458       0.00291376       0.00341860      -0.00172423
C       -1.15400117       7.87195421       3.74190876      -0.00423526      -0.00317273      -0.00425446
C       -2.40749678      10.03934506       3.73103209      -0.00295555      -0.00253149       0.00553127
C        4.98766226       1.49292132       3.74120108      -0.00580640      -0.00004742      -0.00117677
O        3.83268905       3.57624438       3.69727671      -0.00457906       0.00331444       0.00497547
C        1.31954911       7.92864719       3.85578401      -0.00069745       0.00438778      -0.00271346
C        0.06186206      10.03274473       3.78295460      -0.00158391       0.00411292       0.00054100
C        7.45561603       1.48947173       3.75673587      -0.00252895      -0.00022719      -0.00492487
C        6.21595999       3.61720605       3.73324188      -0.00463308      -0.00368878      -0.00340713
C        4.94567617       5.73233256       3.80679202      -0.00577897      -0.00348181       0.00146207
C        3.76021242       7.87054811       3.88682742      -0.00091448      -0.00235696      -0.00556906
C        2.53521419      10.04321005       3.81527622       0.00476464      -0.00059975       0.00777389
C        9.93379792       1.48051970       3.72590917      -0.00143731       0.00177671       0.00096157
C        8.69021538       3.62079603       3.70193036       0.00782964      -0.00122144      -0.00083016
C        7.45063689       5.75417728       3.70965027      -0.00066110      -0.00157566      -0.00236442
C        6.23161701       7.88133967       3.75138405      -0.00280784       0.00137213       0.00008669
C        5.00281672      10.02007502       3.76437386      -0.00621896      -0.00086354       0.00100958
Ni       2.51938927       5.62074163       5.23869492       0.00282761       0.00688740      -0.00177654
O        2.57853471       4.02585838       6.04788348       0.00703513      -0.00921603      -0.01145880
O        1.19309739       3.67712070       6.35956480      -0.00392359      -0.00249055       0.01217100
H        1.23240007       3.68383626       7.34073684       0.00958794      -0.01498059       0.00258821
