50
Lattice="12.336457 0.0 0.0 -6.168228499999997 10.683685154694365 0.0 0.0 0.0 15.0" Properties=species:S:1:pos:R:3:forces:R:3 energy=-439.1570070708164 free_energy=-439.1570070708164 stress="-0.003210835726720334 -0.0004677765772430212 -8.168407937083043e-06 -0.0004677765772430212 0.0027632962901218403 -4.430187199709346e-06 -8.168407937083043e-06 -4.430187199709346e-06 8.469913435979402e-06" pbc="T T T"
C        0.01568639      -0.01635183       3.66642035       0.01025089       0.00295606       0.00937516
C       -1.23334478       2.10652223       3.65353464      -0.00146364       0.00467907       0.01599967
C       -2.46679503       4.25567862       3.61486708       0.00527982      -0.00762251       0.00101747
C       -3.68017954       6.40094871       3.60027879       0.00538353      -0.00312500      -0.00603613
C       -4.90438158       8.54765670       3.62902418      -0.00647110       0.00579408       0.00678302
C        2.48138345       0.03575530       3.70782270       0.00523222       0.00569363       0.00234996
C        1.20758083       2.11839663       3.78299356      -0.00601283      -0.00086641      -0.00136360
C       -0.06218188       4.23356660       3.89912287      -0.00190884       0.00357615       0.00182704
C       -1.22904920       6.37363851       3.85582704      -0.00317513      -0.00253991      -0.00445643
C       -2.44921245       8.54032553       3.74641448       0.00102033       0.00210984       0.00244576
C        4.94167648      -0.00458219       3.73415064      -0.00953380       0.00505023      -0.00281675
C        3.74003672       2.12221354       3.70550795       0.00441225      -0.00239153       0.00812403
B        1.11510773       6.42662990       4.68515881       0.01200881      -0.00599865       0.00158834
C        0.01052502       8.53811025       3.95120998      -0.00057749       0.00105569      -0.00774876
C        7.41573057      -0.02902036       3.73522139      -0.01128054      -0.00106520       0.00066375
C        6.18551199       2.11322171       3.59375194       0.00097595       0.00077258      -0.00236793
C        5.00858780       4.24915193       3.56745307      -0.00164192       0.00400997      -0.00976919
C        3.79478488       6.36780777       3.80776586      -0.00472094      -0.00780738       0.00269967
C        2.46288112       8.49317263       3.92862551       0.00230883      -0.00568846      -0.01595756
C        9.87566420      -0.04153451       3.69067585       0.00674532      -0.00153635       0.00312000
C        8.64563536       2.10870332       3.59346712       0.00015176       0.00067809      -0.00560130
C        7.42209349       4.26038301       3.52174525      -0.00024257      -0.00460198      -0.00182295
C        6.20857708       6.40293441       3.55319486       0.00094039      -0.00083966      -0.00197066
C        4.95608307       8.51187043       3.70173401      -0.00173312      -0.00152597      -0.00492565
C        0.01542092       1.41698408       3.68927917      -0.00495353       0.00110068       0.00870092
C       -1.24284979       3.52625908       3.68639911       0.00206695       0.00055018       0.00892193
C       -2.46139550       5.67588721       3.66226571       0.00281510      -0.01016836      -0.00345632
C       -3.67956045       7.82957344       3.64942053      -0.00326072       0.00401987       0.00186227
C       -4.90966139       9.98105054       3.66927389       0.00830271       0.00666407       0.00376841
C        2.47532150       1.49203645       3.74117401       0.00056174       0.00323225      -0.00099317
O        1.12782534       3.49668277       4.02885561      -0.01187077      -0.00282227       0.01293793
C       -0.04874658       5.62368184       4.04090374      -0.00527325       0.00411537      -0.00489882
C       -1.22849433       7.81822841       3.87846789       0.00078634      -0.00127320       0.00430112
C       -2.46138441       9.98299928       3.73484215      -0.00239358       0.00352601       0.00186233
C        4.93743964       1.42828440       3.66593591       0.00410418       0.00094977       0.00496038
O        3.80845091       3.53027288       3.63494481      -0.00097247       0.00131849       0.00132558
C        1.23133538       7.85890129       4.13375580       0.00082431       0.00073234      -0.00626980
C        0.00795573       9.96313837       3.79735151      -0.01528412       0.00345960       0.00072427
C        7.40884655       1.40022374       3.62618317      -0.00141133       0.00045945       0.00126738
C        6.18952643       3.53506775       3.52795382      -0.00380956       0.00055254       0.00000446
C        4.96546691       5.67138973       3.60801299      -0.00132310       0.00326600      -0.00552727
C        3.72169511       7.74726533       3.82984501       0.00042878      -0.00689767      -0.00962095
C        2.47637091       9.92558553       3.77493012      -0.00170302      -0.00122306       0.00345857
C        9.88053952       1.39019843       3.63196481       0.00186313       0.00286999       0.00179433
C        8.64323168       3.53841355       3.55488764       0.00291131      -0.00202669      -0.00269475
C        7.42574708       5.68452104       3.53278950       0.00280860      -0.00341811      -0.00713293
C        6.19735749       7.82483934       3.61312610      -0.00591153      -0.00024098       0.00353714
C        4.94830557       9.93729201       3.68597606       0.01157115      -0.00106196      -0.00012822
Ni       2.65058031       4.82279195       4.43591237       0.00963955      -0.00963957      -0.00362669
O        1.79196279       5.87734091       5.69681623       0.00353494       0.01118889      -0.00623508
