51
Lattice="12.336457 0.0 0.0 -6.168228499999997 10.683685154694365 0.0 0.0 0.0 15.0" Properties=species:S:1:pos:R:3:initial_magmoms:R:1:forces:R:3 energy=-436.4398750991922 free_energy=-436.4398750991922 stress="-0.004858096276403693 -0.0009486644178284139 -4.4464049261120444e-06 -0.0009486644178284139 0.002232782966339661 -5.852230608813927e-06 -4.4464049261120444e-06 -5.852230608813927e-06 -7.348626365269474e-06" pbc="T T T"
C       -0.00455682       0.02299963       3.86561866       0.00000000      -0.00452270       0.00708737      -0.00322462
C       -1.24493141       2.15722306       3.81923299       0.00000000      -0.00437139      -0.00274234      -0.00551076
C       -2.44878327       4.29625439       3.75565702       0.00000000      -0.00006812      -0.00306896       0.00044703
C       -3.66471675       6.43768936       3.75441588       0.00000000      -0.00270628       0.00129707      -0.00149631
C       -4.92599124       8.58008155       3.82954817       0.00000000       0.00369061       0.00313098       0.00541341
C        2.45915519       0.05244581       3.83379982       0.00000000      -0.00251468      -0.00061973       0.00064921
C        1.18478194       2.16478149       3.76890655       0.00000000       0.00611047       0.00119306      -0.00837995
C       -0.02033090       4.29968348       3.72113855       0.00000000      -0.00202307       0.00124334      -0.00421096
C       -1.20328446       6.41774401       3.79920141       0.00000000      -0.00538104      -0.00173566      -0.00172332
C       -2.45627468       8.57147358       3.84331220       0.00000000       0.00378309      -0.00156945      -0.00365646
C        4.93110309       0.02880480       3.74716942       0.00000000      -0.00091016       0.00379677      -0.00511944
C        3.68017564       2.15271336       3.50748106       0.00000000      -0.00036017       0.00665756      -0.00897335
O        1.18682076       6.43737982       3.77358927       0.00000000       0.00398065      -0.00917559       0.01134698
C        0.00033611       8.54595177       3.83223425       0.00000000      -0.00113768      -0.00326370       0.00594613
C        7.39510399       0.00284055       3.76115928       0.00000000       0.01014264      -0.00030650       0.00448742
C        6.17877875       2.14762190       3.49819994       0.00000000      -0.00414440      -0.00172413      -0.00100483
C        5.07953283       4.31427283       3.15513078       0.00000000       0.00636846       0.00047794      -0.00372738
B        3.82097712       6.39994091       3.86064990       0.00000000       0.00056381       0.00277248       0.01328406
C        2.43518389       8.52850042       3.85444636       0.00000000      -0.00007698      -0.00236383      -0.00450779
C        9.85588595       0.00038992       3.83785425       0.00000000       0.00767078       0.00569837      -0.00129843
C        8.63730048       2.14654466       3.71232313       0.00000000      -0.00888972       0.00291371       0.00193490
C        7.45193477       4.29431606       3.56141554       0.00000000       0.00250065       0.00082052      -0.00770087
C        6.24170335       6.45643298       3.60265658       0.00000000      -0.00367694      -0.00426375       0.00119647
C        4.93168444       8.55870212       3.84129660       0.00000000       0.00442907      -0.00205023      -0.00812425
C       -0.01326565       1.45449851       3.84212531       0.00000000       0.00125438       0.00444028      -0.00071584
C       -1.22538957       3.58690749       3.77498581       0.00000000      -0.00040259      -0.00434916      -0.00682315
C       -2.43628063       5.71341875       3.77622051       0.00000000      -0.00558374      -0.00299480      -0.00650416
C       -3.68852733       7.86487655       3.81482431       0.00000000       0.00373205       0.00168192       0.01540844
C       -4.93523895      10.00937094       3.86619476       0.00000000      -0.00670288       0.00459933       0.00459736
C        2.43850421       1.48586067       3.73055171       0.00000000       0.00574669      -0.00073467      -0.00539501
O        1.13532455       3.54537402       3.78107821       0.00000000      -0.00154422      -0.00096905      -0.00274697
C        0.00248728       5.71248232       3.74123589       0.00000000      -0.00379514       0.00229148       0.00516942
C       -1.22967176       7.84804747       3.83468037       0.00000000      -0.00118829      -0.00352903      -0.00001290
C       -2.47062153      10.00969207       3.82511571       0.00000000      -0.00040216      -0.00208832      -0.01136264
C        4.92401025       1.45977749       3.57143885       0.00000000      -0.00248089       0.00473758      -0.00382493
S        3.58767755       3.64742789       2.56967071       0.00000000      -0.00393487      -0.00624510       0.00573179
C        1.20153772       7.81772478       3.82725569       0.00000000      -0.00123598      -0.00617373      -0.00335668
C       -0.00107664       9.98214307       3.78617958       0.00000000       0.00447925       0.00130931      -0.00722191
C        7.40003524       1.43382346       3.66156690       0.00000000      -0.00302415      -0.00178979      -0.00308414
C        6.24426271       3.55799943       3.35589864       0.00000000       0.00331857      -0.00146723       0.00609280
C        5.05184864       5.72291213       3.41900235       0.00000000      -0.00676392      -0.00188243      -0.00076754
C        3.68515650       7.86348153       3.85918557       0.00000000       0.00109069      -0.00227901      -0.00602662
C        2.44791437       9.96135080       3.82684939       0.00000000       0.01299629       0.00108211      -0.00196102
C        9.86787075       1.43527624       3.80231504       0.00000000      -0.00761838       0.00485176       0.00497674
C        8.66030797       3.57239592       3.68526677       0.00000000      -0.00137572       0.00114780       0.00215531
C        7.45681954       5.72552628       3.63238743       0.00000000      -0.00382864      -0.00045005       0.00538093
C        6.18155598       7.86390861       3.77589884       0.00000000       0.00562136      -0.00461716       0.01217269
C        4.92971446       9.98587972       3.86203540       0.00000000       0.00267230       0.00175932       0.01111228
Ni       3.42926310       4.59195771       4.57691215       0.00000000      -0.00169820       0.00905564       0.00697028
O        1.28791912       5.01242486       6.05973344       1.00000000      -0.00245802       0.00165264       0.01473202
O        2.31104215       4.23904715       5.92326535       1.00000000       0.00466933      -0.00324496      -0.01074342
