49
Lattice="12.336457 0.0 0.0 -6.168228499999997 10.683685154694365 0.0 0.0 0.0 15.0" Properties=species:S:1:pos:R:3:forces:R:3 energy=-426.3227789912753 free_energy=-426.3227789912753 stress="-0.002714857037289409 -3.365974095714211e-05 -1.1985577368788548e-06 -3.365974095714211e-05 0.0011441328265947709 -1.1154613597634163e-05 -1.1985577368788548e-06 -1.1154613597634163e-05 1.7289491192231873e-06" pbc="T T T"
C       -0.00392208       0.00239564       3.88141280      -0.00291340      -0.00525124       0.00067426
C       -1.24561400       2.13514473       3.94259490      -0.00121183      -0.00034043      -0.00058033
C       -2.45821818       4.27514994       3.93435333       0.00212676       0.00348676      -0.00780964
C       -3.68608405       6.41024443       3.86666313      -0.00456087       0.00026446      -0.00093639
C       -4.93734851       8.55043220       3.84318284       0.00050463       0.00392654      -0.00142217
C        2.45350403       0.02408149       3.85559045      -0.00075720       0.00149968       0.00382715
C        1.19690160       2.12746949       3.83168063       0.00181092      -0.00180428       0.00097370
C       -0.03040014       4.27739442       3.99904863       0.00213507       0.00651188      -0.00793611
C       -1.22675294       6.40353671       4.00286931       0.00007535      -0.00467106       0.00239236
C       -2.46862556       8.54763109       3.93605492       0.00321221      -0.00236724       0.00422982
C        4.92566956       0.00084168       3.80246303      -0.00376416       0.00894175      -0.00124020
C        3.68314613       2.08883340       3.39611939       0.00337512       0.00100511      -0.00028205
O        1.16603894       6.44081390       4.05624498      -0.01000098       0.00684302       0.00125956
C       -0.00916137       8.53124652       3.94371703       0.00090902       0.00009243       0.00006316
C        7.39083956      -0.01609197       3.83399030      -0.00282759       0.00348920       0.00255282
C        6.17327501       2.12309752       3.55438579       0.00170977      -0.00132908      -0.00713046
C        5.08063184       4.28330335       3.08706042      -0.00713745      -0.00425328       0.00643357
B        3.78304866       6.43361219       3.29791782       0.00525709       0.00222041      -0.00533295
C        2.43305869       8.51288908       3.82230144       0.00177269       0.00137932      -0.00518621
C        9.85484264      -0.01550449       3.87313806      -0.00063246      -0.00586521      -0.00301155
C        8.63018378       2.12921261       3.82532804       0.00273239      -0.00447115       0.00366998
C        7.43672856       4.27036114       3.66243632      -0.00065136      -0.00779960      -0.00399171
C        6.21516602       6.41727078       3.57074114      -0.00085874       0.00554927       0.00129448
C        4.92955129       8.54379122       3.73386905       0.00070601       0.00262566       0.00055745
C       -0.00493383       1.43640328       3.90759059      -0.00002014      -0.00415011       0.00176640
C       -1.23062837       3.56069794       3.98026885       0.00233317       0.00502758      -0.00054283
C       -2.45571514       5.69041165       3.94857558      -0.00237278       0.00261560      -0.00583838
C       -3.70286455       7.83755186       3.89225257       0.00034731       0.00125715       0.00313131
C       -4.94000890       9.98310609       3.88013605      -0.00125128      -0.00001087       0.00170491
C        2.44100973       1.46433506       3.72418500       0.00378632       0.00014745      -0.00115684
O        1.15828156       3.51952579       3.96688081      -0.00267732       0.00012684       0.00344683
C       -0.02907107       5.68248198       4.01250401       0.00455812       0.00579080       0.00081288
C       -1.24399885       7.83139222       3.97785918       0.00316797      -0.00698503       0.00313307
C       -2.47939725       9.98443025       3.87463141      -0.00112210       0.00288061       0.00626968
C        4.92191051       1.42596872       3.58547199       0.00329717       0.00386737      -0.00812877
S        3.67772673       3.52852315       2.40245086      -0.00479642      -0.01210381       0.00272642
C        1.20017256       7.83528915       3.91450124       0.00007531       0.00133801      -0.00215487
C       -0.00740104       9.96267557       3.86375261      -0.00439727       0.00508431       0.00411214
C        7.39158902       1.41754987       3.74743324      -0.00004129       0.00135682       0.00238665
C        6.22068150       3.54013035       3.42328886      -0.00408502      -0.00371287      -0.00051058
C        5.03757609       5.68110746       3.26604678       0.00445862      -0.00010807       0.00386497
C        3.68372757       7.85434556       3.64842841       0.00436043       0.00386289      -0.00102803
C        2.44583348       9.94823911       3.86251642      -0.00168849       0.00010602       0.00064231
C        9.86548655       1.41832591       3.89723203       0.00038781      -0.00613326       0.00489110
C        8.64802999       3.55470833       3.82242729       0.00535154      -0.00433612      -0.00409025
C        7.43644774       5.69686438       3.70663146      -0.00527900      -0.00394027      -0.00024996
C        6.17193201       7.83614184       3.71663000      -0.00096436       0.00654199       0.00055151
C        4.93014207       9.96914139       3.85003608      -0.00189315      -0.00291375       0.00004859
Ni       2.45440571       5.02204515       3.52982451       0.00745389      -0.00529219       0.00114321
