50
Lattice="12.336457 0.0 0.0 -6.168228499999997 10.683685154694365 0.0 0.0 0.0 15.0" Properties=species:S:1:pos:R:3:forces:R:3 energy=-445.85801576725356 free_energy=-445.85801576725356 stress="-0.007067884726616963 -0.0023718869189025904 -8.52666917095205e-06 -0.0023718869189025904 -0.004335949513411728 8.411123527305535e-07 -8.52666917095205e-06 8.411123527305535e-07 5.675547611644402e-07" pbc="T T T"
C       -0.00239708      -0.00632508       3.59057738       0.00940803      -0.00051737      -0.00355088
C       -1.26117323       2.11071961       3.55083579      -0.00193281       0.00402630       0.00462849
C       -2.50178933       4.26013858       3.55075432      -0.00419460      -0.00152914      -0.00093288
C       -3.70628377       6.40935592       3.59108524       0.00603420      -0.00262937      -0.00115193
C       -4.92380600       8.55141723       3.61018164       0.00399182       0.00373065       0.00808245
C        2.47196069       0.00614829       3.66299599       0.00495794      -0.00095641       0.00080953
C        1.21397151       2.12206596       3.68008096      -0.00090021      -0.00528041      -0.00328035
C       -0.06631581       4.23324824       3.68174128      -0.00022066      -0.00003176       0.01120709
C       -1.25484855       6.39765059       3.67920786      -0.00147906       0.00568184       0.00452926
C       -2.45756351       8.54533877       3.66478675      -0.00776241       0.00243214      -0.00470441
C        4.93661847      -0.00086450       3.72964425      -0.01139387      -0.00158293      -0.00642342
C        3.70005629       2.14524515       3.80203916      -0.00273472      -0.00319434       0.00097049
B        2.41223335       4.26585853       4.06714408       0.00978021       0.00507163      -0.00015320
B        1.20108855       6.36380264       4.06445970       0.00202021       0.00383745       0.00362273
C        0.00855716       8.53922801       3.80268335      -0.00051019      -0.00116367      -0.00120569
C        7.40067128      -0.00890705       3.72213100      -0.00454060       0.00248702      -0.00013588
C        6.16115008       2.13726804       3.72129475       0.00507857       0.00126679       0.00182719
C        4.94051028       4.29520976       3.88176839      -0.00744247       0.00793047      -0.00988295
N        3.85223684       6.49613515       4.19115024      -0.00525741      -0.00566316      -0.00456441
C        2.49086393       8.53833601       3.88022497       0.00316572      -0.00493869      -0.00250960
C        9.86387452      -0.01424523       3.63973523      -0.00138283       0.00478105      -0.00062105
C        8.61730526       2.12487385       3.59557491       0.00947073       0.00040975      -0.00136289
C        7.38841486       4.27380056       3.63863329       0.00024388      -0.00859349       0.00351958
C        6.17950810       6.42545224       3.70350132       0.00105281       0.00052338      -0.00073066
C        4.95552221       8.54677115       3.70308707      -0.00937081      -0.00209443      -0.00427123
C       -0.01842818       1.40780478       3.58652998      -0.00273590      -0.00133505      -0.00260519
C       -1.28553651       3.52931335       3.55727057      -0.00538007       0.00260634       0.00500109
C       -2.48977457       5.68792352       3.58556963       0.00337499      -0.00212772       0.00237198
C       -3.69284061       7.83583348       3.61415931      -0.00002712      -0.00097212      -0.00615711
C       -4.92870436       9.97526505       3.61194255       0.01136499       0.00124367       0.00332578
C        2.46530399       1.43004516       3.72385153      -0.00060830      -0.00579115      -0.00379721
C        1.15322170       3.52561696       3.76606642       0.00116209      -0.00246516       0.01598027
C       -0.06987580       5.64315353       3.76676255       0.00011304       0.00216358       0.00495409
C       -1.22802439       7.82727506       3.72431655      -0.00548117       0.00709540      -0.00282643
C       -2.46267032       9.97222468       3.68772242      -0.00673813      -0.00220729       0.00336202
C        4.93288329       1.42426113       3.75385677      -0.00112874      -0.00073251      -0.00743443
C        3.73033512       3.56790562       3.92424209      -0.00124399       0.00388998      -0.00131856
C        1.25574243       7.85426693       3.92417381       0.00894802      -0.00605881      -0.00805150
C        0.00094681       9.96735778       3.75422489      -0.00973231       0.00000842      -0.00500083
C        7.39069204       1.41642179       3.66908362       0.01033125       0.00334410       0.01019275
C        6.16173240       3.56849095       3.73870460      -0.00513089       0.00114367       0.00076574
C        4.96589364       5.73537649       3.91607983      -0.00736590       0.00317270      -0.00023548
C        3.75098265       7.84070051       3.91458229      -0.00767978      -0.01099424       0.00246222
C        2.47191184       9.95935516       3.73941533      -0.00262848       0.00191534      -0.00323675
C        9.84762030       1.40494610       3.57451274       0.00429230       0.00311333      -0.00285977
C        8.60945080       3.55031195       3.57350948       0.00052097      -0.00441199       0.00039366
C        7.39766071       5.69920872       3.62667450       0.00565953      -0.00543321      -0.00710167
C        6.18109971       7.84015011       3.65943409      -0.00187778       0.00522792       0.00743034
C        4.93481089       9.96494949       3.62611790       0.00168537       0.00359746      -0.00215703
Ni       2.62347950       5.78882520       5.28653692       0.01422457       0.00000406       0.00282663
