52
Lattice="12.336457 0.0 0.0 -6.168228499999997 10.683685154694365 0.0 0.0 0.0 15.0" Properties=species:S:1:pos:R:3:forces:R:3 energy=-440.7844661802998 free_energy=-440.7844661802998 stress="-0.0049796025522517405 -0.0006005904252908145 4.746565947554169e-06 -0.0006005904252908145 0.0013361794280761946 1.507688661730796e-05 4.746565947554169e-06 1.507688661730796e-05 -6.337747744207701e-06" pbc="T T T"
C       -0.00122952      -0.02371176       3.92922337      -0.00054530       0.00178871      -0.00784645
C       -1.24129125       2.11205491       3.93590991      -0.00091125       0.00127860      -0.00416514
C       -2.44524465       4.24985902       3.91046527       0.00644658      -0.00128918      -0.00041857
C       -3.66423085       6.39022934       3.87161755      -0.00359403      -0.00500408      -0.00109933
C       -4.92619452       8.53220172       3.89670490       0.00353129      -0.00386308       0.00487419
C        2.45887489       0.00468914       3.88218921       0.00312467      -0.00318846      -0.00092493
C        1.18438469       2.11280354       3.78956033      -0.00442933      -0.00090204      -0.00009024
C       -0.01835974       4.25380118       3.84682786      -0.00631974      -0.00555534       0.00139007
C       -1.20467209       6.37164297       3.93752901      -0.00116383       0.00625773       0.00651608
C       -2.45675303       8.52438314       3.93749259       0.00186141       0.00668651       0.00261217
C        4.93077300      -0.01858440       3.82555008       0.00145834       0.00103559      -0.00761904
C        3.68513364       2.09931475       3.52793300      -0.00192408      -0.00648944      -0.00167008
O        1.18077762       6.39801427       3.86018021      -0.00105786      -0.00693740       0.00130129
C       -0.00178439       8.50159910       3.92581825      -0.00374776       0.00163605      -0.00473377
C        7.39574179      -0.04299562       3.86103932      -0.00492439      -0.00183711       0.00072154
C        6.18344995       2.09739836       3.59390379      -0.00195324       0.00165793       0.00026102
C        5.09306730       4.25295876       3.19861373       0.00296834       0.00987526       0.00131879
B        3.83438780       6.38216078       3.72144396       0.00830684      -0.00314555      -0.00129652
C        2.43285718       8.48610691       3.89024181       0.00051654       0.00269732      -0.00530583
C        9.85816987      -0.04529958       3.92483146       0.00543766       0.00682711      -0.00220874
C        8.63903072       2.09999554       3.84100418       0.00125406       0.00231023       0.00546339
C        7.45627255       4.24504902       3.67559941      -0.00100821       0.00147077       0.00878461
C        6.24800882       6.40676197       3.64558518      -0.00186764       0.00613048      -0.01245800
C        4.93523187       8.51607139       3.86030910       0.00073116      -0.00462045      -0.00598207
C       -0.00924041       1.40711064       3.90984305      -0.00352605       0.00352792       0.00216126
C       -1.22031309       3.54239805       3.92876173      -0.00081914      -0.00667308      -0.01356593
C       -2.43506313       5.66719061       3.91947436       0.00176163      -0.00122768      -0.00068706
C       -3.68887351       7.81752801       3.90956085       0.00467624      -0.00291820       0.01170182
C       -4.93440559       9.96190858       3.92468960       0.00012784      -0.00174607      -0.00523410
C        2.43856202       1.43673493       3.74904155      -0.00323788      -0.00335598       0.00172787
O        1.12715364       3.48785708       3.74096756       0.00007825       0.00059580       0.00420142
C        0.00365234       5.66545232       3.86666960      -0.00733025      -0.00410221      -0.00372897
C       -1.23055444       7.80119147       3.94650137      -0.00315916       0.00699021       0.00391977
C       -2.47130137       9.96213327       3.89396015       0.00545692       0.00372226       0.00379989
C        4.92656703       1.41028283       3.63916788      -0.00032295      -0.00209522      -0.00298623
S        3.63133650       3.57227308       2.56041099       0.00686356       0.00083539       0.00375374
C        1.19880137       7.77477573       3.88657230      -0.00288637       0.00046319       0.00213874
C       -0.00200462       9.93661248       3.87774946      -0.00522463      -0.00086234      -0.00607120
C        7.40225555       1.38673642       3.77402682      -0.00191420      -0.00058417       0.00312452
C        6.25283274       3.50519169       3.45121957      -0.00266569       0.00480214       0.00615041
C        5.07077256       5.66926574       3.40372095       0.00134770       0.00276889       0.00875246
C        3.68579199       7.82928658       3.83291740       0.00105311      -0.00542980      -0.00462447
C        2.44889600       9.91627263       3.90775434       0.00252242       0.00657289      -0.00444462
C        9.87042810       1.38955877       3.92035443       0.00300971       0.00541266      -0.00132266
C        8.66335485       3.52571800       3.82363786       0.00443516       0.00288160       0.00683353
C        7.46062172       5.67666686       3.73118434      -0.00906594       0.00091589       0.00059671
C        6.18231419       7.81594095       3.81489148       0.00209007       0.00026671      -0.01056478
C        4.93322911       9.94068342       3.92350200       0.00163048      -0.00273780       0.00397248
Ni       3.36739975       4.62380082       4.47427819       0.00142002      -0.00049049       0.00636576
O        2.13411570       4.68565867       5.74328918       0.00069856      -0.01091899       0.00314115
O        2.06932855       6.00921390       6.36897156       0.00841779      -0.01204349      -0.00302148
H        2.57176031       5.82233296       7.19353423      -0.00762748       0.00860982       0.00648555
