51
Lattice="12.336457 0.0 0.0 -6.168228499999997 10.683685154694365 0.0 0.0 0.0 15.0" Properties=species:S:1:pos:R:3:forces:R:3 energy=-445.28591714789826 free_energy=-445.28591714789826 stress="0.001938887307654932 9.040637371818625e-07 -3.8195067773416126e-06 9.040637371818625e-07 0.001939005803246118 1.2617718898386148e-06 -3.8195067773416126e-06 1.2617718898386148e-06 4.993472797995682e-06" pbc="T T T"
C       -0.00471027      -0.00002346       3.69139916       0.00630783      -0.00360952       0.01281561
C       -1.23001789       2.14379153       3.69591899       0.00128189      -0.00228884      -0.00563608
C       -2.45797858       4.27072877       3.69639669      -0.00086634       0.00148955      -0.00749780
C       -3.70190299       6.40376452       3.69120249       0.00009993       0.00693735       0.01323819
C       -4.94332104       8.54026343       3.69903785      -0.00400401      -0.00214366      -0.00872965
C        2.46630264       0.00682432       3.69891132       0.00051493       0.00403090      -0.00920991
C        1.23844379       2.14955822       3.72348737      -0.00142833       0.00235312       0.00079075
C        0.04328702       4.29678051       3.75782110      -0.00100188      -0.00005428       0.00458179
C       -1.21869069       6.40548864       3.72292681       0.00075268      -0.00205151       0.00239136
C       -2.46034421       8.54019261       3.69862256       0.00271629      -0.00111773      -0.00954961
C        4.93729425      -0.00003726       3.69141065      -0.00593429      -0.00371578       0.01329829
C        3.69415955       2.14956371       3.72359648       0.00173249       0.00248171       0.00241435
O        2.46636195       4.20661920       3.82043381      -0.00059635       0.00297147       0.00150644
O        1.17658363       6.44041577       3.82045061       0.00279797      -0.00148735      -0.00190465
C        0.00920946       8.53227717       3.72339237       0.00203202       0.00018368       0.00223606
C        7.40654201      -0.01078783       3.69696045      -0.00218822      -0.00011578      -0.00734772
C        6.16260984       2.14376328       3.69722278      -0.00118068      -0.00218710      -0.00697097
C        4.88944115       4.29678905       3.75901553      -0.00037712       0.00053058       0.00357903
O        3.75597783       6.44032294       3.82125578      -0.00227116      -0.00065105       0.00210657
C        2.46639254       8.49373244       3.75887956      -0.00041296       0.00046265       0.00411749
C        9.86249422      -0.01077152       3.69635154       0.00290744      -0.00011880      -0.00559465
C        8.63449911       2.13456171       3.68329488       0.00060818       0.00029246       0.01611644
C        7.39063580       4.27071787       3.69697711       0.00086863       0.00204170      -0.00623207
C        6.15136296       6.40554648       3.72401154      -0.00147825      -0.00269436       0.00179994
C        4.92352866       8.53228256       3.72429250      -0.00301608      -0.00042633       0.00084222
C       -0.00268554       1.42796424       3.69818613       0.00179199      -0.00338959       0.00759919
C       -1.21184456       3.57221521       3.70892141      -0.00069555      -0.00089328      -0.00624212
C       -2.46422236       5.69152920       3.69814055      -0.00198942       0.00268133       0.00744369
C       -3.70184249       7.82953478       3.69568278      -0.00042081       0.00510692      -0.00523133
C       -4.93815531       9.97075418       3.69616463       0.00449036      -0.00243173      -0.00706049
C        2.46629413       1.42406256       3.71292377       0.00038666       0.00568611      -0.00359836
C        1.23201342       3.53187549       3.78419190      -0.00091482       0.00172005      -0.00032764
C       -0.02484930       5.70870570       3.78392728       0.00105797      -0.00069359      -0.00034674
C       -1.23296183       7.83158559       3.71256099       0.00378045      -0.00218122      -0.00410028
C       -2.46567605       9.97070426       3.69569058      -0.00398919      -0.00197850      -0.00492429
C        4.93527043       1.42795308       3.69888543      -0.00166434      -0.00376281       0.00672504
C        3.70069676       3.53186387       3.78458706      -0.00010234       0.00209057       0.00076547
C        1.20955174       7.84675751       3.78456191       0.00116529      -0.00049214       0.00000697
C        0.00474371       9.96791895       3.69866499      -0.00390747       0.00004611       0.00717453
C        7.40176987       1.42283233       3.68823319       0.00005731      -0.00020530      -0.00285523
C        6.14453254       3.57218482       3.71020474      -0.00007054      -0.00017434      -0.00698150
C        4.95751449       5.70872256       3.78498346      -0.00172313      -0.00049416       0.00080487
C        3.72318666       7.84671035       3.78535910      -0.00196388      -0.00034429      -0.00081654
C        2.46631187       9.94297541       3.70970540       0.00026522       0.00077551      -0.00646809
C        9.86723696       1.42285774       3.68735253       0.00092018      -0.00029080      -0.00210377
C        8.63454461       3.55800719       3.68794285       0.00017856       0.00074270      -0.00300234
C        7.39686769       5.69152851       3.69878676       0.00193739       0.00318098       0.00701249
C        6.16576496       7.83167229       3.71344010      -0.00542849      -0.00346951      -0.00376109
C        4.92785675       9.96793190       3.69860095       0.00411047      -0.00040682       0.00775619
Ni       2.46529660       5.69589499       5.06754270       0.00412681      -0.00185578       0.00466795
O        2.46080967       5.69563331       6.86209257       0.00073671      -0.00007951      -0.00529799
