53
Lattice="12.336457 0.0 0.0 -6.168228499999997 10.683685154694365 0.0 0.0 0.0 15.0" Properties=species:S:1:pos:R:3:forces:R:3 energy=-455.02624991090386 free_energy=-455.02624991090386 stress="0.0006995333892036819 -3.056675437249139e-05 4.879470822014265e-05 -3.056675437249139e-05 0.0007453517819253888 2.4862363891621205e-05 4.879470822014265e-05 2.4862363891621205e-05 1.466285614066762e-05" pbc="T T T"
C       -0.01030891      -0.00388304       3.73574700      -0.00292485       0.00754183      -0.00711517
C       -1.23741330       2.13975143       3.75389034       0.00648615       0.00422217       0.00306735
C       -2.46451055       4.26598225       3.75386017       0.00219240      -0.00025957      -0.00285066
C       -3.70775398       6.40061488       3.73007771      -0.00214151      -0.01624595      -0.00524962
C       -4.94751577       8.53733728       3.72052762      -0.00904455       0.00206750       0.00255226
C        2.45991851       0.00227494       3.72762312       0.00166181      -0.00402876      -0.00838168
C        1.22976982       2.13976157       3.76915411       0.00621197      -0.00163793       0.00177785
C        0.03771272       4.29276868       3.82806908      -0.01454687      -0.00055491       0.00445978
C       -1.23227357       6.40243563       3.77768735       0.00491189       0.00707106       0.00053145
C       -2.46771726       8.53658278       3.73039483       0.00180780       0.00464628      -0.00460959
C        4.93025046      -0.00488053       3.72730495      -0.00027346       0.00962661      -0.00720508
C        3.68958065       2.13969444       3.73732586      -0.00103692      -0.00331312       0.00257547
O        2.46073797       4.17965713       3.84379740      -0.00532275      -0.01360979      -0.00304833
O        1.14883431       6.44864841       3.86229990       0.00577195      -0.01050872      -0.00702108
C       -0.00249825       8.53275142       3.75384637       0.00497909       0.00275457       0.01068731
C        7.40005194      -0.01508026       3.74062786      -0.00455829      -0.00046414      -0.00981945
C        6.15612781       2.13933774       3.73037888      -0.00214929       0.00755607      -0.01207485
C        4.88091424       4.29421221       3.74390969       0.00863283      -0.00126041      -0.00370527
O        3.77255047       6.44971603       3.73408772       0.00941920      -0.00366774       0.00942607
C        2.46039557       8.48820331       3.77614920      -0.00233626       0.00584975       0.00350759
C        9.85510225      -0.01364495       3.74137824       0.01420817      -0.00379627       0.00361661
C        8.62719481       2.13002040       3.73965088       0.00636296       0.00412811      -0.00487911
C        7.38488990       4.26534234       3.72608224      -0.00060979       0.00483263       0.00302342
C        6.15372078       6.40287934       3.71478639       0.00002559       0.00747939       0.00284275
C        4.92382361       8.53510353       3.73677134      -0.00758230      -0.00500524      -0.00679925
C       -0.01081661       1.42221478       3.75036334       0.00584599       0.00915887       0.00813115
C       -1.21911672       3.56743389       3.77214315      -0.00558246      -0.00116411       0.00905055
C       -2.47329540       5.68701732       3.75109190       0.00857985      -0.00555932       0.00735701
C       -3.70779086       7.82610387       3.72612992      -0.00278695      -0.00884654      -0.00735002
C       -4.94386102       9.96701480       3.72700074      -0.00600132       0.00476065       0.00092172
C        2.45914609       1.41798370       3.74059089       0.00417277      -0.00936663       0.00343236
C        1.22498621       3.52255635       3.83947350      -0.01074295      -0.00187925       0.00657522
C       -0.03847905       5.70562086       3.85050224      -0.00025045       0.00007893      -0.00082610
C       -1.24268231       7.82814181       3.74997433       0.00500717       0.00870185       0.00229805
C       -2.47266986       9.96640596       3.72401472       0.00484700       0.00654375       0.01048260
C        4.92984514       1.42169839       3.72731912      -0.00068442       0.00906273       0.00177734
C        3.69690528       3.52223897       3.77861223       0.00452220      -0.00415558       0.00557880
C        1.19868004       7.84904854       3.80908839       0.00383215      -0.00478160       0.00382204
C       -0.00281707       9.96549206       3.73628442      -0.00662987       0.00210003       0.00104249
C        7.39504388       1.41828878       3.73536947      -0.00064959       0.00360317      -0.00342660
C        6.13887878       3.56718174       3.72598314       0.00561918       0.00383498       0.00707212
C        4.95637875       5.70782203       3.73496793       0.00926331      -0.00111760       0.00553094
C        3.72285454       7.84545496       3.76989429      -0.00728629      -0.00435146      -0.00427059
C        2.45965680       9.94037579       3.74754350       0.00440619       0.00607571      -0.00721554
C        9.85987751       1.41903420       3.74301777       0.01156530       0.00030429       0.00072802
C        8.62823271       3.55312248       3.73892084      -0.00032078       0.00688715      -0.00923847
C        7.39430674       5.68672604       3.72048572      -0.00998858      -0.00255383       0.00412052
C        6.16369558       7.82976737       3.71998587      -0.01005284       0.00221638       0.00431671
C        4.92257501       9.96762138       3.73768776       0.00625400      -0.00829046      -0.00151651
Ni       2.49905766       5.71472934       5.09248515      -0.01167045      -0.01078717      -0.00567877
O        3.31046789       5.91384217       6.67235188      -0.01160093       0.01010330      -0.00934928
O        2.28859883       5.58872795       7.68510371      -0.00088446      -0.00704043       0.00117962
H        2.85328191       5.67263068       8.47762405      -0.00892774      -0.00696121       0.00014584
