49
Lattice="12.336457 0.0 0.0 -6.168228499999997 10.683685154694365 0.0 0.0 0.0 15.0" Properties=species:S:1:pos:R:3:forces:R:3 energy=-426.37131337078137 free_energy=-426.37131337078137 stress="2.2060772773191506e-05 -0.0019132246627226203 1.5446035329972666e-08 -0.0019132246627226203 0.0048968533332832825 8.104108861031686e-06 1.5446035329972666e-08 8.104108861031686e-06 -1.8160463637719388e-06" pbc="T T T"
C       -0.00366823       0.01117370       3.84810971       0.00374519      -0.00376578      -0.00398842
C       -1.25437460       2.13343382       3.87357164       0.00390977       0.00610937       0.00123255
C       -2.47831032       4.27306584       3.89890497       0.00111468      -0.00634852      -0.00846388
C       -3.69594916       6.41256303       3.88182068      -0.00030567      -0.00005359       0.00528593
C       -4.93243947       8.56133612       3.86820731       0.00759214      -0.00268937      -0.00403404
C        2.45814627       0.03364780       3.80439612       0.00429308      -0.00569893       0.00163323
C        1.19817520       2.13646114       3.76674156      -0.00780308      -0.00209834       0.00372777
C       -0.04959208       4.27951636       3.93549356       0.00592518      -0.00648467       0.00524871
C       -1.23124935       6.39738525       3.95723409      -0.00376115      -0.00009450       0.00325328
C       -2.45862854       8.54900110       3.89550839      -0.00315136       0.00790243       0.00159960
C        4.93406050      -0.00317567       3.74554348       0.00442858      -0.00085154       0.00791328
C        3.68627504       2.10937961       3.36435691      -0.01119743      -0.00562873       0.00822348
O        1.16235858       6.40661831       3.99473998       0.00412373      -0.00182817      -0.00068569
C        0.01416416       8.51516261       3.88051548      -0.00461871       0.00963855      -0.00101996
C        7.40296030      -0.02852112       3.77267634       0.00220310       0.00370644       0.00930996
C        6.16073980       2.14210805       3.58753050      -0.00094798      -0.00054227       0.00110075
C        4.95976851       4.34652163       3.32922661      -0.00699578      -0.00683698      -0.00929254
O        3.80876107       6.45400336       3.56347636      -0.00090713       0.00256222      -0.00549677
C        2.46927131       8.45591746       3.82175077       0.00019146      -0.00041101       0.00536140
C        9.85211406      -0.02792127       3.82977573      -0.00307377       0.01130190       0.00040855
C        8.61956327       2.12830278       3.79596645      -0.00238509       0.00045489       0.01016350
C        7.39153644       4.27876264       3.73684741       0.00670786       0.00158324       0.00015169
C        6.19425919       6.43894393       3.70871532      -0.00099395      -0.00216682       0.00077059
C        4.93318554       8.53917379       3.81348169      -0.00086752      -0.00679332       0.00262431
C       -0.00741179       1.44440690       3.83947602      -0.00192759      -0.00119080      -0.00043823
C       -1.24487709       3.56091248       3.91299007       0.00366324       0.00044588      -0.00774633
C       -2.46583077       5.68856179       3.92336411      -0.00347589      -0.00642497      -0.00240272
C       -3.69671824       7.84142734       3.89357384       0.00348238       0.00072354      -0.00753870
C       -4.93341101       9.99762831       3.85755194       0.00827912      -0.00343257       0.00546268
C        2.44260999       1.46898337       3.65603183      -0.01087129      -0.00976278      -0.00243420
O        1.15611890       3.53458326       3.90544437       0.00043232      -0.00090292       0.00923664
C       -0.03672913       5.67520364       3.96975567      -0.00083280      -0.00518892      -0.00036102
C       -1.23468824       7.82482855       3.92376827      -0.00584624       0.00784206      -0.00252773
C       -2.47352049       9.98511708       3.82287985       0.00470436       0.00144955      -0.00517770
C        4.92269217       1.42393562       3.56235829      -0.00641946      -0.00403044       0.00544474
P        3.76898456       3.51499393       2.28644986       0.00850779       0.01503351      -0.00133586
C        1.21127077       7.81121365       3.88532177      -0.00176908       0.00386577      -0.00015367
C        0.00260335       9.95466191       3.79955066       0.00329943       0.00533851      -0.00078395
C        7.38831340       1.41644523       3.72244208      -0.00000793       0.00047514       0.00090122
C        6.16108296       3.57903541       3.55880827       0.00497306       0.00175838      -0.00536419
C        5.00895048       5.75350282       3.48328207      -0.00159542      -0.00392760      -0.00190142
C        3.73990570       7.84174420       3.76983448      -0.00182508      -0.01054200      -0.00226227
C        2.46044444       9.91660494       3.80999749      -0.00107313       0.00257263       0.00279681
C        9.85771068       1.41572051       3.84218199       0.00067251       0.01182972      -0.00412018
C        8.62075704       3.55778591       3.81959238       0.00225444      -0.00339911      -0.00480757
C        7.41461525       5.70112865       3.78380317       0.00155479       0.00118219       0.00347399
C        6.18514511       7.85258024       3.80909963       0.00547664      -0.00311871      -0.00369997
C        4.92780965       9.97054039       3.84488270      -0.00360499      -0.00043426      -0.00525303
Ni       2.56043815       4.90414275       3.59768771      -0.00527733       0.00887167      -0.00403460
