52
Lattice="12.336457 0.0 0.0 -6.168228499999997 10.683685154694365 0.0 0.0 0.0 15.0" Properties=species:S:1:pos:R:3:forces:R:3 energy=-441.39023388970344 free_energy=-441.39023388970344 stress="0.0005052010211838797 -0.0025781875940692357 1.891295171028059e-05 -0.0025781875940692357 0.005782469231832418 -2.2973541061548624e-05 1.891295171028059e-05 -2.2973541061548624e-05 1.1497404361044702e-05" pbc="T T T"
C        0.03657639       0.00709402       3.88156239      -0.00528908      -0.00593704      -0.00268327
C       -1.21095816       2.13536087       3.89738721      -0.00073021      -0.00393720       0.00904066
C       -2.42786196       4.27139839       3.89646429       0.00543766      -0.00183628       0.00104546
C       -3.64610839       6.41288041       3.88109449      -0.00474605       0.00406022       0.00373448
C       -4.88594314       8.56032901       3.87327791       0.00270756       0.00635664       0.00410687
C        2.50149606       0.02525250       3.83385134      -0.00565789      -0.01118714      -0.00453256
C        1.23437256       2.13673683       3.82633988       0.00145896      -0.00163987      -0.00459966
C        0.00983890       4.27977755       3.90114956      -0.00477657       0.00232968      -0.01162184
C       -1.17337325       6.39294149       3.92135589       0.00268591      -0.00362975       0.00154095
C       -2.41031186       8.54768979       3.89575169       0.00387719       0.00280619       0.00131685
C        4.97925915       0.00405532       3.79955765       0.00083194       0.00351176       0.00035151
C        3.72522342       2.15109179       3.52833922       0.00354803      -0.00780496       0.00035992
O        1.23433915       6.39657633       3.94534051       0.00747139      -0.00484689      -0.00313732
C        0.06017879       8.51231219       3.88562951      -0.00484275      -0.00127317      -0.00184890
C        7.44791791      -0.03010797       3.82718592       0.00444660      -0.00088398      -0.00269153
C        6.20188163       2.14546906       3.68654545       0.00029059      -0.00012739      -0.00245375
C        4.98826217       4.34342033       3.45967923       0.00405836       0.00256815       0.00116331
O        3.84536017       6.46178137       3.56155479      -0.00094305      -0.00017827      -0.00189210
C        2.51512597       8.45495903       3.82503700      -0.00333501      -0.00334944       0.00905466
C        9.89527255      -0.03001263       3.86518307       0.00649202       0.00397910       0.00276925
C        8.66492911       2.12667759       3.84154871      -0.00772042       0.00098626       0.00370872
C        7.43766617       4.27827709       3.77669642       0.00364752      -0.00462072      -0.00444505
C        6.23525866       6.44042315       3.72722112      -0.00057545       0.01055601      -0.00022312
C        4.97970896       8.53960194       3.82176899      -0.00015333      -0.00354141       0.00698050
C        0.02395780       1.43799004       3.88171806       0.00036647      -0.00561413      -0.01260308
C       -1.18984549       3.56583726       3.90636533       0.00108217      -0.00386170       0.00424192
C       -2.41184443       5.68982520       3.91011916      -0.00032964      -0.00066279      -0.01167093
C       -3.64756150       7.84069640       3.88962862       0.00213514       0.00772268       0.00671100
C       -4.89293687       9.99275747       3.87636790      -0.00766746      -0.00332663       0.00587156
C        2.46911471       1.45070927       3.73669081       0.00306932      -0.01067292       0.00933840
O        1.20290864       3.53192239       3.92383508      -0.00641336       0.00321262       0.01792730
C        0.04501506       5.68610303       3.89992803       0.00327128       0.00015563       0.00504045
C       -1.18159650       7.81936274       3.91184620      -0.00041001      -0.00391054      -0.00194593
C       -2.42569815       9.98103745       3.84810658       0.00025636       0.00078967      -0.00022480
C        4.97516089       1.42822522       3.66868336       0.00302901      -0.00002761       0.00199650
P        3.79139127       3.53916248       2.38552556       0.00544397      -0.00077920      -0.00546763
C        1.25773089       7.77687504       3.87576168      -0.00491429      -0.00150793       0.00027888
C        0.04848286       9.95220608       3.83918250       0.00050179       0.00171334       0.00347834
C        7.43620783       1.41254761       3.79069297      -0.00560194      -0.00038841       0.00494378
C        6.21027282       3.57811700       3.63947365       0.00336292      -0.00223349      -0.00007490
C        5.03636468       5.77888937       3.52153662       0.00256372       0.00648976      -0.00364462
C        3.78830855       7.82157855       3.75099803      -0.00222658      -0.00033638       0.00029750
C        2.50606652       9.90499567       3.84497883       0.00846997       0.00024247      -0.00934662
C        9.90109998       1.41421543       3.87748561      -0.00506255       0.00483500       0.00235378
C        8.67088555       3.55613558       3.84663269       0.00444706      -0.00222823       0.00647082
C        7.46120541       5.70443286       3.80490647      -0.00492290      -0.00048869      -0.00382009
C        6.22847573       7.85372229       3.81753815       0.00516945       0.00884309      -0.00004323
C        4.96941294       9.96722759       3.87056834       0.00038367      -0.00565566      -0.00565695
Ni       3.12714912       3.96728398       4.43781374      -0.00369029       0.00664486      -0.00178095
O        2.76291374       5.15433917       5.76433291      -0.00675656       0.01035638      -0.01379212
O        1.48458724       4.85895419       6.33089030      -0.00290077       0.00748556      -0.01199115
H        1.43657663       5.56343895       7.01058184      -0.00083990       0.00084274       0.00806874
