50
Lattice="12.336457 0.0 0.0 -6.168228499999997 10.683685154694365 0.0 0.0 0.0 15.0" Properties=species:S:1:pos:R:3:forces:R:3 energy=-432.19819686755386 free_energy=-432.19819686755386 stress="-0.0015201318673050308 -3.2324131078621536e-07 9.116479880948068e-07 -3.2324131078621536e-07 0.008050362700996166 2.2687887338460065e-07 9.116479880948068e-07 2.2687887338460065e-07 -1.887362956243373e-05" pbc="T T T"
C        0.00192579       0.01084097       3.74559501       0.00137649      -0.01000998       0.00541543
C       -1.24333196       2.13034356       3.73268253      -0.00299106       0.00309126      -0.00287431
C       -2.47516356       4.27319262       3.73958481      -0.00690114      -0.00101546      -0.00150820
C       -3.70094404       6.41677931       3.75622751       0.00079389       0.00639382      -0.01316823
C       -4.93678558       8.56157254       3.75632606       0.00254865      -0.00536985      -0.00620645
C        2.46724162       0.06574387       3.75334105      -0.00023513      -0.00085644      -0.00245178
C        1.20384052       2.16081914       3.73378219      -0.01017577      -0.00969338       0.01115299
C       -0.06914552       4.28559758       3.67818315       0.00015921       0.00231442       0.01619011
C       -1.24922030       6.41114413       3.71573939      -0.00269555      -0.00448568      -0.00508573
C       -2.46524261       8.56142056       3.74992777      -0.00184700      -0.00443801      -0.00759352
C        4.93248527       0.01069955       3.74539135      -0.00132673      -0.00976445       0.00452486
C        3.73065558       2.16074610       3.74086200       0.00974791      -0.00949383       0.00858759
O        1.14936344       6.39193439       3.66911045       0.00829833      -0.00124132      -0.00112007
C        0.00986743       8.51549106       3.73290661      -0.01125438       0.01346148       0.00896029
C        7.41041764      -0.04017965       3.75357630       0.00424410       0.00864836      -0.00795008
C        6.17778370       2.13029630       3.74425941       0.00251120       0.00298796      -0.00447691
C        5.00374273       4.28570787       3.70161497      -0.00104526       0.00277872       0.01335167
O        3.78543702       6.39183803       3.68561656      -0.01006544      -0.00100746      -0.00300057
C        2.46720245       8.44200804       3.74961817      -0.00040787       0.00140462      -0.00442812
C        9.86033151      -0.04010406       3.75246838      -0.00279423       0.00875897      -0.00392301
C        8.63547732       2.11781371       3.75770517      -0.00009633      -0.00136776      -0.00946770
C        7.40974265       4.27323098       3.75160881       0.00721374      -0.00115072      -0.00440943
C        6.18370716       6.41127719       3.73584844       0.00265794      -0.00561769      -0.00768945
C        4.92454133       8.51567328       3.74341680       0.01110880       0.01215158       0.00527910
C        0.00982507       1.45094745       3.73460675      -0.01089974      -0.01304530       0.00594056
C       -1.24922551       3.55530729       3.71625499      -0.00317887       0.00481151      -0.00443345
C       -2.47519097       5.69333684       3.73935215      -0.00627188       0.00083349      -0.00193485
C       -3.70101998       7.84873729       3.75749905       0.00072012       0.00154068      -0.00907073
C       -4.92602688      10.00672306       3.75365706       0.00402702      -0.00916486      -0.00429265
C        2.46724076       1.52446434       3.74862770      -0.00018268      -0.00182101      -0.00192455
O        1.14929753       3.57443617       3.66939901       0.00907381       0.00208508      -0.00212850
C       -0.06912777       5.68082781       3.67813511       0.00012350      -0.00234909       0.01476229
C       -1.24331650       7.83611266       3.73125675      -0.00289067      -0.00252153      -0.00082964
C       -2.47600275      10.00659966       3.75157653      -0.00417088      -0.00856371      -0.00586448
C        4.92464306       1.45088017       3.74147569       0.01034344      -0.01295396       0.00736154
O        3.78540978       3.57463463       3.68468023      -0.00949855       0.00189527      -0.00164841
C        1.20386278       7.80557551       3.73386494      -0.01082711       0.01002061       0.00871850
C        0.00198768       9.95564040       3.74383508       0.00077508       0.00997908       0.00861063
C        7.39972346       1.40499428       3.75573159       0.00202198       0.00496624      -0.00601927
C        6.18374561       3.55530327       3.73514288       0.00259093       0.00509077      -0.00805348
C        5.00377416       5.68076918       3.70189103      -0.00161685      -0.00194154       0.01458087
C        3.73060567       7.80573524       3.74165538       0.00980060       0.00979197       0.01253885
C        2.46715062       9.90074557       3.75417803       0.00076349       0.00056438      -0.00346784
C        9.87118864       1.40505884       3.75050340      -0.00200232       0.00522096      -0.00495109
C        8.63554673       3.54978821       3.75661045       0.00011133      -0.00659591      -0.01486642
C        7.40971693       5.69336239       3.75162489       0.00746940       0.00069917      -0.00368666
C        6.17769096       7.83628989       3.74599610       0.00327215      -0.00379142      -0.00760746
C        4.93236654       9.95583492       3.74714690      -0.00003669       0.00910889       0.00469594
Ni       2.46402311       4.98327242       4.20947841       0.00353189      -0.00027091      -0.00367958
O        2.45233391       4.98296948       5.98342485      -0.00187289      -0.00006802       0.01914141
