51
Lattice="12.336457 0.0 0.0 -6.168228499999997 10.683685154694365 0.0 0.0 0.0 15.0" Properties=species:S:1:pos:R:3:forces:R:3 energy=-458.1181662907497 free_energy=-458.1181662907497 stress="-0.004591434268404992 0.003298075352881408 -1.566298019630119e-05 0.003298075352881408 -0.009118922051689177 2.111334655827767e-05 -1.566298019630119e-05 2.111334655827767e-05 1.1480122390335297e-05" pbc="T T T"
C       -0.04422730       0.00276627       3.79244210      -0.00513798       0.00191131       0.01558693
C       -1.25541042       2.15947333       3.79208962      -0.00721000       0.00504532      -0.00102809
C       -2.48329517       4.29396337       3.77020322       0.00451075       0.00329586       0.00260538
C       -3.73146119       6.41787346       3.72636455       0.01135858       0.00499294      -0.00571364
C       -4.99849540       8.53739668       3.76380372      -0.00060433      -0.00609368       0.00122530
C        2.41827932      -0.00949668       3.67846660       0.00669430      -0.00333335       0.00071058
C        1.19583989       2.12480468       3.66334778       0.00842228       0.00031895       0.00903471
C       -0.02479621       4.29991271       3.84392225      -0.00921751      -0.00119376       0.00363636
C       -1.26075454       6.43105190       3.91164915      -0.00393968      -0.00380987       0.00165001
C       -2.52066445       8.55234817       3.80421331       0.00805692       0.00800156       0.00722560
C        4.89683371      -0.00801821       3.71142510      -0.00094504       0.00649279      -0.00680397
C        3.68285836       2.08800717       3.48241481       0.00084966       0.00562936      -0.00013965
B        2.48143137       4.22424677       3.65799239      -0.00411166      -0.01259351      -0.00676632
C        1.17475906       6.49946120       4.15326248       0.00296410      -0.00194898      -0.00203901
C       -0.06703970       8.58291784       4.00336331       0.00649695      -0.00724770       0.00647949
C        7.35930213       0.03053491       3.88834117       0.00339590       0.00790291      -0.01088084
C        6.16175893       2.10897596       3.54416103      -0.00845959      -0.00907580       0.00910565
C        4.98317053       4.19123633       3.29183578       0.00303266      -0.00365228       0.00536077
O        3.92050379       6.14652525       2.52056111       0.00320691       0.00373922      -0.00472059
C        2.40077288       8.64158627       4.19410537       0.00576958       0.00542466       0.00512410
C        9.83840309       0.04134245       3.94119799      -0.00210097       0.00642682       0.00471274
C        8.61672209       2.15570701       3.74220432       0.00475382       0.00825073       0.00632003
C        7.40465375       4.27529027       3.54289491       0.00196076      -0.00524190       0.00618910
C        6.14300001       6.41230631       3.53812199      -0.00428236       0.00121757      -0.00326736
C        4.86884861       8.55744513       3.98652445      -0.01633735      -0.00714601       0.00507832
C       -0.03649467       1.42618574       3.74838807       0.00074013       0.00465084       0.00139023
C       -1.25523240       3.58601985       3.80798014      -0.00143524       0.00389618      -0.01142950
C       -2.48899342       5.71604701       3.79898326       0.00218804       0.00026432      -0.00285557
C       -3.75339233       7.83605948       3.76066719       0.01105417       0.00851193      -0.00993526
C       -4.98734724       9.96422819       3.75099133       0.00090804      -0.00512469      -0.00089079
C        2.42846195       1.40905195       3.59884471       0.01005008      -0.00284053      -0.00047146
C        1.16700440       3.54654958       3.70774811      -0.00579510      -0.00040835       0.00414412
C       -0.00777000       5.72923175       3.97487667       0.00099371       0.00373267      -0.00312163
C       -1.28614759       7.85242035       3.91260630      -0.00581922      -0.00233782       0.01154660
C       -2.51398083       9.96840838       3.72711958       0.00680793       0.00468997      -0.00330289
C        4.92085581       1.39395873       3.54761380      -0.00996493       0.00239416       0.01668993
C        3.75944869       3.49307252       3.37979234      -0.00197139      -0.00189462       0.00031760
C        1.16850229       7.90545084       4.16160499      -0.00643212       0.00185045       0.00155133
C       -0.04437312       9.99173751       3.87697982      -0.00384224       0.00262118      -0.01569441
C        7.38319295       1.43336361       3.72261011       0.00225680       0.00437144      -0.01876017
C        6.20170970       3.52458898       3.42534521      -0.01279898      -0.00628814      -0.00631884
C        4.96417122       5.62871054       3.18730222      -0.01048974       0.00371033       0.00413022
C        3.62268457       7.98384168       4.25226242      -0.00087572      -0.01403946      -0.00585049
C        2.42378115      10.04784498       4.03527378       0.00266006      -0.00909803      -0.00681044
C        9.84732288       1.45635532       3.82844403      -0.00191509       0.00208972       0.00255799
C        8.62714224       3.57577233       3.67958288       0.00865546       0.00608273      -0.00748111
C        7.37590439       5.70366922       3.58599977       0.00250906       0.00393589       0.00982804
C        6.10025676       7.81744874       3.77402687      -0.00990519      -0.00160763       0.00248637
C        4.89154749       9.99195572       3.92356545      -0.00913717      -0.00349178      -0.00153465
Os       3.10206167       6.02618164       4.37642463       0.01254606       0.00172932      -0.00084912
O        3.54494317       5.60990276       6.02593961       0.00988590      -0.01471319      -0.00802171
