51
Lattice="12.336457 0.0 0.0 -6.168228499999997 10.683685154694365 0.0 0.0 0.0 15.0" Properties=species:S:1:pos:R:3:initial_magmoms:R:1:forces:R:3 energy=-441.35876900051136 free_energy=-441.35876900051136 stress="-0.003363591232219562 -0.0002570893878028721 6.2364175559997635e-06 -0.0002570893878028721 -0.008603507384814787 -3.0342931243684e-06 6.2364175559997635e-06 -3.0342931243684e-06 -1.1226050933841777e-05" pbc="T T T"
C       -0.00347271       0.01047243       3.70105863       0.00000000       0.00200721      -0.00260588      -0.00792267
C       -1.23449976       2.15718688       3.55619404       0.00000000       0.00174363      -0.00735401      -0.00610267
C       -2.46874992       4.30000884       3.70191526       0.00000000      -0.00516314       0.00162440      -0.01113569
C       -3.69346470       6.43669886       3.84809034       0.00000000       0.00229550       0.00156198      -0.00655323
C       -4.93783193       8.55863564       3.82265530       0.00000000       0.00333595       0.00222721      -0.00103914
C        2.46054921      -0.01899677       3.79017097       0.00000000       0.00675255       0.00681470       0.00061202
C        1.25251808       2.06763421       3.38494342       0.00000000       0.00507846       0.00404398      -0.00782721
C       -0.12396743       4.31313162       3.04188051       0.00000000       0.00158734      -0.00451101       0.00136921
C       -1.27361340       6.46528379       3.45589444       0.00000000      -0.00472813       0.00549307       0.00006976
C       -2.46104853       8.56483347       3.74035056       0.00000000      -0.00525724      -0.00396624       0.00480225
C        4.93463035       0.02160825       3.90659156       0.00000000      -0.00309065      -0.00155976       0.00983536
C        3.65605029       2.06877664       4.12943160       0.00000000      -0.00509712       0.00254027      -0.00229826
S        1.25827600       6.56493550       2.22558993       0.00000000      -0.00077841      -0.00657312      -0.00663863
C       -0.00434219       8.60517093       3.53432833       0.00000000       0.00693226       0.00112628      -0.00675410
C        7.39732108       0.05195809       3.84643165       0.00000000       0.00042921       0.00055008      -0.00491678
C        6.16858352       2.16421860       4.15571054       0.00000000       0.00330577       0.00211593      -0.00120641
C        5.04231347       4.36032729       4.43695520       0.00000000      -0.01044496      -0.00375786       0.00945968
B        3.63883145       6.40678053       3.94488779       0.00000000      -0.01139011      -0.00804915      -0.00622493
C        2.46158864       8.62322804       3.61278618       0.00000000       0.00279100       0.00431903      -0.00234638
C        9.87424645       0.04280018       3.77295421       0.00000000      -0.01025384       0.00307449      -0.00523964
C        8.64208078       2.17301230       3.89875112       0.00000000       0.00318906       0.00478046      -0.00450086
C        7.43232733       4.30400882       4.08146514       0.00000000      -0.00170269       0.00483885       0.00493515
C        6.19712159       6.45374132       4.02374337       0.00000000       0.00365636      -0.00487214      -0.00328549
C        4.92736269       8.57307385       3.81278528       0.00000000      -0.00392933       0.00094859       0.00082776
C        0.00046475       1.43356880       3.52688500       0.00000000       0.00520204      -0.00239475      -0.00315287
C       -1.26535225       3.57128004       3.44880209       0.00000000      -0.00090700      -0.00359951       0.00578791
C       -2.46926889       5.72838811       3.69253313       0.00000000      -0.00218262       0.00260514      -0.00337455
C       -3.69857912       7.85389411       3.80595732       0.00000000      -0.00208704      -0.00197235       0.00594786
C       -4.94385729       9.97249565       3.75642953       0.00000000       0.00937413       0.00320176      -0.00475443
C        2.45222920       1.39381491       3.76946634       0.00000000      -0.00091333       0.00656203       0.00028376
S        1.35469229       3.55722256       2.44987745       0.00000000       0.00343084      -0.00701183      -0.00439509
C       -0.11818019       5.72393123       3.05799199       0.00000000       0.00332580       0.00196603       0.00360575
C       -1.23536093       7.87356701       3.55941238       0.00000000       0.00062298       0.00481978       0.00694771
C       -2.46137893       9.98093765       3.82810760       0.00000000      -0.00138720      -0.00345210       0.00192473
C        4.92730819       1.43889193       4.09799777       0.00000000      -0.00367728       0.00191130       0.00367612
P        3.46618870       3.68274090       4.69852690       0.00000000      -0.00652660      -0.00948474       0.00665524
C        1.23792515       7.97879716       3.29103825       0.00000000       0.01007180      -0.00299787      -0.00167742
C        0.00049221      10.01485322       3.78817362       0.00000000       0.00034314       0.00084855      -0.00526372
C        7.39989783       1.46821593       3.98785850       0.00000000       0.00910272      -0.00057072       0.00474375
C        6.20867839       3.58648798       4.26336291       0.00000000      -0.00205358       0.00325520       0.00747426
C        4.99068510       5.73749494       4.17940077       0.00000000      -0.00266912      -0.00446688       0.00331517
C        3.67618059       7.89697631       3.75807765       0.00000000      -0.00518873      -0.00109461       0.00281395
C        2.46217505      10.03910187       3.75861717       0.00000000      -0.00561290       0.00111585       0.00410581
C        9.87862998       1.46493624       3.75521125       0.00000000      -0.00140472       0.00107005       0.00003602
C        8.65042344       3.59203735       3.91468184       0.00000000      -0.00177614       0.00560794       0.00316231
C        7.42517014       5.72806223       4.00545342       0.00000000       0.00700907       0.00152686       0.00871403
C        6.16661288       7.86159925       3.87967338       0.00000000       0.00256297       0.00050794       0.00984409
C        4.93126380       9.99917459       3.75877852       0.00000000      -0.00810503       0.00323927       0.00034251
Os       1.88215892       5.23714686       3.96823022       0.00000000       0.00581841      -0.00152385       0.00366388
O        2.79652686       3.96041779       6.15952825       1.00000000       0.01010756      -0.00197329      -0.00385521
O        1.69796370       5.04620175       5.88290100       1.00000000      -0.00374883      -0.00050533      -0.00449067
