53
Lattice="12.336457 0.0 0.0 -6.168228499999997 10.683685154694365 0.0 0.0 0.0 15.0" Properties=species:S:1:pos:R:3:forces:R:3 energy=-466.48532852419714 free_energy=-466.48532852419714 stress="-0.005681174679213449 0.0031415546198170904 -2.3193354465872337e-05 0.0031415546198170904 -0.009531584311195771 -3.439978921980632e-07 -2.3193354465872337e-05 -3.439978921980632e-07 1.5907722766224564e-05" pbc="T T T"
C       -0.04443239      -0.00474071       3.83761234      -0.00179237      -0.00307512       0.00085527
C       -1.25917938       2.14959715       3.83320332      -0.00079644      -0.00167624      -0.00438964
C       -2.48710990       4.28577635       3.80694294      -0.00459910      -0.00141253       0.00231171
C       -3.73247705       6.41117642       3.76526187       0.00170993       0.00456605       0.00005281
C       -4.99726929       8.53103235       3.79939843       0.00432556       0.00319497      -0.00113748
C        2.41837929      -0.01521574       3.73517867      -0.00114794      -0.00175964      -0.00018430
C        1.19178365       2.11511484       3.69554702       0.00142714       0.00044846       0.00867484
C       -0.03273002       4.28982123       3.84247455       0.00058464      -0.00044178       0.00381019
C       -1.26474107       6.42263019       3.92964050      -0.00004073       0.00124940       0.00032019
C       -2.52111905       8.54641995       3.85225038      -0.00027116      -0.00017104       0.00240440
C        4.89530019      -0.01265962       3.77406961      -0.00553303      -0.00529748       0.00098675
C        3.68256382       2.08153038       3.53404976      -0.00448466       0.00049730      -0.00223846
B        2.46861163       4.21793264       3.61455708       0.00569668       0.00240904       0.00122322
C        1.17056691       6.48880346       4.10702186       0.00383491      -0.00283946      -0.00070358
C       -0.06826131       8.57518769       4.03107429       0.00040807       0.00200682       0.00470950
C        7.35740693       0.02269942       3.93593212       0.00280072       0.00005644      -0.00194736
C        6.15892037       2.10327326       3.61213543       0.00057347      -0.00153863       0.00092990
C        4.98541695       4.18185298       3.31889574       0.00082747      -0.00046598      -0.00662276
O        3.99937456       6.13327017       2.39019574      -0.00076330      -0.00281329      -0.00050066
C        2.39865420       8.62885023       4.18747424      -0.00293875       0.00269458       0.00244009
C        9.83732026       0.03089304       3.97886122      -0.00467633       0.00401465       0.00166683
C        8.61415548       2.14738324       3.79767395      -0.00068962       0.00146012       0.00627372
C        7.40265965       4.26725087       3.59388802       0.00193630       0.00132631       0.00177878
C        6.14788290       6.40572877       3.55562521       0.00088551      -0.00338612      -0.00242443
C        4.87169951       8.55053687       3.98474465      -0.00237417       0.00114826       0.00204615
C       -0.03916943       1.41773213       3.79190385       0.00158635      -0.00266050      -0.00149233
C       -1.26075956       3.57597050       3.83337357      -0.00331277      -0.00198082       0.00058500
C       -2.49251747       5.70789552       3.83191982      -0.00108543       0.00053318      -0.00481693
C       -3.75296632       7.82967558       3.80111937       0.00276669       0.00456278      -0.00286573
C       -4.98723007       9.95757137       3.79861916       0.00098566       0.00125838      -0.00529965
C        2.42771943       1.40207309       3.64714257      -0.00125513      -0.00133013      -0.00353512
C        1.15792631       3.53560202       3.70610803       0.00565588       0.00424904       0.00160096
C       -0.01586949       5.71908772       3.96235237       0.00157125       0.00060265      -0.00103374
C       -1.28833491       7.84486359       3.94631426      -0.00046412       0.00151419       0.00324864
C       -2.51409192       9.96330521       3.78565524      -0.00540778      -0.00394659      -0.00239807
C        4.91881599       1.38961859       3.61702181      -0.00460205      -0.00343577       0.00162094
C        3.76309468       3.48410838       3.40578145       0.00012429       0.00280629      -0.00048144
C        1.16793744       7.89782475       4.15247204      -0.00132809       0.00098581       0.00247977
C       -0.04591572       9.98523105       3.92457655       0.00004513       0.00167089       0.00295345
C        7.38069583       1.42652717       3.78223270       0.00259455       0.00048535       0.00099881
C        6.19972135       3.51719380       3.48015486       0.00267306       0.00073362      -0.00112357
C        4.97840137       5.62187473       3.16011988      -0.00018105      -0.00749124      -0.00137839
C        3.62257488       7.97022289       4.21244383      -0.00218504       0.00395665       0.00302275
C        2.42211998      10.03645647       4.06331349      -0.00034479       0.00020089       0.00447938
C        9.84470701       1.44647541       3.87821825      -0.00257713       0.00267143      -0.00497358
C        8.62378137       3.56770562       3.73060861      -0.00199410      -0.00138702      -0.00129711
C        7.37558322       5.69644625       3.62564880       0.00321550       0.00126340       0.00002929
C        6.10293403       7.81110314       3.78511725       0.00387611      -0.00125291       0.00391832
C        4.89168284       9.98245090       3.95081433      -0.00588773       0.00260589      -0.00084920
Os       3.09467827       6.02525619       4.20697375      -0.00456061      -0.00312750      -0.00258563
O        3.65442043       5.58199185       5.96487058      -0.00177498      -0.00350902       0.00358512
O        3.03756974       6.46845108       6.99336607       0.01505829       0.00372204      -0.01219676
H        3.65183870       6.27194870       7.73332105       0.00190524      -0.00389605      -0.00253089
