50
Lattice="12.336457 0.0 0.0 -6.168228499999997 10.683685154694365 0.0 0.0 0.0 15.0" Properties=species:S:1:pos:R:3:forces:R:3 energy=-442.36380922711805 free_energy=-442.36380922711805 stress="-0.008942629596433431 -0.003394725413552126 -1.914350399188614e-05 -0.003394725413552126 -0.0037106858654114777 4.1473689633919613e-07 -1.914350399188614e-05 4.1473689633919613e-07 -2.1204081025434182e-06" pbc="T T T"
C       -0.00940269       0.00766440       3.93583337       0.00064588       0.00282609       0.00379032
C       -1.27910203       2.10652560       3.95705421       0.01521679       0.00655526      -0.00251869
C       -2.50199326       4.26708368       3.98759984       0.01032277       0.00462358       0.00160495
C       -3.68464378       6.42598381       3.98295303      -0.00775772      -0.00332996      -0.00070169
C       -4.91333773       8.57732809       3.96511758      -0.00371570      -0.00445364       0.00127202
C        2.46093379       0.02746977       3.85982200      -0.00944452      -0.00131380      -0.00301786
C        1.17804909       2.16688308       3.74951393       0.00091616       0.00475764      -0.00397192
C       -0.10671907       4.20700914       3.70105874       0.00251871      -0.00727419       0.00342995
C       -1.25071640       6.40282470       3.79065966      -0.00023523      -0.00061824       0.00035365
C       -2.45124346       8.55588733       3.87371576      -0.00025260       0.00743098      -0.00642107
C        4.92155216       0.01266173       3.74572592       0.00870536       0.01054929      -0.00746383
C        3.66376935       2.10239697       3.45531301       0.00367838      -0.00329226       0.01486225
S        1.23684208       6.30437523       2.69682379       0.00198066       0.00109624      -0.00680271
C       -0.00144510       8.54453844       3.64895522      -0.00832739       0.00409197      -0.00771363
C        7.38549117      -0.00094390       3.79073830      -0.00953394      -0.00204820       0.00388169
C        6.15170574       2.14895231       3.65445007      -0.00360283      -0.00193096       0.01377571
C        5.06796046       4.36349618       3.37811329      -0.00341234      -0.00501664       0.01152795
C        3.79693084       6.42796487       3.65683553       0.00248995      -0.00050645       0.00412735
C        2.46344324       8.54171316       3.68012197      -0.00402659      -0.00037791      -0.00375608
C        9.84791782      -0.01356832       3.92311045       0.00297260      -0.00704084      -0.01355069
C        8.60342280       2.13076481       3.92470346      -0.00274313      -0.00385666       0.00309662
C        7.41069182       4.28833784       3.86686446      -0.00526102      -0.00574271       0.00120881
C        6.23451587       6.45709229       3.83246246       0.00243866       0.00784323       0.00068890
C        4.94393509       8.55580803       3.86635816       0.00866880       0.00052646       0.00428372
C       -0.03050730       1.42919454       3.89576084       0.00848194       0.00587565      -0.00058958
C       -1.30595933       3.51533172       3.92719950       0.00521980       0.00259383      -0.00592621
C       -2.47610346       5.69316934       3.96131136       0.00314951       0.00417860       0.00075255
C       -3.68459916       7.85332258       3.95939736      -0.00251418      -0.00117396      -0.00013793
C       -4.93210857       9.99728560       3.93938897      -0.01030592      -0.00668627       0.00132324
C        2.43906735       1.45778066       3.70849400      -0.00119503       0.00095995      -0.00605264
N        1.07985975       3.53471756       3.61416843      -0.01653036       0.00024412       0.00131301
C       -0.11220745       5.60952187       3.55522705       0.00790707      -0.00915263      -0.00246323
C       -1.22898112       7.83302365       3.75232155      -0.00350052      -0.00240354      -0.01248533
C       -2.47199990       9.99080380       3.83188569       0.00451562       0.01396749      -0.00449504
C        4.91263612       1.44322755       3.61359206       0.00551333       0.00423055       0.00565571
S        3.64541343       3.67393441       2.69032229      -0.00902694      -0.00319846      -0.00629804
C        1.24093518       7.88843853       3.44687833      -0.00992355       0.00574188       0.00210012
C       -0.00962617       9.97684132       3.74010243      -0.00348262       0.00124241      -0.00152729
C        7.37043297       1.43081992       3.80635803      -0.00914203      -0.00319992      -0.00050817
C        6.19478292       3.57599473       3.63704869      -0.00396021      -0.00898811       0.00378461
C        5.02480334       5.74883279       3.60718642       0.00880751      -0.00093061       0.00797845
C        3.71287619       7.82061016       3.72643902       0.00474421       0.00330623       0.00648993
C        2.45047616       9.96580517       3.82579889      -0.00749744      -0.00135945      -0.00544579
C        9.83095667       1.40443977       3.96636563       0.00976705      -0.00071309      -0.00646502
C        8.61151676       3.55569625       3.96149517       0.00442449       0.00208853       0.00962605
C        7.43091348       5.71489760       3.91771952      -0.00936422      -0.00289631       0.00058534
C        6.19540939       7.87027304       3.91498095       0.00126175       0.00210286       0.00025019
C        4.92520298       9.97303748       3.92585076       0.00785146      -0.00346770      -0.00336730
Os       2.45058067       5.00952241       4.09716905       0.00236298      -0.00262707       0.00171577
O        2.42804606       5.01447729       5.82849305       0.01019460      -0.00323324       0.00220088
