50
Lattice="12.336457 0.0 0.0 -6.168228499999997 10.683685154694365 0.0 0.0 0.0 15.0" Properties=species:S:1:pos:R:3:forces:R:3 energy=-442.221718236258 free_energy=-442.221718236258 stress="-0.00830414868179107 -0.0008456011298320475 -3.8342782891291964e-06 -0.0008456011298320475 -0.0007382302587374029 -1.4790521246123828e-05 -3.8342782891291964e-06 -1.4790521246123828e-05 1.747722208241611e-05" pbc="T T T"
C       -0.00162985      -0.00647309       3.77923791      -0.00081553       0.00505851       0.00577016
C       -1.25207149       2.12496771       3.70287537      -0.00250139       0.00055922       0.00174860
C       -2.49567111       4.27107347       4.00333333       0.00019594       0.00142442      -0.00927703
C       -3.70212002       6.42537858       4.13752594      -0.00188952      -0.00767800       0.00062168
C       -4.92316802       8.57275963       4.01547781       0.00226487       0.00266976       0.00386376
C        2.47106249       0.00331004       3.74507773      -0.00368192       0.00062533      -0.00473196
C        1.21539855       2.06329090       3.30695960      -0.00067010      -0.00222363      -0.00552035
C       -0.16634267       4.33759233       3.47642250      -0.00329193      -0.00306701      -0.00338002
C       -1.29247287       6.43835567       3.96000028       0.00650079      -0.00218192      -0.00210870
C       -2.47260398       8.56918725       3.99859676       0.00002604       0.00464299       0.00111981
C        4.93809341      -0.00478460       3.76147580       0.00277621       0.00474105       0.00567592
C        3.71744811       2.07482643       3.27955533      -0.00077808      -0.00415664      -0.00466985
C        1.14434295       6.38931571       3.65829357       0.00830482      -0.00123035       0.01303508
C       -0.00080543       8.53438762       3.86179796       0.00391725      -0.00628019       0.00424383
C        7.40891847      -0.02933930       3.81650983      -0.00032050       0.00051566       0.00171025
C        6.17539290       2.13311758       3.71765063       0.00036790       0.00009005       0.00343924
C        5.06977707       4.35942879       3.54077181       0.00505909      -0.00536184      -0.00380548
N        3.83714563       6.40999058       3.61278185      -0.00224773       0.00169544      -0.00296635
C        2.48312991       8.48570339       3.79486973      -0.00236897       0.00324454      -0.00444352
C        9.86428267      -0.02978545       3.82207875       0.00411129      -0.00102858       0.00230341
C        8.63042011       2.12071059       3.90603330      -0.00212864       0.00787755      -0.00145586
C        7.41124741       4.27522350       4.03417195      -0.00447147      -0.00023936      -0.00077107
C        6.21929016       6.45187354       4.00559955      -0.00452499       0.00027197       0.00018340
C        4.94710744       8.53211379       3.87839564      -0.00153773      -0.00362932       0.00206113
C       -0.00988777       1.41764450       3.59755579      -0.00106329       0.00406937      -0.00020161
C       -1.29034909       3.55069700       3.75298920      -0.00404702      -0.00194450      -0.00690326
C       -2.49196034       5.70065446       4.07176080       0.00318720      -0.00180075      -0.00805966
C       -3.69739374       7.85483711       4.07948783       0.00135878      -0.00289003       0.01054647
C       -4.92948254       9.98768816       3.86014103      -0.00298020       0.00395208       0.00253427
C        2.47092823       1.40849099       3.42121264      -0.00174629      -0.00214450       0.00114832
S        1.13186480       3.65666834       2.56235530      -0.00669015      -0.00528491       0.00105744
C       -0.09232166       5.72406869       3.70021070       0.00758132      -0.00449916      -0.00281219
C       -1.24733701       7.85543227       3.96796813       0.00104767       0.00022538       0.00239530
C       -2.46576238       9.98408720       3.84922253      -0.00003966       0.00638601      -0.00801843
C        4.93895387       1.42345787       3.58278376       0.00049376       0.00394950       0.00127212
S        3.81312656       3.69378822       2.54154607       0.00507231      -0.00706008       0.00717495
C        1.23743254       7.78219217       3.78283125       0.00461520      -0.00275545      -0.00374349
C        0.00430509       9.95534569       3.82183179       0.00145406      -0.00444956       0.01416743
C        7.39617225       1.40762484       3.83114058      -0.00004172       0.00297270      -0.00274020
C        6.19940747       3.56209985       3.80094148       0.00143485      -0.00448105      -0.00073339
C        5.03420681       5.75920688       3.72241221      -0.00289638      -0.00544589       0.00286787
C        3.73367694       7.77805682       3.78122894      -0.00554410       0.00225765      -0.00432363
C        2.47222282       9.92217957       3.82423109       0.00103372       0.00258072      -0.00602207
C        9.86637651       1.40596536       3.82754528      -0.00222481       0.00189438       0.00248510
C        8.62664757       3.54672949       4.02306816      -0.00214026       0.00768409      -0.00106126
C        7.41857919       5.70396710       4.10504981      -0.00662680      -0.00306834      -0.00534825
C        6.18772859       7.86305906       3.99723726       0.00193358       0.00141769      -0.00533410
C        4.93275141       9.95439013       3.83677003       0.00377653      -0.00342193       0.00829485
Os       2.48326564       4.93013970       3.95622138      -0.00321248       0.01153519       0.01436127
O        2.44401483       4.76903426       5.68125935       0.00396848       0.00398175      -0.01564993
