52
Lattice="12.336457 0.0 0.0 -6.168228499999997 10.683685154694365 0.0 0.0 0.0 15.0" Properties=species:S:1:pos:R:3:forces:R:3 energy=-452.6786092128974 free_energy=-452.6786092128974 stress="-0.003063213089405611 0.002465178290274681 -3.010287423781215e-06 0.002465178290274681 0.007357906150717907 -1.1817104718449914e-05 -3.010287423781215e-06 -1.1817104718449914e-05 -4.743891517452522e-06" pbc="T T T"
C       -0.05689438       0.07874834       3.72020347       0.00061552       0.00201733       0.00432883
C       -1.29442246       2.18220734       3.97707447      -0.00644412       0.00727803      -0.00172313
C       -2.58688960       4.31349059       4.10021560      -0.00336158      -0.00791365       0.00658215
C       -3.81329965       6.46170829       3.90214456       0.00442793       0.00403345       0.00108573
C       -5.01388284       8.60394674       3.72997632      -0.00410359      -0.00207714      -0.01131511
C        2.41522805       0.08104527       3.66448005       0.00502624      -0.00110543      -0.00436563
C        1.19708373       2.22176567       3.47208474      -0.00200368      -0.00709789      -0.00661089
C       -0.24933065       4.38642751       4.52653890       0.00084964      -0.00238468      -0.00758410
C       -1.40643224       6.49724769       4.16125769      -0.00301984       0.00318217      -0.00720974
C       -2.55265721       8.61146161       3.84552009      -0.00333507       0.00744870       0.00450076
C        4.88637819       0.02956685       3.72578708      -0.00092124      -0.00470910      -0.00310374
C        3.71075116       2.17175877       3.50607190      -0.00047494       0.00384649       0.00000601
C        1.04929210       6.42380697       4.16708529      -0.00316823      -0.01052541       0.00321530
C       -0.05831602       8.55881921       3.92202038       0.00164418       0.00036233       0.00434985
C        7.35782298      -0.00234192       3.80133674      -0.00292790       0.00496901      -0.00041793
C        6.13023481       2.16190177       3.68755857       0.00097835      -0.00525283       0.00423372
C        4.91335505       4.30456130       3.53025896       0.00144444       0.00206662      -0.00355751
O        3.70378080       6.45411874       3.56252076       0.00434333       0.00116065       0.00640600
C        2.42995283       8.51114089       3.82753850       0.00280261      -0.00649151      -0.00133166
C        9.81300624       0.01433873       3.81410173       0.00034010       0.00345139      -0.00534937
C        8.57786272       2.15995121       3.88024974       0.00748217      -0.00373994      -0.00204515
C        7.32151497       4.31006556       3.80347879       0.00289408       0.00194097       0.00240892
C        6.08094066       6.43975077       3.68464268      -0.00371793       0.00060509       0.00359100
C        4.86638494       8.56867788       3.71118772       0.00135904      -0.00066527      -0.00310326
C       -0.04695756       1.51361566       3.75930505      -0.00383559       0.00168698       0.00993811
C       -1.36302847       3.59614110       4.23826119      -0.00534686      -0.00013584       0.00561846
C       -2.60504597       5.74851549       4.07961751       0.00135247      -0.00696151      -0.00198895
C       -3.78600714       7.89254186       3.82568153      -0.00144710       0.00562357       0.00106383
C       -4.99330017      10.04710704       3.68772586       0.00452303      -0.00131659       0.01145597
C        2.45336251       1.51229005       3.56986128       0.00208328      -0.00052729      -0.00165897
O        1.21439116       3.36688523       2.74021991       0.00410991       0.00144569       0.00478533
C       -0.19688864       5.78157011       4.31819740      -0.00752038      -0.00474430      -0.00161162
C       -1.33065254       7.89837203       3.97849017      -0.00278209       0.01019905       0.00475389
C       -2.52963803      10.03192510       3.73680557       0.00108519      -0.00026428      -0.00598950
C        4.90193690       1.45673838       3.62983959      -0.00089314      -0.00596451      -0.00346830
O        3.77487423       3.54881335       3.33810321      -0.00566631       0.00803436      -0.00895318
C        1.17098452       7.81424221       3.97194440       0.00057248      -0.01195261      -0.00909137
C       -0.05069894       9.98169176       3.80650038      -0.00207782      -0.00018425       0.00626054
C        7.34985339       1.43935930       3.78481259       0.00613822       0.00101749       0.00010712
C        6.10934399       3.59327337       3.67176559       0.00058683       0.00032205      -0.00230076
C        4.88393380       5.72523978       3.57712118      -0.00079119      -0.00001602      -0.00530707
C        3.67006640       7.82840971       3.71814083       0.00552508      -0.00251304      -0.00336319
C        2.42121642       9.94927725       3.81410955      -0.00287730      -0.00086653       0.00411648
C        9.81693230       1.45228205       3.89909597       0.00237796       0.00456369       0.00335442
C        8.54845638       3.59051831       3.92512590       0.00001452      -0.00901786       0.00644746
C        7.30669256       5.73122609       3.79724942       0.00038362       0.00462747      -0.00206697
C        6.09857253       7.87297061       3.69950214      -0.00409090      -0.00401070       0.00507260
C        4.87497962      10.01083964       3.75642585      -0.00098270      -0.00018481       0.00379016
Os       1.59405718       4.57651748       4.21289346       0.00286777       0.00824930      -0.00559048
O        2.67269609       4.91885123       5.70818661      -0.00172149      -0.00420091       0.00253593
O        3.33400242       3.65578764       6.13360129       0.00542461       0.01513997      -0.01153501
H        3.52044380       3.89234638       7.06921742       0.00225837       0.00155204       0.01063403
