49
Lattice="12.336457 0.0 0.0 -6.168228499999997 10.683685154694365 0.0 0.0 0.0 15.0" Properties=species:S:1:pos:R:3:forces:R:3 energy=-435.5783239115329 free_energy=-435.5783239115329 stress="0.0006230373799870543 -0.0043493029008013235 1.2571950989286368e-06 -0.0043493029008013235 -0.00036873720448929985 -6.779948148649834e-06 1.2571950989286368e-06 -6.779948148649834e-06 -7.580454720059599e-07" pbc="T T T"
C        0.01171569      -0.02014519       3.98494160       0.00205446       0.00421812      -0.00572346
C       -1.25811581       2.08246525       4.05815945      -0.00120167       0.00368792       0.00395099
C       -2.47849126       4.24307291       4.06002461      -0.00138999       0.00611078      -0.00464959
C       -3.65470057       6.38976381       3.98091110      -0.00533644      -0.00763682       0.00053458
C       -4.89054449       8.53759018       3.98140333       0.00342164      -0.00150535       0.00280527
C        2.48167120      -0.01270593       3.84180113       0.00240173       0.00115584       0.00104662
C        1.20704092       2.14260973       3.85847396       0.00770595      -0.00205792       0.00382867
C       -0.04703859       4.16473977       4.02731066      -0.00550108      -0.00396571       0.01065224
C       -1.15662099       6.35772572       3.89744847      -0.00766851      -0.00068633      -0.00175994
C       -2.41836114       8.51462089       3.83061540       0.00112705       0.00380316       0.01011377
C        4.93917919      -0.02046454       3.64872565      -0.00272361       0.00451152       0.00653525
C        3.65887290       2.08637264       3.45598100      -0.00173120      -0.00051651       0.00546732
S        1.39055314       6.70070272       1.85291864       0.00043772      -0.01235834      -0.00024307
C        0.02994388       8.50624965       3.54081541      -0.00017433       0.00480618      -0.00778084
C        7.39860331      -0.01292598       3.68304273       0.00574053      -0.01017340       0.00736129
C        6.14865150       2.13760859       3.61502307      -0.00036556      -0.00537485      -0.00380685
C        5.01213358       4.34478233       3.50197588      -0.00444748       0.00093908       0.00331368
C        3.71101997       6.40983117       3.67691450      -0.00628665       0.00165149      -0.01233712
C        2.49603859       8.53979467       3.60575526       0.00176997       0.00476007      -0.00596344
C        9.86434681      -0.02995783       3.91164471       0.00600506      -0.00054718      -0.00273964
C        8.61412209       2.11399675       3.90219710      -0.00258540       0.00812534       0.00332815
C        7.40860510       4.26607318       3.87559672       0.00460619      -0.00041439       0.00190942
C        6.21378004       6.42048831       3.93806453       0.00444100      -0.00148825      -0.01562379
C        4.96491617       8.53594038       3.92346610      -0.00870274      -0.01293031       0.00196635
C       -0.00859792       1.40100573       3.98824257       0.00486661       0.00741970       0.00210732
C       -1.28375957       3.48713773       4.12013962      -0.00691781       0.00108859      -0.00062125
C       -2.42880824       5.66612867       4.00081464      -0.00627959      -0.00106371      -0.00817555
C       -3.65300534       7.81612015       3.94550312       0.00232065      -0.00577217       0.00678324
C       -4.91119376       9.95839876       3.95485565       0.00200350       0.00241009       0.00334822
C        2.45436257       1.41855934       3.72794624       0.00251150      -0.00543749      -0.00384908
N        1.11924241       3.51560276       3.90793176      -0.00890516      -0.00339548       0.00458806
C        0.03480546       5.58134062       3.95268580       0.01085501       0.00510950       0.00665208
C       -1.17564025       7.79194850       3.74035953       0.00044918       0.00116548       0.00395860
C       -2.44678964       9.94851398       3.76604401      -0.00018783       0.00527323       0.00541447
C        4.91759950       1.42125309       3.55511190      -0.00491441      -0.00001921       0.00377260
S        3.56641040       3.70991041       2.83536802       0.00088251      -0.00193779      -0.00449191
C        1.29737838       7.83080810       3.22887154       0.00373448       0.01713540       0.00554989
C        0.01180744       9.93912455       3.61477476      -0.00058203       0.00187985       0.00074033
C        7.37865785       1.41722836       3.73725102       0.00079611      -0.00733182       0.00738590
C        6.17429331       3.56262551       3.66395819       0.00517315      -0.00210822      -0.00162313
C        4.96476025       5.72739742       3.74824659       0.00042335       0.00675052      -0.00715959
C        3.72166759       7.82126993       3.74672459      -0.01120012      -0.00337568      -0.00249965
C        2.46583490       9.95575394       3.75333609       0.00850027      -0.00276825       0.00124516
C        9.84545987       1.38520752       3.97862743      -0.00281054       0.00421227      -0.00043846
C        8.62057028       3.53766883       3.96589375       0.00460612       0.00937322      -0.00321642
C        7.43194049       5.68987397       3.95240708       0.00050843      -0.00648555      -0.00111856
C        6.20758673       7.83586046       3.98143180       0.00085114      -0.00475082      -0.00596839
C        4.94250789       9.95088176       3.96028675       0.00339460      -0.00900192      -0.00970637
Os       1.98298148       5.41069984       3.47469613      -0.00167579       0.00751612      -0.00486339
