52
Lattice="12.336457 0.0 0.0 -6.168228499999997 10.683685154694365 0.0 0.0 0.0 15.0" Properties=species:S:1:pos:R:3:initial_magmoms:R:1:forces:R:3 energy=-459.20921169650387 free_energy=-459.20921169650387 stress="-0.0008621380173373409 -0.0021839748000999307 7.396720419818998e-06 -0.0021839748000999307 -0.006192679694826539 -5.0990580348189335e-06 7.396720419818998e-06 -5.0990580348189335e-06 -9.331972294026954e-06" pbc="T T T"
C       -0.00951354      -0.07119946       3.86147286       0.00000000       0.00372762       0.00432332      -0.00177640
C       -1.25732135       2.05768828       4.05869757       0.00000000      -0.00343305      -0.00213987      -0.00623180
C       -2.49423387       4.20796766       4.05534718       0.00000000       0.00878176       0.00257241       0.01213153
C       -3.69750425       6.34488986       3.87054377       0.00000000      -0.00569171      -0.00080165      -0.00227121
C       -4.94387355       8.47190098       3.73261647       0.00000000       0.00367107      -0.00095503       0.00253935
C        2.46010074      -0.08458368       3.91153303       0.00000000      -0.00079963      -0.00503355       0.00362754
C        1.21366583       2.02444980       4.07249822       0.00000000       0.00525530       0.00360406       0.00241065
C       -0.04092078       4.15969989       4.14481874       0.00000000       0.00396333       0.00126950       0.00241360
C       -1.20612611       6.32973786       3.94134104       0.00000000      -0.00295363       0.00169767       0.00546984
C       -2.45142750       8.46966682       3.82133683       0.00000000      -0.00274094      -0.00016737      -0.00325991
C        4.91956000      -0.05468825       3.84464811       0.00000000      -0.00434002       0.00110701      -0.00383231
C        3.67445575       2.07561269       3.94350276       0.00000000      -0.00319553       0.00144109       0.00431804
C        2.40288172       4.14463761       3.95431574       0.00000000       0.00035749      -0.00204713      -0.00999973
O        1.12774368       6.90237650       2.14901952       0.00000000       0.00831034       0.00495063       0.00037203
C       -0.01107849       8.52143969       3.53576309       0.00000000      -0.00177024      -0.00369884      -0.00779248
C        7.38316998      -0.02143764       3.69721969       0.00000000      -0.00177212      -0.00086937      -0.01005810
C        6.14116599       2.08818017       3.92111634       0.00000000       0.00109866      -0.00632865       0.00204014
C        4.90821027       4.21606076       3.75258001       0.00000000      -0.00193645       0.00036360       0.00306787
S        3.70128833       6.27814315       2.47336454       0.00000000      -0.00077419      -0.00762209      -0.00257902
C        2.48969345       8.64242857       3.10756031       0.00000000       0.00258997       0.00681928      -0.00459133
C        9.86778510      -0.02477452       3.70905002       0.00000000      -0.00099446       0.00791283      -0.00395286
C        8.61255569       2.08611586       3.95615793       0.00000000      -0.00388257       0.00321022       0.00242807
C        7.37753608       4.22273792       3.92092752       0.00000000       0.00270808      -0.00666853      -0.00401185
C        6.17024349       6.35060322       3.58880156       0.00000000      -0.00176728       0.00094861      -0.00865649
C        4.94842359       8.53084563       3.38408202       0.00000000      -0.00442321      -0.00188130       0.01088405
C       -0.02147602       1.33740450       4.02642734       0.00000000       0.00331723       0.00618272      -0.00682870
C       -1.28035075       3.47009324       4.12823002       0.00000000       0.00593569      -0.00339060       0.00180860
C       -2.46522588       5.63245041       3.97681962       0.00000000      -0.00267195       0.00387881       0.00867298
C       -3.69533322       7.76353786       3.81207855       0.00000000      -0.00024734      -0.00096719       0.00213562
C       -4.94295903       9.89533418       3.83632243       0.00000000       0.00147246      -0.00300103       0.00533572
C        2.45413151       1.33595143       3.98825135       0.00000000       0.00096596      -0.00367489       0.00537053
C        1.19380453       3.44329692       4.10152239       0.00000000       0.00331023       0.00290290      -0.00259469
C       -0.03883027       5.55170568       4.07503130       0.00000000       0.00093788       0.00145575       0.00271799
C       -1.20371078       7.76446893       3.76553111       0.00000000      -0.00331824       0.00022074       0.00827878
C       -2.46805139       9.89710587       3.85437753       0.00000000      -0.00236425      -0.00200011      -0.00183978
C        4.91158793       1.37033562       3.90854651       0.00000000      -0.00338760       0.00138019      -0.00219920
C        3.65654866       3.50677192       3.86991434       0.00000000      -0.00164995       0.00127250       0.00115466
C        1.21399162       7.94097546       2.97918600       0.00000000       0.00710343       0.00134462      -0.00248437
C       -0.01293228       9.93214329       3.69103873       0.00000000      -0.00346284      -0.00383107      -0.00010391
C        7.37727186       1.38330349       3.87871654       0.00000000       0.00067885      -0.00385511       0.00332258
C        6.14212070       3.51089949       3.90068710       0.00000000       0.00029803      -0.00636859      -0.00584733
C        4.98789038       5.58866010       3.41504394       0.00000000      -0.00512803       0.00173378       0.00271135
C        3.72113995       7.96452274       2.98201692       0.00000000      -0.00502883      -0.00932955       0.01106697
C        2.46047185       9.99416416       3.51254658       0.00000000       0.00148586       0.00740771      -0.00637307
C        9.84906385       1.37108732       3.93548388       0.00000000      -0.00847628       0.00443216      -0.00123623
C        8.60635139       3.50589630       4.00443902       0.00000000       0.00832200       0.00158629       0.00545166
C        7.39566225       5.64031557       3.82185838       0.00000000      -0.00460160      -0.00473240      -0.00355682
C        6.16499889       7.77729200       3.53915075       0.00000000       0.00304564       0.00218380      -0.00725278
C        4.93131564       9.93598527       3.65788069       0.00000000      -0.00012356       0.00377933       0.00595471
Os       1.89524379       6.06342111       3.86744647       0.00000000       0.00826614      -0.00408264      -0.01389849
O        3.01017242       7.31625231       5.92559184       1.00000000      -0.00174547       0.00369670      -0.00541506
O        1.94456130       6.56093892       5.72961467       1.00000000      -0.00292206      -0.00023165       0.01295905
