51
Lattice="12.336457 0.0 0.0 -6.168228499999997 10.683685154694365 0.0 0.0 0.0 15.0" Properties=species:S:1:pos:R:3:initial_magmoms:R:1:forces:R:3 energy=-448.4259783465085 free_energy=-448.4259783465085 stress="-0.0029718482753510844 0.0032474567473060783 -2.0664163519833994e-07 0.0032474567473060783 0.007358081498506882 2.0691571797559604e-05 -2.0664163519833994e-07 2.0691571797559604e-05 1.1020796938159439e-05" pbc="T T T"
C       -0.02247520       0.05323325       3.64257614       0.00000000       0.00663302      -0.00534208      -0.00166762
C       -1.25053345       2.16667560       3.90555283       0.00000000      -0.00446549       0.01041835       0.00022652
C       -2.54432338       4.29407042       4.03033988       0.00000000      -0.00664164      -0.00439483       0.00499401
C       -3.78243513       6.44101272       3.81702232       0.00000000       0.00913198       0.00488002       0.00204150
C       -4.98197508       8.58033390       3.63626146       0.00000000      -0.00432779      -0.00006125       0.00619134
C        2.45094591       0.05523545       3.57783335       0.00000000      -0.00116180      -0.00328505      -0.00640404
C        1.24056537       2.18466690       3.40776068       0.00000000       0.00071338      -0.00322395       0.00977507
C       -0.21102489       4.38929897       4.47367357       0.00000000       0.00396709      -0.00594700      -0.00362571
C       -1.39299239       6.49207027       4.12870253       0.00000000       0.00984626      -0.00112027       0.00735004
C       -2.52217553       8.59370168       3.77131650       0.00000000      -0.01047642       0.00968289       0.00695738
C        4.92322033       0.00781869       3.65223510       0.00000000      -0.00128201      -0.00392946       0.00267397
C        3.75075262       2.15091322       3.42779307       0.00000000       0.00273724       0.00717742       0.00688124
C        1.05873798       6.40556392       4.16153075       0.00000000       0.00810864       0.00648460      -0.00728025
C       -0.02683058       8.54196595       3.88261269       0.00000000       0.00104102      -0.00852620       0.00086630
C        7.39655310      -0.02528806       3.74399745       0.00000000      -0.00131395       0.01229890      -0.00503174
C        6.17242687       2.13830323       3.60499772       0.00000000      -0.00408018       0.00745918      -0.00174460
C        4.95754002       4.28122319       3.42698820       0.00000000      -0.00284947      -0.00209996      -0.00023751
O        3.73379449       6.42063911       3.50171086       0.00000000      -0.00332205      -0.00670872      -0.00893919
C        2.46293543       8.48342216       3.78496023       0.00000000       0.00331596      -0.01026882      -0.00090968
C        9.85077335      -0.00837994       3.75376317       0.00000000       0.00121495      -0.00078559      -0.00120207
C        8.62063210       2.13882686       3.80824000       0.00000000       0.00177040      -0.00557131      -0.00341849
C        7.36425641       4.28806950       3.70962132       0.00000000       0.00267406      -0.00521555       0.00079449
C        6.11517841       6.41480850       3.58300012       0.00000000      -0.00351004       0.00100321      -0.00380656
C        4.89831795       8.54047175       3.63884058       0.00000000      -0.00223298       0.00599565      -0.00572771
C       -0.00636100       1.48929546       3.68267164       0.00000000      -0.00490874      -0.00134678       0.00455257
C       -1.31417823       3.58258740       4.16684429       0.00000000      -0.00510984       0.00724836      -0.00146301
C       -2.57794925       5.73103785       4.01673076       0.00000000       0.00717097      -0.00456825       0.00449754
C       -3.75472125       7.87197732       3.73834535       0.00000000      -0.00425510       0.00688989       0.00700829
C       -4.95984541      10.02315327       3.60105419       0.00000000       0.00456580      -0.00682395       0.00551818
C        2.49266249       1.48627045       3.48728188       0.00000000       0.00567935      -0.00105987       0.00339654
O        1.27615306       3.36958117       2.73650501       0.00000000      -0.00069360       0.00396133       0.00227646
C       -0.19090918       5.78536195       4.30493738       0.00000000       0.01310291      -0.00570286       0.00125280
C       -1.30398603       7.88761587       3.93336745       0.00000000      -0.00760559       0.00400277      -0.00504593
C       -2.49426697      10.01089415       3.65469756       0.00000000      -0.00585488       0.00411478       0.00121459
C        4.94136117       1.43489765       3.54982846       0.00000000      -0.00024438       0.00157365       0.00296670
O        3.81518246       3.52760152       3.25846440       0.00000000      -0.00804645       0.01085218      -0.00744626
C        1.20109296       7.79375731       3.94515082       0.00000000       0.00587929      -0.01066570       0.00340383
C       -0.01454912       9.96160941       3.75027941       0.00000000       0.00290746      -0.00315952       0.00091624
C        7.39196086       1.41613476       3.71268546       0.00000000      -0.00406285       0.01416140       0.00616378
C        6.15281499       3.57030477       3.57186481       0.00000000      -0.00298387       0.00064784       0.00751532
C        4.91923418       5.69795350       3.47733577       0.00000000      -0.00106154      -0.00660949      -0.00007990
C        3.70184735       7.79265309       3.65680932       0.00000000       0.00306574      -0.00401094      -0.01692331
C        2.45803807       9.92395895       3.76359074       0.00000000      -0.00253770      -0.00075895      -0.00039763
C        9.86042485       1.43261213       3.83413115       0.00000000       0.00331922       0.00163186      -0.01041177
C        8.59196963       3.56971723       3.84581926       0.00000000      -0.00028197      -0.01322167       0.00121443
C        7.34193050       5.70866738       3.69861437       0.00000000       0.00551413       0.00292858       0.00169036
C        6.13023438       7.84826768       3.60944568       0.00000000      -0.00596533       0.00558366      -0.00159467
C        4.90970562       9.98444856       3.68693352       0.00000000       0.00521527       0.00339900       0.00504076
Os       1.69249859       4.54818015       4.22384947       0.00000000       0.00431269       0.00415666      -0.01099169
O        2.34144661       3.87436343       6.06772140       1.00000000      -0.00174609      -0.01294667      -0.01306131
O        3.03592828       4.98363672       5.51529509       1.00000000      -0.01086506       0.00080252       0.01003042
