49
Lattice="12.336457 0.0 0.0 -6.168228499999997 10.683685154694365 0.0 0.0 0.0 15.0" Properties=species:S:1:pos:R:3:forces:R:3 energy=-434.8715158435564 free_energy=-434.8715158435564 stress="-0.005750336438638903 -0.001613999187104514 6.861735538054075e-07 -0.001613999187104514 -0.0006132796785534131 -2.451796077856822e-06 6.861735538054075e-07 -2.451796077856822e-06 -4.984401319218403e-06" pbc="T T T"
C       -0.00065880      -0.00495830       3.78169100       0.00309543       0.00084615       0.00014686
C       -1.25607645       2.12306785       3.72259140       0.00155442      -0.00070161      -0.01066982
C       -2.50473442       4.26740285       4.01419727       0.00401712      -0.00050392       0.00386641
C       -3.70278545       6.41966985       4.13977573      -0.00388397      -0.00608779      -0.00106457
C       -4.92042113       8.56993127       4.01460304      -0.00011931       0.00254469      -0.00522727
C        2.47254399      -0.00504704       3.71566951       0.00421727      -0.00373434       0.00253497
C        1.21399244       2.06379961       3.31480993      -0.00303812      -0.00480693      -0.00434483
C       -0.14947837       4.31918325       3.54282729       0.00034213      -0.00382144       0.00927660
C       -1.27871856       6.42659006       3.97622835       0.00381336      -0.00068103      -0.00405967
C       -2.46755500       8.55861468       3.98207462       0.00246908       0.00589853      -0.00306803
C        4.93797505      -0.01248553       3.73096317       0.00054553       0.00727714       0.00540011
C        3.71515090       2.07756375       3.25135101      -0.00109250      -0.00582873      -0.01474223
C        1.20044988       6.35781069       3.63131496       0.00274516       0.00746459      -0.00148898
C        0.00672524       8.52463733       3.84181328       0.00034943       0.00408598      -0.00506628
C        7.40460744      -0.02696913       3.79692349       0.00085133      -0.00561267       0.00168750
C        6.16063507       2.13571077       3.72963328       0.00109009      -0.00152785       0.00542321
C        4.99493175       4.35379369       3.65097821      -0.00539817       0.00035693       0.00021300
N        3.83908735       6.42051027       3.63053681       0.00179816       0.00774236       0.00314369
C        2.48068719       8.49220179       3.76177761       0.00349429      -0.00526479       0.00308352
C        9.86064319      -0.02545386       3.81571788      -0.00249252      -0.00225310       0.00309043
C        8.61937082       2.12284216       3.90881677       0.00105726       0.00623134       0.00342925
C        7.38717904       4.27166881       4.05966972      -0.00392204      -0.00270749      -0.00476907
C        6.21256015       6.45355649       4.04037868      -0.00514995      -0.00074332       0.00003243
C        4.95194571       8.54220214       3.88196626       0.00135633      -0.00051768       0.00109132
C       -0.01420197       1.41702150       3.60888374       0.00228393      -0.00064217      -0.00358069
C       -1.29865704       3.54168914       3.78742573      -0.00414532      -0.00183428      -0.00953755
C       -2.48928879       5.69622182       4.07807264       0.00275717      -0.00366593       0.00416711
C       -3.69497510       7.84807122       4.07420171      -0.00060183       0.00022602       0.00228044
C       -4.92727605       9.98460022       3.84979526       0.00433184       0.00339843      -0.00124189
C        2.47083092       1.40582581       3.38524542       0.00006222      -0.00694097       0.00955138
S        1.10387436       3.64427369       2.55883778      -0.00328960      -0.00052238      -0.00648341
C       -0.06991353       5.70817388       3.72738919      -0.00091460       0.00071163      -0.00088997
C       -1.24012543       7.84382782       3.95997437       0.00308988       0.00364838      -0.00554089
C       -2.46508669       9.97383065       3.81843077       0.00373590       0.00336899      -0.00581070
C        4.93582106       1.41792923       3.56006937      -0.00242863       0.00100597       0.00303275
S        3.85540883       3.69158695       2.47510614       0.00435561       0.00020959      -0.00044198
C        1.24906068       7.77822240       3.75359061      -0.00058081       0.00570091      -0.00928388
C        0.00544552       9.94758978       3.79763069      -0.00184043       0.00306480       0.00044003
C        7.38681419       1.41031762       3.82833771       0.00154519      -0.00134713       0.00090487
C        6.16662388       3.55769053       3.85931240       0.00078405       0.00167103      -0.00039445
C        5.00881932       5.76311755       3.78133757      -0.00127245       0.00396184       0.00774541
C        3.73314945       7.78817795       3.76954688       0.00363833       0.00199267       0.00644592
C        2.46880434       9.93144290       3.80126352      -0.00061825      -0.01003510       0.00350810
C        9.85838080       1.40735276       3.83257510       0.00086638       0.00172746       0.00257197
C        8.61030630       3.54806139       4.03036081       0.00107415       0.00450461       0.00353598
C        7.40911474       5.70278865       4.12366498      -0.00788268      -0.00615745       0.00150049
C        6.18764214       7.86428090       4.00928841      -0.00064933      -0.00065297      -0.00249423
C        4.93281916       9.95943007       3.83751932       0.00153705      -0.00072060       0.00054106
Os       2.51594515       4.92118124       3.71055019      -0.01353758      -0.00032833       0.01155555
