53
Lattice="12.336457 0.0 0.0 -6.168228499999997 10.683685154694365 0.0 0.0 0.0 15.0" Properties=species:S:1:pos:R:3:forces:R:3 energy=-463.47017477918865 free_energy=-463.47017477918865 stress="-0.0008924656388235232 -0.0020580205122267903 5.612255331029942e-05 -0.0020580205122267903 -0.006327767789129315 7.433894320278231e-07 5.612255331029942e-05 7.433894320278231e-07 1.1106036396554344e-05" pbc="T T T"
C        0.02013083      -0.04854418       3.93045275       0.00515485      -0.00029622      -0.00435440
C       -1.22744165       2.08095206       4.12239191       0.00030062       0.00670272       0.00685728
C       -2.46349835       4.23172947       4.12789537      -0.00388127      -0.00452700       0.00347264
C       -3.66797179       6.36703493       3.93800364       0.00312073      -0.00331183       0.00260442
C       -4.91345448       8.49373551       3.80106206      -0.00546311       0.00558707      -0.00583068
C        2.48956407      -0.06218011       3.97633449       0.00133746      -0.00085616       0.00558328
C        1.24409493       2.04928969       4.12310363      -0.00246732      -0.00429324       0.00677347
C       -0.00862084       4.18305005       4.19743910      -0.00897257      -0.00810814      -0.00784183
C       -1.17726353       6.35385399       4.00875772       0.00682049      -0.00518576      -0.00680724
C       -2.42145111       8.49158639       3.89619470      -0.00623797       0.01195244      -0.01186817
C        4.94854438      -0.03266421       3.90470879      -0.00124039       0.00724768      -0.00521415
C        3.70345675       2.09860436       3.98146247       0.00760093      -0.01075243       0.00654785
C        2.43379052       4.16634821       3.96593749      -0.00126079       0.00399327       0.01029254
O        1.13764100       6.95555044       2.16289829       0.00536642      -0.00752502      -0.01218954
C        0.01868786       8.54415632       3.60274509      -0.00266339      -0.00156244      -0.00071909
C        7.41263356       0.00120071       3.75247853      -0.01211606       0.00588383       0.00655950
C        6.17014913       2.11071091       3.96983864       0.00409251      -0.00081579      -0.00545837
C        4.93891292       4.23764238       3.77552044       0.00663578      -0.00266378       0.00319095
S        3.74953397       6.31174815       2.48412118       0.00509254      -0.00276582       0.00180960
C        2.51854783       8.66467667       3.17192218       0.00500719       0.00154247       0.01502866
C        9.89665374      -0.00223805       3.77501482       0.00924256       0.00502979       0.00084805
C        8.64194518       2.10995543       4.02110730       0.00286182      -0.00524918      -0.00721517
C        7.40782801       4.24479351       3.97455400       0.00385906      -0.00738958      -0.00038216
C        6.20266545       6.37187339       3.62803173      -0.00104606       0.01299345       0.01130020
C        4.97819900       8.55316713       3.45154694      -0.00247727       0.00156203       0.00758030
C        0.00863611       1.36096332       4.08768492      -0.00345751       0.00055926       0.00128742
C       -1.24792607       3.49371872       4.19484763      -0.00849568       0.00118889       0.00140125
C       -2.43587020       5.65626082       4.04962220       0.00616619      -0.00610280       0.00364235
C       -3.66513745       7.78557237       3.88392356      -0.00528681       0.00389862      -0.00297014
C       -4.91354961       9.91734366       3.90757200       0.00307655       0.00150290      -0.00846987
C        2.48406237       1.35916109       4.03918914       0.00220961      -0.00590078       0.00237925
C        1.22487852       3.46685174       4.13970012      -0.00761991      -0.00273745      -0.00834105
C       -0.00890367       5.57614999       4.12471529       0.00452081      -0.00912828      -0.00776056
C       -1.17423796       7.78784809       3.83744561      -0.00598532       0.00071130      -0.01048134
C       -2.43875270       9.91903683       3.92195145       0.00041036       0.01152077       0.00088090
C        4.94002659       1.39280292       3.95720298       0.01047429      -0.00077317      -0.00559714
C        3.68591403       3.52968143       3.88933472       0.00237900      -0.00628930       0.00560227
C        1.23788311       7.96898191       3.02760949       0.00408406      -0.00545085      -0.00049602
C        0.01682588       9.95444329       3.75157594      -0.01045873       0.00181836       0.00136498
C        7.40683420       1.40627314       3.93511608      -0.00276080       0.00332000       0.00331386
C        6.17193131       3.53294878       3.94101210       0.00554781      -0.00563588      -0.00723853
C        5.02018186       5.61148474       3.44342368       0.00838273       0.00558314       0.00871914
C        3.75199092       7.98667841       3.04731870       0.00233012      -0.00704574       0.01140586
C        2.48984988      10.01559813       3.57590633      -0.00115007       0.01147207       0.00070510
C        9.87804206       1.39459216       4.00114798       0.00694817       0.00405429      -0.00015803
C        8.63695300       3.52957199       4.07157545       0.00219690      -0.01024711      -0.00326194
C        7.42623291       5.66184154       3.87518119       0.00146775      -0.00420681      -0.00917572
C        6.19651211       7.79899072       3.59433113      -0.00609611       0.01159996       0.00239638
C        4.96014856       9.95862381       3.72874967       0.00657406      -0.00121656       0.00313981
Os       1.92648876       6.08486478       3.86167520      -0.00649376       0.01180724      -0.00278151
O        2.31510129       6.73057967       5.61123856      -0.00287025      -0.00439798       0.00645684
O        1.62383506       5.96383167       6.68063118      -0.00954917       0.00580166      -0.00772268
H        2.25625185       6.13481680       7.41329013      -0.01521102      -0.00289816       0.00119120
