51
Lattice="12.336457 0.0 0.0 -6.168228499999997 10.683685154694365 0.0 0.0 0.0 15.0" Properties=species:S:1:pos:R:3:initial_magmoms:R:1:forces:R:3 energy=-446.50797152034016 free_energy=-446.50797152034016 stress="-0.008642204383055248 -0.0009553366788088344 1.2330569628009155e-05 -0.0009553366788088344 -0.00062516226138445 1.121631789440976e-05 1.2330569628009155e-05 1.121631789440976e-05 -1.2433569477376977e-05" pbc="T T T"
C       -0.01899661       0.00360040       3.79906006       0.00000000       0.00057372       0.00397815      -0.00228403
C       -1.27037399       2.13439262       3.71756176       0.00000000      -0.01034909       0.00030340      -0.00613724
C       -2.51478169       4.28188098       4.00208833       0.00000000      -0.00389276       0.00243513      -0.00279350
C       -3.71989928       6.43542936       4.11543800       0.00000000      -0.00333879      -0.00253448       0.01415803
C       -4.93982928       8.58223181       4.01219399       0.00000000       0.00352265       0.00428856       0.00379591
C        2.45397134       0.01663570       3.76404105       0.00000000      -0.00349813      -0.00119451      -0.00880733
C        1.19345818       2.06566147       3.30570472       0.00000000       0.00537151      -0.00449419       0.00283634
C       -0.19492074       4.35115617       3.47411460       0.00000000       0.00764565      -0.00307160       0.00319459
C       -1.30740525       6.44818229       3.99370718       0.00000000       0.00590384      -0.00362577       0.00398394
C       -2.48821274       8.58245446       4.02786552       0.00000000      -0.00510285      -0.00424939      -0.00591551
C        4.92134398       0.00785807       3.76488122       0.00000000      -0.00006735      -0.00377040       0.00894053
C        3.69694104       2.06924752       3.22775401       0.00000000       0.00714777       0.00372174      -0.00645101
C        1.12637134       6.40055849       3.69690057       0.00000000       0.00445104       0.00208362       0.00135375
C       -0.01703933       8.54662974       3.89640321       0.00000000      -0.00260257      -0.00384009      -0.00908229
C        7.39040272      -0.01859639       3.80967444       0.00000000       0.00936596       0.00250897       0.00146560
C        6.16045394       2.14160220       3.64802276       0.00000000       0.00136858       0.00481764       0.00825961
C        5.08597221       4.37627595       3.35265332       0.00000000       0.00334700      -0.00314946      -0.00207249
N        3.82962621       6.42536953       3.55270783       0.00000000      -0.00141227      -0.00031394      -0.00496266
C        2.46589360       8.49807808       3.78946417       0.00000000      -0.00780866      -0.00661710      -0.01061009
C        9.84692238      -0.01993652       3.81873922       0.00000000       0.00106244      -0.00158389       0.01787007
C        8.61120861       2.13179942       3.88250889       0.00000000      -0.00186115      -0.00213822       0.00145709
C        7.39507894       4.28729073       3.94779489       0.00000000       0.00225008      -0.00378900       0.01085076
C        6.20810506       6.46149060       3.90281395       0.00000000      -0.00155792       0.00218385       0.00857059
C        4.93187152       8.54199375       3.84962865       0.00000000      -0.00090457       0.00944906       0.00869934
C       -0.02761472       1.42697137       3.61885558       0.00000000      -0.00462300      -0.00166429      -0.01166514
C       -1.30970819       3.56018745       3.76671306       0.00000000      -0.00545389       0.00308104      -0.00633482
C       -2.50925916       5.71055683       4.07608989       0.00000000      -0.00094923       0.00261813      -0.00142372
C       -3.71394281       7.86560040       4.08327317       0.00000000      -0.00188123      -0.00433574       0.00705869
C       -4.94666823       9.99943901       3.88002793       0.00000000      -0.00022770       0.00206869      -0.00314597
C        2.45125166       1.41503374       3.41835860       0.00000000       0.00478171       0.00217785       0.00951521
S        1.09309651       3.65140633       2.55424577       0.00000000       0.00383000       0.00484031      -0.01662549
C       -0.11216695       5.73154438       3.72980613       0.00000000       0.00733674      -0.00338783      -0.00132827
C       -1.26325978       7.86735266       4.00736077       0.00000000      -0.00293566      -0.00240508      -0.00928703
C       -2.48166305       9.99789403       3.87203010       0.00000000      -0.00626279      -0.00425096      -0.01108620
C        4.92210468       1.42963586       3.54025628       0.00000000      -0.00015345       0.00440859       0.01742549
S        3.76847616       3.67302452       2.46909230       0.00000000       0.00112873       0.00578260       0.00537264
C        1.21893888       7.79819623       3.80689855       0.00000000      -0.00544351      -0.00398977      -0.00310612
C       -0.01319490       9.96759916       3.83698968       0.00000000       0.00754688      -0.00181008      -0.00457121
C        7.37724225       1.41873341       3.79677120       0.00000000       0.00135298       0.00346483      -0.00158212
C        6.19118984       3.57579376       3.67410760       0.00000000       0.00598140       0.00096578      -0.00210180
C        5.03331156       5.76920202       3.57585741       0.00000000       0.00095082      -0.00614470       0.01132086
C        3.71966641       7.78867815       3.74055289       0.00000000      -0.00374712       0.00076804       0.00263068
C        2.45475274       9.93289646       3.81756400       0.00000000       0.00419618      -0.00505547       0.00765914
C        9.84772723       1.41570789       3.82852707       0.00000000      -0.00585331      -0.00323334       0.00005304
C        8.60704410       3.55787124       3.99077715       0.00000000       0.00053685      -0.00336488      -0.01619157
C        7.40300192       5.71474008       4.02795120       0.00000000      -0.00201242      -0.00276146      -0.00840141
C        6.17332279       7.87186032       3.95341074       0.00000000       0.00176984       0.00936556      -0.00802019
C        4.91513208       9.96390675       3.83858292       0.00000000       0.00213117       0.00807740       0.00276964
Os       2.47192766       4.95537405       3.84517519       0.00000000      -0.00998177       0.00755016      -0.00422628
O        3.38980601       4.15078961       6.02395398       1.00000000       0.00216342       0.00111703       0.00025368
O        2.36117073       4.95536435       5.76042228       1.00000000      -0.00379577      -0.00528048       0.00871829
