50
Lattice="12.336457 0.0 0.0 -6.168228499999997 10.683685154694365 0.0 0.0 0.0 15.0" Properties=species:S:1:pos:R:3:forces:R:3 energy=-448.35305105603106 free_energy=-448.35305105603106 stress="-0.0013871203751457683 -0.0010550398316820022 -1.0276499100901205e-05 -0.0010550398316820022 -0.004764515479777373 -9.079426817898622e-06 -1.0276499100901205e-05 -9.079426817898622e-06 1.582940727926988e-06" pbc="T T T"
C        0.01063794      -0.04234419       3.93939819      -0.00654567       0.00489020       0.00473188
C       -1.23237346       2.09063117       4.08861385       0.00098181      -0.00750298      -0.00004004
C       -2.46395534       4.24127483       4.05323446       0.00127562      -0.00539069       0.00397991
C       -3.66845655       6.37498234       3.88530771       0.00143198      -0.00069499      -0.00574138
C       -4.92164363       8.50394140       3.79823342       0.00189408       0.00639114      -0.00071780
C        2.48004699      -0.04709549       3.93850752      -0.00370299       0.00135253       0.00991750
C        1.23968090       2.06637203       4.06786223       0.00144021      -0.00106229      -0.00045723
C       -0.00532023       4.19838952       4.09005542       0.00034817       0.00675427       0.00297249
C       -1.17918440       6.36913264       3.90048946       0.00047167       0.00163042       0.00299252
C       -2.43920165       8.50769070       3.84139537       0.00219219      -0.00314436      -0.00014847
C        4.93788818      -0.02085000       3.86355196      -0.00339893      -0.00072016      -0.00062153
C        3.69692400       2.11473710       3.92175620       0.00225867       0.00454493       0.00391288
C        2.43072474       4.21726382       3.85996228      -0.00150081       0.00835092       0.00244384
O        1.14748179       7.11225146       1.95031652      -0.00213437      -0.00112854      -0.00016058
C       -0.00369412       8.55305975       3.55890315      -0.00527092      -0.00190910      -0.00336856
C        7.40409632      -0.00287667       3.77716410       0.00197975      -0.00322123      -0.00557142
C        6.16703635       2.11648931       3.92654681       0.00210316       0.00127057       0.00520380
C        4.93773815       4.24351683       3.71223800      -0.00291706      -0.00030999       0.00436176
S        3.78541103       6.35033831       2.41110501      -0.00923473      -0.01039366       0.00336409
C        2.49657216       8.62021762       3.28469017      -0.00306594       0.00230444       0.00197009
C        9.88158218      -0.01403633       3.83586139       0.00638617      -0.00099845       0.00368951
C        8.63851093       2.11180635       4.00208698      -0.00024352       0.00023155       0.00011947
C        7.40874573       4.24754722       3.92151536      -0.00193569       0.00249003       0.00127559
C        6.20137570       6.37819105       3.61737586      -0.00173428      -0.00768634       0.00197833
C        4.96591188       8.54324164       3.54288076       0.00616597      -0.00115697      -0.00552600
C        0.00279718       1.37209855       4.05960374       0.00070638       0.00052814      -0.00567816
C       -1.24725834       3.50850613       4.12229694       0.00153272      -0.00839927      -0.00595944
C       -2.43514663       5.66543507       3.96709698       0.00041852      -0.00187704       0.00051600
C       -3.67394177       7.79654039       3.84423326       0.00171385       0.00142779       0.00626687
C       -4.92244966       9.92777940       3.89744689      -0.00786193       0.00982367       0.00147850
C        2.47758821       1.37496992       3.98705699       0.00223374       0.00185456      -0.00424292
C        1.22119764       3.48652746       4.04997364       0.00010073       0.00087912      -0.00446584
C        0.02571529       5.61099737       3.97362171       0.00151410       0.00598229       0.00906473
C       -1.19270704       7.79954834       3.76240583      -0.00110531      -0.00224308      -0.00253724
C       -2.45113508       9.93300721       3.87634165      -0.00364322      -0.00279899      -0.00237544
C        4.93279646       1.40485343       3.90990675       0.00174106       0.00235390      -0.00602546
C        3.68317612       3.54687225       3.81182021      -0.00263365       0.00254815      -0.00127427
C        1.21702642       7.97188352       2.98174839      -0.00387178      -0.00366295       0.00357532
C        0.00421197       9.96148180       3.73279165      -0.00212159      -0.00393113      -0.00341228
C        7.40214033       1.40780755       3.92601282       0.00111600      -0.00225849      -0.00370136
C        6.17399536       3.53660779       3.88559462      -0.00023626       0.00195983      -0.00022907
C        5.01495781       5.62403552       3.41576424      -0.00599758      -0.00493830       0.00086198
C        3.72695705       7.94326363       3.18166139      -0.00162286       0.00510781      -0.00157952
C        2.47520094       9.99623056       3.65859849       0.00554012       0.00455744      -0.00811457
C        9.87208184       1.39464457       4.00464296       0.00032991      -0.00254545       0.00059963
C        8.63778116       3.53361942       4.01966457      -0.00168168       0.00090566      -0.00030592
C        7.42668631       5.66618474       3.83390502      -0.00033589      -0.00105204      -0.00475381
C        6.18696501       7.80390210       3.62287977       0.00771171      -0.00559935      -0.00521683
C        4.94688157       9.95078128       3.79217710       0.00234267      -0.00326296       0.00763136
Os       1.89622545       6.12325555       3.60436145       0.01686572       0.00974943      -0.00068291
