50
Lattice="12.336457 0.0 0.0 -6.168228499999997 10.683685154694365 0.0 0.0 0.0 15.0" Properties=species:S:1:pos:R:3:forces:R:3 energy=-442.01959661213243 free_energy=-442.01959661213243 stress="-0.004464631237797185 0.0074413953987654095 -2.9079113344689547e-06 0.0074413953987654095 9.565875796452885e-05 -1.873433642810014e-05 -2.9079113344689547e-06 -1.873433642810014e-05 3.5073253101887833e-06" pbc="T T T"
C        0.02111961       0.04562512       3.74209791       0.01147773      -0.00337496       0.01172887
C       -1.18069632       2.18842067       3.89068606       0.00085964      -0.00881409       0.00574858
C       -2.46453849       4.31208967       3.83000770      -0.01475168      -0.00248141       0.00117379
C       -3.73482597       6.43763573       3.62091258      -0.00441977       0.01494508      -0.00284967
C       -4.96186726       8.56584152       3.65776664       0.00526336       0.00220898       0.00682360
C        2.48201248       0.03616042       3.55388908       0.00546941      -0.01015534      -0.00572401
C        1.30463422       2.16919874       3.50124344      -0.00254379       0.00345088       0.00376193
C       -0.15016839       4.45048270       4.39977674       0.01019606      -0.00557631      -0.01624533
C       -1.32640915       6.50196767       3.83871242      -0.00611110      -0.00210251       0.00283156
C       -2.49634195       8.58805840       3.57787660       0.00653976      -0.00618669       0.00879710
C        4.95763796       0.00514017       3.49832812      -0.00020321      -0.00384399       0.00627536
C        3.79422152       2.12324423       3.45761693      -0.00170794       0.00060737      -0.00805901
N        1.03901457       6.47833712       4.20886288      -0.00149108       0.00137398      -0.00662120
C       -0.01813874       8.56755675       3.75379282      -0.00288696       0.00480504       0.00366826
C        7.43725099      -0.00527759       3.65305726       0.00279479       0.00583679       0.01238018
C        6.23860062       2.11505652       3.43696990       0.00203266       0.00203945      -0.00443115
C        5.03000184       4.19322867       3.55734641      -0.00287304       0.00579790       0.00924270
P        3.59562562       6.18325563       4.69173012      -0.00763731       0.00099911       0.00512135
C        2.45217330       8.55119533       3.99550033      -0.00193465      -0.00726166       0.00492286
C        9.89810527       0.01768886       3.82493763       0.00001377       0.00298991       0.00537899
C        8.68841350       2.14882550       3.67609814      -0.00048592      -0.00428319      -0.01012632
C        7.43926592       4.27722450       3.53510946      -0.00433555      -0.00500886      -0.00320814
C        6.15147224       6.38813677       3.70819375       0.00517192      -0.00653400       0.00295248
C        4.92769933       8.55268983       3.93753014       0.00627201       0.00278974      -0.00236589
C        0.05410744       1.48682502       3.73855201       0.00266683      -0.00611133      -0.00186975
C       -1.23217878       3.62136296       4.05721423      -0.00351273      -0.00577658       0.00245294
C       -2.50954875       5.73751513       3.75163396      -0.01359333       0.00414905      -0.00633971
C       -3.73167564       7.86427696       3.59789146       0.00373745       0.01117984       0.01293559
C       -4.93097344      10.00557752       3.64610896       0.00733278      -0.00474758      -0.00875983
C        2.53990780       1.46159496       3.52112778      -0.00296740      -0.00351297       0.00629902
O        1.39074563       3.42131140       3.07820603      -0.00918995       0.00424747      -0.01132344
C       -0.13853336       5.83550207       4.15030716       0.00024231      -0.00171207      -0.00125191
C       -1.27188618       7.89737756       3.69694258       0.00258484      -0.00289979       0.00901228
C       -2.46317481      10.00515555       3.52369748       0.00494890      -0.01266684       0.00505662
C        4.99031702       1.42297922       3.42899142       0.00100273      -0.00060073      -0.00553545
O        3.84959053       3.49913972       3.47929381       0.00188555       0.00481451      -0.01771061
C        1.18260758       7.83886029       3.99013953      -0.00594741       0.00039977       0.00302181
C        0.02053285       9.97734355       3.61403311       0.00181322       0.00529752       0.00346572
C        7.45792879       1.41916931       3.56384417       0.00178306       0.00471003       0.00950126
C        6.23551808       3.52701865       3.43672714      -0.00450007       0.00209866      -0.01320744
C        4.97898135       5.57229404       3.81224489      -0.00472984       0.00552860      -0.00138839
C        3.67968131       7.86896900       4.15018924       0.00098722      -0.00305493      -0.00002683
C        2.48561822       9.97362745       3.81708938       0.00002568      -0.00127936       0.00592878
C        9.92631569       1.45437334       3.80126787      -0.00196837      -0.00128364      -0.00268185
C        8.67074496       3.57660590       3.65690530      -0.01023906      -0.00910554      -0.00606048
C        7.39196558       5.70058132       3.58778921       0.00505968      -0.00259803      -0.00446202
C        6.14522180       7.82878985       3.78477487       0.00760241      -0.00223387       0.00330942
C        4.95395871       9.99443948       3.84968210       0.00559508       0.00543998      -0.01062122
Os       1.79937046       4.65512303       4.60547913       0.00363266       0.01397501       0.00606887
O        2.04963570       4.32277395       6.31886017       0.00103867       0.01352159      -0.00699027
