49
Lattice="12.336457 0.0 0.0 -6.168228499999997 10.683685154694365 0.0 0.0 0.0 15.0" Properties=species:S:1:pos:R:3:forces:R:3 energy=-435.65301837121797 free_energy=-435.65301837121797 stress="0.0006735675346935141 0.002467824623591982 1.3039984406946382e-05 0.002467824623591982 0.003986238653634471 6.376281395767381e-06 1.3039984406946382e-05 6.376281395767381e-06 9.043675895056694e-06" pbc="T T T"
C        0.02472296      -0.01994305       3.66469828      -0.00291062       0.00034928      -0.00083186
C       -1.20526849       2.12033998       3.56346034      -0.00364591       0.00100057       0.00346466
C       -2.46202611       4.25314732       3.65788389       0.00006245       0.00111597      -0.00523425
C       -3.72364719       6.38975386       3.75858760       0.00130987      -0.00028433       0.00505817
C       -4.92917332       8.52263083       3.78357919      -0.00484305       0.00383371      -0.00249501
C        2.49213847      -0.00370422       3.76544458       0.00753834       0.00905309       0.00597517
C        1.29297764       2.08051682       3.35514412       0.00526563       0.01191150      -0.00418633
C        0.00894446       4.34156718       3.38875060       0.00205262       0.00534789      -0.01381761
C       -1.30133221       6.44263558       3.52454189      -0.00826256      -0.00599110       0.00866423
C       -2.46822867       8.53851951       3.81291060      -0.00053769      -0.00309068       0.00078642
C        4.95586495      -0.03619478       3.85982647      -0.00816943       0.00271562       0.00713757
C        3.76723106       2.10165230       3.76226001       0.00120280      -0.00609673      -0.00352974
O        1.32296585       6.88534968       5.25452560      -0.01262973      -0.00616756      -0.01232424
C        0.01206663       8.49682826       3.92774850       0.00851620       0.00092569      -0.00763020
C        7.43049914      -0.05017342       3.87137053      -0.00414725       0.00164804       0.00126205
C        6.19723686       2.10385683       3.85000971      -0.00237196      -0.01090704       0.00391254
C        4.95671635       4.22684916       3.84602251      -0.00059183      -0.01419701       0.00092297
N        3.71688820       6.38539672       3.77473468       0.00738772       0.00622908       0.01010047
C        2.49867713       8.48186033       3.88007361       0.00893451       0.00787808       0.01189586
C        9.89297742      -0.03832644       3.73097706       0.00343524      -0.00671686       0.00097508
C        8.66187629       2.10558862       3.76043631       0.00624783       0.00110817       0.00024651
C        7.40159858       4.24779662       3.80357987      -0.00055478       0.00692472      -0.01674506
C        6.14236865       6.36900698       3.80977667      -0.00303385       0.00630273      -0.00272463
C        4.95416749       8.50436534       3.76396056      -0.00553410      -0.00455306      -0.00839566
C        0.04614369       1.40954959       3.51318066      -0.00099500       0.00666682      -0.00210815
C       -1.23263042       3.53870768       3.55758722       0.00015363       0.00326487       0.00230618
C       -2.50288772       5.68585582       3.64930344      -0.00699939      -0.00684366      -0.00553876
C       -3.70159957       7.81562929       3.78768655      -0.00351127      -0.00045529      -0.00324923
C       -4.91485323       9.95603732       3.74001996       0.00331855       0.00854646       0.01474316
C        2.52056992       1.42525822       3.64164216       0.00446610       0.00418825       0.00462982
P        1.42040815       3.69149485       2.51412967       0.00599268      -0.00880015       0.00511951
C       -0.13122285       5.76076267       3.24293735       0.00642176       0.00464504      -0.00713033
C       -1.23624810       7.83989418       3.77000041       0.00158035      -0.00293075       0.00601984
C       -2.45294555       9.96149148       3.84080483      -0.00035780      -0.00095858      -0.00711028
C        4.96345611       1.39796199       3.83837900      -0.00279079      -0.00462588       0.00767055
O        3.80402263       3.47839564       3.90125124      -0.00267409      -0.01453784       0.00165207
C        1.27791763       7.77272605       4.24392342       0.00895209      -0.00706996      -0.00491304
C        0.02663971       9.91583024       3.90557639      -0.00616485       0.00703639       0.00075546
C        7.42368338       1.38732451       3.83367279       0.00404553      -0.00215489       0.00837014
C        6.16957942       3.53219528       3.83794128       0.00157569      -0.00983032       0.00116719
C        4.88231357       5.65822378       3.81629211      -0.00095347      -0.00525908      -0.00187765
C        3.72751094       7.74723780       3.79794583       0.00301118       0.00399752      -0.00271877
C        2.49270776       9.91046447       3.82455499       0.00091169       0.00433101       0.00480918
C        9.89815164       1.39319693       3.68549306       0.00265632      -0.00474448       0.01439925
C        8.64292842       3.53368522       3.75073734       0.00218378       0.00436316      -0.01380166
C        7.37417435       5.66768551       3.79797081      -0.00096986       0.00946041      -0.00131381
C        6.17088066       7.79493645       3.78403352      -0.00717400       0.00229946       0.00533335
C        4.95559660       9.93544554       3.71908969      -0.00222138      -0.01078843      -0.00593927
Os       1.61285405       5.51923864       3.79026266      -0.00517790       0.01186014      -0.00376183
