49
Lattice="12.336457 0.0 0.0 -6.168228499999997 10.683685154694365 0.0 0.0 0.0 15.0" Properties=species:S:1:pos:R:3:forces:R:3 energy=-434.7221774955408 free_energy=-434.7221774955408 stress="-0.001255430907919536 0.008033565759548096 5.7925988120139444e-06 0.008033565759548096 -0.0004815164288487626 -3.022466120870199e-06 5.7925988120139444e-06 -3.022466120870199e-06 5.846996418852543e-06" pbc="T T T"
C        0.02034578       0.03252482       3.71416536       0.00426354      -0.00216057       0.01630296
C       -1.16314060       2.17802408       3.78919593      -0.00035951      -0.00379566       0.00254722
C       -2.43144432       4.30887284       3.87959746      -0.00193319      -0.00319923       0.00267257
C       -3.71300268       6.43196860       3.83064692       0.00122131      -0.01316006       0.00183616
C       -4.95835460       8.55572797       3.81725609       0.00285911       0.00554354       0.00805892
C        2.47784397       0.03419595       3.70305780       0.00361046       0.00542448       0.00219750
C        1.31342946       2.15174144       3.29101823       0.00267095       0.00616295       0.01300675
C       -0.01059037       4.39364100       4.02783005       0.00928149       0.00078528       0.00188976
C       -1.25951343       6.47403461       3.73762132      -0.00185355       0.00660802      -0.00847166
C       -2.48873480       8.58033810       3.69025776      -0.01413733      -0.00091992       0.00792663
C        4.94454648       0.02157164       3.63941431       0.00325130       0.00154811       0.00268263
C        3.78234270       2.11961785       3.79345696      -0.00511609      -0.00467615      -0.00098723
N        1.10355855       6.52135449       3.48813225      -0.00340079       0.00341751      -0.01914515
C       -0.02875305       8.59550014       3.57115279       0.00584420      -0.00151731       0.00298372
C        7.43419016       0.01629171       3.62225549      -0.00267216       0.00556718       0.00326372
C        6.23191499       2.12542551       3.72851863       0.00735401       0.00594737      -0.00679508
C        5.02685464       4.19157340       3.99310903       0.00719048      -0.00312960       0.00731014
P        3.35121272       6.16246224       4.55231650      -0.01607505       0.00962778      -0.00169922
C        2.46287224       8.57112228       3.71534734       0.00271406      -0.00059223      -0.01220704
C        9.90458404       0.02403062       3.72668385      -0.00485522      -0.00672633       0.00381291
C        8.69711746       2.15746803       3.75478404       0.00033071       0.00067259       0.01339844
C        7.44454457       4.27988768       3.84126942       0.01057763       0.00513771       0.00550743
C        6.15009420       6.38459296       3.98041941       0.00170982       0.00430342      -0.00413446
C        4.90972637       8.53943797       3.92128799      -0.00796725      -0.00732244       0.00658784
C        0.05241996       1.46865777       3.62373237       0.00000395      -0.00422709      -0.00224746
C       -1.18063572       3.61158919       3.94047192       0.00148037       0.00045576      -0.00054808
C       -2.46506809       5.73313904       3.82668422       0.00321416      -0.00476472      -0.00752237
C       -3.72124065       7.85592221       3.78171410      -0.00980008      -0.01276465      -0.00093306
C       -4.92925550       9.99317510       3.73450147       0.00822649       0.00635745       0.00807523
C        2.53079385       1.46982449       3.67535390      -0.00227465      -0.00059872       0.00619190
O        1.39560919       3.11896187       2.38402788      -0.00516467      -0.00757078       0.00219252
C        0.00791151       5.78803340       3.74561820       0.00075084       0.00526458       0.00905395
C       -1.25768581       7.88439528       3.64103069      -0.00532334       0.00835056       0.00377473
C       -2.46584358      10.00432535       3.67805384      -0.00185951       0.00260289       0.00453305
C        4.98412502       1.43386677       3.70438013       0.00288927       0.00560627       0.00123247
O        3.84986211       3.46265615       4.12532442      -0.01677771       0.00014868      -0.00885491
C        1.19634453       7.88325804       3.57351328       0.00675815      -0.00032617      -0.00692782
C        0.01092303      10.00500112       3.59690230       0.00430130      -0.00078333      -0.01153913
C        7.45668634       1.43544677       3.68700992       0.00287620       0.00473019       0.00073491
C        6.23577350       3.52866826       3.82781901       0.01577365       0.00245775      -0.00043718
C        4.95949907       5.57876693       4.10809129      -0.00114265      -0.00453527      -0.01597707
C        3.63980030       7.85204235       3.99680851      -0.00859916      -0.01264126       0.00020218
C        2.49232907       9.99574486       3.66239006      -0.00659248       0.00087701      -0.00517730
C        9.93240764       1.45584845       3.75547937      -0.00323702      -0.00629332       0.01109384
C        8.68638977       3.58138588       3.82187509      -0.00012328       0.00025886      -0.00258232
C        7.40191661       5.70038030       3.88763664       0.00234059       0.00043200      -0.00082846
C        6.14247164       7.82230728       3.93002370       0.00124695       0.00690154      -0.01281908
C        4.94856710       9.98192525       3.79142485      -0.00253229      -0.00817060      -0.00366340
Os       1.77164795       4.68182106       3.64605749       0.00905598       0.00468591      -0.01557257
