50
Lattice="12.336457 0.0 0.0 -6.168228499999997 10.683685154694365 0.0 0.0 0.0 15.0" Properties=species:S:1:pos:R:3:forces:R:3 energy=-442.579608997429 free_energy=-442.579608997429 stress="-0.0006090496255741981 0.0009035600459032203 5.788302400113269e-06 0.0009035600459032203 0.0013852376929174431 -4.002458056665126e-06 5.788302400113269e-06 -4.002458056665126e-06 8.297607703085147e-06" pbc="T T T"
C        0.01110664      -0.01269072       3.50003357       0.00195050      -0.00123247      -0.00036698
C       -1.23078096       2.11565244       3.71044366       0.00245488       0.00142712      -0.00598240
C       -2.52572370       4.26071814       3.85059322      -0.01333904       0.01123769       0.00123157
C       -3.73683667       6.39668047       3.76181292       0.00613771      -0.00491436      -0.01017591
C       -4.93572617       8.52336451       3.55636176      -0.00073449       0.00268121      -0.00177618
C        2.49517405      -0.02559801       3.46538161      -0.00432428       0.01217199       0.00077482
C        1.29000967       2.08278727       3.66581110      -0.00029100       0.00519367      -0.00995582
C       -0.17394400       4.28044046       4.27605103      -0.00579185       0.00479440       0.00076402
C       -1.28923997       6.41896821       4.07856286       0.00355809       0.00044336      -0.00536505
C       -2.45998453       8.52281861       3.70385817       0.00767016      -0.00213962      -0.00239814
C        4.94989250      -0.04154050       3.56040055       0.00222276       0.00943242      -0.00191170
C        3.76344416       2.10015925       3.44551709      -0.00449296      -0.00276174       0.00070994
O        1.47137056       7.61367637       5.70478531      -0.00628801      -0.00876155      -0.00771139
C        0.01113008       8.53067194       3.93851298       0.00166918       0.00216262       0.00557609
C        7.41144553      -0.02716388       3.61086783       0.00813330      -0.00644219       0.00950627
C        6.17277555       2.11870191       3.57389162      -0.00031487       0.00448239      -0.00362505
C        4.91482026       4.23972067       3.66180019      -0.00318684      -0.00876638       0.00201974
N        3.69818936       6.43817965       3.93488273       0.00503098       0.00145588      -0.00693388
C        2.49786166       8.53772919       3.76571331      -0.00460846      -0.00419917       0.00014313
C        9.88177181      -0.01835210       3.51996547      -0.00078215      -0.01053857       0.00631687
C        8.63336801       2.12096425       3.62639971      -0.00085790      -0.00336648      -0.00312672
C        7.35969944       4.26324912       3.70608034       0.00360528      -0.00760647      -0.01383661
C        6.11384988       6.38279712       3.67159432       0.01083444      -0.00436801      -0.01370781
C        4.94211876       8.52025029       3.54346964      -0.00940233       0.00437470       0.00833894
C        0.01736379       1.41481452       3.61683646       0.00747019      -0.00324733       0.00902240
C       -1.30980885       3.52328146       3.93035807      -0.00981985       0.00587702      -0.00167548
C       -2.51599109       5.69034619       3.90379218      -0.00144381       0.00871777       0.00912835
C       -3.70461813       7.81662845       3.67256514       0.00256648      -0.00311657       0.00132909
C       -4.92364885       9.95091728       3.48888463      -0.00023867       0.00544268      -0.00195493
C        2.53028897       1.39734746       3.47148789      -0.00491107       0.00468210       0.00094336
P        1.41356200       3.68324506       4.27546690      -0.00941286       0.00063364       0.00014509
C       -0.12128436       5.67670238       4.34456102      -0.00729975       0.00340622       0.00487184
C       -1.22834210       7.83239661       3.93108529       0.00889983      -0.00498663      -0.00146262
C       -2.44744850       9.93739185       3.55287326      -0.00043376       0.00867490       0.01353411
C        4.95632588       1.39640183       3.49238445      -0.00473231       0.01002751       0.00341424
O        3.78586398       3.49103557       3.42013848       0.01067806      -0.01398996      -0.00002756
C        1.31030524       7.95343014       4.37354704      -0.00465870       0.00076313      -0.01588214
C        0.01623405       9.92769796       3.68870346       0.00413649       0.00088613       0.00998650
C        7.40040109       1.40579161       3.58526736      -0.00007204      -0.00271974      -0.01050820
C        6.13071709       3.54722776       3.65263263      -0.00006187      -0.00010418       0.00584890
C        4.85188303       5.67989756       3.75652417       0.00456036      -0.00371341      -0.00639208
C        3.71775858       7.78842604       3.72341544      -0.00830853       0.00038275      -0.00204369
C        2.48068858       9.94442539       3.58690021       0.00425724      -0.01000195       0.00849800
C        9.87692857       1.40717659       3.59481540      -0.00203289      -0.00946304       0.00763815
C        8.59662986       3.54727517       3.71344887      -0.00375540       0.00042472      -0.00033604
C        7.34977917       5.68169907       3.71223432       0.01053704      -0.00979776      -0.01234858
C        6.15705547       7.80598882       3.57976522      -0.00464984       0.00420915       0.01320315
C        4.94150137       9.94866871       3.49956789      -0.00107888      -0.00243997       0.00678018
Os       1.73630055       5.87102060       4.89721797       0.00739011       0.01603847       0.00191419
O        2.20601010       4.03636908       5.61198043       0.00356132      -0.00134612       0.00786604
