52
Lattice="12.336457 0.0 0.0 -6.168228499999997 10.683685154694365 0.0 0.0 0.0 15.0" Properties=species:S:1:pos:R:3:forces:R:3 energy=-445.08355952370505 free_energy=-445.08355952370505 stress="-0.00900080681757261 0.0044698548737964125 8.324321574971729e-05 0.0044698548737964125 -0.00519339439117084 -5.355247926935604e-05 8.324321574971729e-05 -5.355247926935604e-05 2.655907605759588e-06" pbc="T T T"
C       -0.00744548      -0.13925870       3.77226804      -0.01802710      -0.00516345       0.01171684
C       -1.21483898       2.00909359       3.59939371      -0.01035750       0.00779455      -0.00257909
C       -2.48220138       4.14588014       3.49701255       0.00612389       0.02122381       0.03571208
C       -3.71572471       6.28258137       3.61166076       0.00163106      -0.01075864       0.02320082
C       -4.96654755       8.40315167       3.73460872      -0.00258662      -0.01159607      -0.00564821
C        2.45424798      -0.16143475       3.94236695      -0.00499002      -0.00725413       0.00800517
C        1.27020543       1.95097051       3.85468568       0.00793758      -0.01080374      -0.03995847
C       -0.09359186       4.23295233       3.35814698      -0.01683208       0.00896634      -0.01589605
C       -1.31419077       6.33630646       3.38855358       0.02377515       0.00743323      -0.01373683
C       -2.50384764       8.43150388       3.65953794       0.01526898      -0.02090833       0.02301510
C        4.92930997      -0.14303650       3.93185408       0.00876020       0.02231891      -0.03714790
C        3.71294937       1.90508001       4.41634552       0.00115116       0.01998216       0.00670071
N        1.06060452       6.31677509       3.69511259       0.00587937      -0.01961423       0.01916422
C       -0.04008293       8.42743054       3.62008660       0.01728550      -0.01952547       0.02140112
C        7.39883096      -0.14190739       3.81409792      -0.00065021      -0.01848388      -0.02922341
C        6.20481686       1.97532201       4.14681048      -0.00039259       0.00768567       0.01237565
C        5.12792629       4.15667230       4.50856714      -0.02314905       0.00368558       0.00149052
S        3.61278892       6.02045784       3.35168032       0.03084717       0.00336380       0.00168003
C        2.43271140       8.39666827       3.67143246      -0.00131502       0.00695284       0.04363399
C        9.86573275      -0.14318353       3.71146416       0.01034436      -0.00438759       0.02739936
C        8.65229567       1.99321584       3.75448955      -0.00829261      -0.00140907       0.01851810
C        7.44667851       4.12373750       3.88799038      -0.01342554       0.01409194       0.01208617
C        6.21110387       6.26866307       3.86205354      -0.01880156       0.01439432       0.01658493
C        4.91028834       8.39154802       3.70504002       0.00818244      -0.00140156      -0.02021589
C        0.01566397       1.30044246       3.72975520      -0.00906897      -0.00327356       0.01710771
C       -1.24353914       3.43633807       3.45474067      -0.01401644       0.00094311      -0.01842427
C       -2.50331871       5.57229797       3.46161185       0.01298083       0.01678574      -0.00218428
C       -3.72984911       7.70542269       3.65828015       0.00771943      -0.01883973      -0.01338601
C       -4.95413504       9.82883511       3.81222515      -0.01519496      -0.01039346      -0.01099518
C        2.47456936       1.24816275       4.12082380       0.00192647      -0.00421576       0.01263528
S        1.49011723       3.57346179       3.30654543       0.00711895      -0.01178466      -0.01343015
C       -0.09599001       5.64299240       3.39805404       0.00625117      -0.00755205      -0.01256483
C       -1.28514929       7.74021234       3.53614994       0.02513239      -0.00984780      -0.00980255
C       -2.47936241       9.83616189       3.85356442       0.00944165      -0.00282861       0.02042739
C        4.95310087       1.26758316       4.18655139       0.00436558       0.02261600       0.00518183
S        3.75516876       3.40974033       5.28819960       0.00877605       0.00622251      -0.01206084
C        1.17038151       7.69075657       3.63746337       0.00655983      -0.02027967      -0.02517358
C       -0.01080650       9.84158577       3.78574654       0.00330015      -0.01719619      -0.01334635
C        7.41470015       1.28094861       3.90219151      -0.00636596      -0.02072459       0.02031390
C        6.26569306       3.39233548       4.21421545      -0.01088828       0.00624556       0.01006821
C        5.06742134       5.48138979       4.08032744      -0.00521323       0.00748383       0.01144186
C        3.66375116       7.72660133       3.62780869       0.00537999       0.02079387       0.00809327
C        2.45528849       9.83012794       3.72968615       0.01029591       0.00375205      -0.01996839
C        9.88938644       1.29084787       3.67973725      -0.00743462       0.00247633      -0.03504717
C        8.65467550       3.41491649       3.69654232       0.00210054       0.01264856       0.00932689
C        7.42964579       5.54943787       3.79708895      -0.02418695       0.00646973      -0.02225216
C        6.14763102       7.68340986       3.73547384      -0.00502231      -0.00377455      -0.01254593
C        4.92270106       9.82919992       3.72128019      -0.00011162      -0.00635352       0.00782177
Os       2.21791604       5.06646525       4.85035425      -0.00041532       0.01212219      -0.00631714
O        1.62071249       5.51284442       6.52348447       0.01904179       0.01014503      -0.00535185
O        2.55268422       6.70546760       6.70411252      -0.01826096      -0.02479070      -0.04149115
H        2.03351646       7.13868013       7.41470919      -0.03257810       0.02656336       0.03364474
