52
Lattice="12.336457 0.0 0.0 -6.168228499999997 10.683685154694365 0.0 0.0 0.0 15.0" Properties=species:S:1:pos:R:3:forces:R:3 energy=-450.49610941156624 free_energy=-450.49610941156624 stress="-0.0016880476539876425 0.00016180818780859148 2.09792242599209e-06 0.00016180818780859148 0.0029418312958604375 1.5966362914900604e-05 2.09792242599209e-06 1.5966362914900604e-05 1.193917320132145e-05" pbc="T T T"
C        0.05857179       0.02736697       3.72372922       0.00108763       0.00156376       0.00285149
C       -1.20266836       2.13952410       3.54027652      -0.00541262       0.00047701       0.00321882
C       -2.47250499       4.28281010       3.70184173      -0.00237898       0.00045705      -0.00707142
C       -3.68782300       6.42479746       3.91090767      -0.00239204       0.00161884      -0.00536331
C       -4.88886789       8.56692442       3.90141527       0.00119232       0.00202241       0.00533240
C        2.52566685       0.03737291       3.85481367       0.00452420       0.00195596       0.00063957
C        1.31761348       2.13512961       3.41556882      -0.00433172      -0.00290264       0.00145205
C       -0.08908295       4.32881950       3.26385438      -0.00136582       0.00106413      -0.00118294
C       -1.24282951       6.43998869       3.80247597       0.00636825       0.00453808       0.00814752
C       -2.42353006       8.56421213       3.97246383       0.00515170       0.00577648      -0.00146935
C        4.98557459      -0.00175790       3.97770724       0.00323001      -0.00557452       0.00129288
C        3.79456341       2.14146308       3.85200357       0.00004086       0.00212238      -0.00651780
O        1.38497762       7.09266225       5.54823752      -0.00327140       0.00371573      -0.00288644
C        0.05199041       8.53401184       4.09309117       0.00226324      -0.00566427       0.00378608
C        7.45644694      -0.00949801       3.97306402      -0.01195314      -0.00201074       0.00289177
C        6.21817956       2.14072344       3.96845042       0.00447342      -0.00073560      -0.00228680
C        4.98274048       4.26922446       3.97648724       0.00279974       0.00039570       0.00511697
N        3.77054009       6.45537181       3.97576625       0.01400653       0.00267593       0.00675022
C        2.54504765       8.54244253       4.03181755      -0.00551325      -0.00063012      -0.00402241
C        9.92288194       0.00122183       3.79989346      -0.00175230      -0.00320379       0.00161923
C        8.67585809       2.13854194       3.81723168       0.00206132      -0.00096134       0.00076519
C        7.41856211       4.28606453       3.91850826       0.00111950       0.00555541       0.00750990
C        6.17972050       6.41576099       3.94553939      -0.00442066       0.00007343       0.00346670
C        4.99822951       8.55863524       3.87991940       0.00322468      -0.00425270      -0.00186701
C        0.06777885       1.45395662       3.53778603      -0.00479688       0.00070684       0.00069411
C       -1.26919885       3.55484130       3.46666070      -0.00417025      -0.00113859      -0.00202675
C       -2.47145398       5.71236098       3.80978959       0.00171503       0.00367749      -0.01084661
C       -3.66171597       7.85200337       3.93806358       0.00328295       0.00401586      -0.00290534
C       -4.87992838      10.00059908       3.83034449       0.00409278       0.00333856      -0.00371079
C        2.54485749       1.46881677       3.71803936       0.00047117      -0.00086179      -0.00218148
P        1.46128834       3.78914454       2.67522162       0.00570163       0.00871271       0.00546510
C       -0.08735129       5.69956838       3.54418102       0.00771605      -0.00015641      -0.00058660
C       -1.18897724       7.85210811       3.98854764       0.00501626       0.00491114       0.00346884
C       -2.41947548       9.99270236       3.95788133       0.00397244       0.00227474       0.00388431
C        4.98884856       1.43301827       3.95063399       0.00265377      -0.00212122       0.00721995
O        3.83115809       3.51984267       3.97974133      -0.01144143       0.01011342       0.00373309
C        1.32944299       7.85296290       4.41793133      -0.00204478      -0.00323543       0.00329131
C        0.05661756       9.95128164       4.02840114      -0.00372224      -0.01052303       0.00612542
C        7.44401685       1.42456116       3.92791448       0.00147728      -0.00126433      -0.00182099
C        6.19144258       3.56983595       3.96915772       0.00384793       0.00182339      -0.01122883
C        4.92890157       5.70502287       3.97000695       0.00531966      -0.00234515      -0.00435451
C        3.77683942       7.82041471       3.95959415       0.00113717       0.00056312      -0.00246772
C        2.52577332       9.95935032       3.92798895      -0.01143435      -0.00016596      -0.00730655
C        9.91365478       1.42475464       3.71693450      -0.00039537      -0.00208981      -0.00368063
C        8.64875075       3.56684659       3.81811845      -0.00128388       0.00037430       0.00016874
C        7.40737814       5.70718458       3.92880143      -0.00793904       0.00361027       0.00114096
C        6.21319422       7.84335022       3.90750382       0.00076112      -0.00332910       0.00429688
C        4.99222141       9.98539130       3.79551927       0.00198742      -0.00419962       0.00356119
Os       1.75869959       5.64239271       4.16909916      -0.00549643      -0.01343233      -0.00687060
O        2.09511425       4.45754955       5.66534554      -0.01101113       0.00000325       0.00529679
O        0.90873331       4.53995967       6.51176586      -0.01261649      -0.00291398      -0.01512762
H        1.09269543       5.34622630       7.04503044       0.01844817      -0.00442495       0.00459501
