50
Lattice="12.336457 0.0 0.0 -6.168228499999997 10.683685154694365 0.0 0.0 0.0 15.0" Properties=species:S:1:pos:R:3:forces:R:3 energy=-445.8755811924933 free_energy=-445.8755811924933 stress="-0.001605577220545812 0.005352665116877534 9.42409221428183e-06 0.005352665116877534 0.00646913483404471 7.973015017401318e-07 9.42409221428183e-06 7.973015017401318e-07 8.195566393988145e-06" pbc="T T T"
C       -0.00191806      -0.00064594       3.72278753       0.00194411       0.00663097      -0.00217198
C       -1.21417803       2.13077555       3.67328498      -0.00074891       0.00017823      -0.00625522
C       -2.43364823       4.26125338       3.74484795       0.00046209       0.00128810       0.00202720
C       -3.70065864       6.39704649       3.86489429      -0.00431562       0.00682071      -0.00422361
C       -4.96799602       8.53528523       3.84976736      -0.00458396       0.00141789      -0.00491550
C        2.45140681       0.04496910       3.78326225       0.00403314       0.00428500       0.01060949
C        1.23564437       2.23647710       3.75693359      -0.00213126      -0.00130178       0.00408605
C        0.03943228       4.28299247       3.66231151       0.00666491      -0.00472471      -0.00378268
C       -1.24624426       6.40882502       3.67769438      -0.00083587       0.01081377       0.00188803
C       -2.49386894       8.55147332       3.74692982       0.00082543      -0.00171597      -0.00074778
C        4.92271755      -0.00080054       3.72340555       0.00182581      -0.00795247       0.00073434
C        3.73186259       2.16309328       3.87427326       0.00262867       0.00236486       0.00429812
O        1.08712518       6.44765451       3.34383750      -0.00910823      -0.00652530      -0.00520395
C       -0.03519734       8.53365368       3.58555226       0.00329018       0.00162269      -0.00340530
C        7.40475230      -0.04022598       3.63429114      -0.00027461      -0.00089610      -0.00264654
C        6.20893520       2.08037440       3.82763714       0.00610967      -0.01098121       0.00932677
C        5.05851908       4.15767424       4.16856675       0.00004413       0.00235397      -0.00120595
O        3.57461253       6.56890472       2.86922430      -0.00257336      -0.01110390      -0.00569946
C        2.41059012       8.48904490       3.50437440      -0.00551105       0.00558392       0.01446499
C        9.86932078      -0.04524397       3.61620050       0.00381644       0.00837233      -0.00365506
C        8.66507059       2.10382892       3.71679785       0.00292806      -0.00784163       0.00133380
C        7.46020920       4.23814691       3.94330130       0.00015598      -0.00473487       0.00606516
C        6.18089673       6.37002553       4.12277083      -0.00109714      -0.00383940       0.00630495
C        4.90312135       8.48491864       3.67674431       0.00468548       0.00401907      -0.01896229
C        0.01686286       1.44247802       3.70533331      -0.00264697       0.00268197       0.00538900
C       -1.20558597       3.55850491       3.67901348       0.00361938      -0.00116668      -0.00646368
C       -2.46558480       5.68480283       3.77051074      -0.00206514       0.00896268      -0.00407016
C       -3.72672465       7.82829211       3.83348617      -0.00366129       0.00524498       0.00303282
C       -4.94795602       9.97759060       3.78468179       0.00109034       0.00475078      -0.00884296
C        2.47010763       1.48241708       3.80702654       0.00221866       0.00535976       0.00942832
N        1.22124954       3.60829521       3.74071154       0.00951996      -0.00249203      -0.00254234
C       -0.04472353       5.71341466       3.59250986      -0.00723978      -0.00302649       0.00645370
C       -1.27064016       7.83560036       3.66440319       0.00356069       0.00864771      -0.00467453
C       -2.49142585       9.99001227       3.75077006       0.00103276      -0.00599378       0.00540251
C        4.94970692       1.41677415       3.80325915       0.00388788      -0.00609872      -0.00164102
N        3.85004328       3.53167004       4.04699975      -0.00721933       0.00113890      -0.00178988
C        1.15549152       7.82838411       3.48084986      -0.00423023      -0.00547253      -0.00042688
C       -0.01205950       9.95925542       3.64195995       0.00333225      -0.00284701       0.00706999
C        7.43136698       1.38053901       3.71741262       0.00536522      -0.00759369       0.00149593
C        6.26559729       3.47826496       3.99108406      -0.00248186      -0.00466501       0.00547892
C        5.05732626       5.55731023       4.39294030      -0.01016590       0.00924791      -0.00183264
C        3.65342149       7.78689612       3.41375571      -0.00245111       0.00091008       0.00473236
C        2.45820623       9.92080683       3.58259715       0.00069704       0.00956436      -0.00631915
C        9.88879617       1.39299269       3.65714869       0.00376804       0.00117390       0.00235888
C        8.68040209       3.53087111       3.79653899       0.00043954      -0.00770331       0.00268482
C        7.42191465       5.66998343       3.99638255      -0.00078768      -0.00279726       0.00159356
C        6.13771593       7.79740704       3.90063635      -0.00066159      -0.00529163      -0.00187267
C        4.92879385       9.92599556       3.65921452       0.00301188       0.00877675       0.00477926
Os       3.16030572       5.27806103       4.32885677       0.00118351       0.00080373      -0.00857245
O        2.52903661       5.46373124       5.92377946      -0.00735036      -0.00624953      -0.00911528
