52
Lattice="12.336457 0.0 0.0 -6.168228499999997 10.683685154694365 0.0 0.0 0.0 15.0" Properties=species:S:1:pos:R:3:forces:R:3 energy=-454.455166530509 free_energy=-454.455166530509 stress="-0.0014641673604839159 0.0053255362003814056 -1.2271916808606261e-05 0.0053255362003814056 0.006940771291183927 -1.1478574898000705e-05 -1.2271916808606261e-05 -1.1478574898000705e-05 6.503834063559114e-05" pbc="T T T"
C        0.08482982      -0.04137015       3.76507702      -0.00217195       0.00622851       0.01384694
C       -1.12921363       2.08898537       3.72369830       0.00549551      -0.00293427       0.01413259
C       -2.34970160       4.21969875       3.78676843       0.00260683       0.00179420       0.01177861
C       -3.61654852       6.35594628       3.89275530       0.00357722      -0.00177282       0.00453225
C       -4.88083093       8.49534172       3.87883729       0.00388465      -0.00113334      -0.00787964
C        2.53812924       0.00589797       3.82064578       0.00891851      -0.01332012       0.00593116
C        1.32211954       2.19603249       3.79600290       0.00109700       0.00115463      -0.01113856
C        0.12437900       4.24039133       3.67923614      -0.01211161       0.00102510      -0.01697941
C       -1.16476387       6.36782654       3.67646058      -0.00279307       0.00837550       0.00678515
C       -2.40933502       8.51041510       3.75883618       0.00777912       0.00014307       0.01689505
C        5.00995777      -0.04389195       3.77832523       0.00774726       0.00598498       0.01459938
C        3.82185502       2.11870527       3.95170686      -0.00918625      -0.00016472       0.00902461
O        1.17642430       6.40726122       3.41522674       0.00437187       0.00031841       0.00634163
C        0.04913317       8.49290498       3.60832127      -0.00603749      -0.00246937       0.00942505
C        7.49172438      -0.08423703       3.71059396      -0.00182485      -0.01180463       0.00011743
C        6.29815690       2.03528379       3.93916462      -0.00675773       0.00637783      -0.00562476
C        5.14224735       4.11532808       4.26972743      -0.00153240       0.00845217      -0.02075361
O        3.67155393       6.54410455       2.84638510      -0.00729463      -0.00813325      -0.00418383
C        2.49897060       8.44693978       3.55751899      -0.00514298      -0.00535293       0.00399436
C        9.95576725      -0.08802082       3.68337142      -0.00256892       0.00597990      -0.00606590
C        8.75223284       2.06011538       3.80515171      -0.00584117       0.00500063      -0.00905515
C        7.54583208       4.19537729       4.03540231      -0.00055213       0.00047357      -0.01191135
C        6.27265488       6.33266403       4.18165845       0.00565551      -0.00530670       0.01193232
C        4.99000640       8.44274173       3.72409349       0.00585262      -0.00271506      -0.01731482
C        0.10250870       1.40114357       3.75190750       0.00671343       0.00106297      -0.01132110
C       -1.12112159       3.51671199       3.71583027      -0.00252191      -0.00620216       0.00394802
C       -2.38257504       5.64458265       3.78778434       0.00416274       0.00294314       0.01155730
C       -3.64175571       7.78711659       3.85037468       0.00752322       0.00003057       0.01785899
C       -4.86099770       9.93778996       3.81542750      -0.00181255       0.00135777       0.00907980
C        2.55703227       1.44146489       3.85747857      -0.00229507      -0.01224141       0.00867380
N        1.30736184       3.56679478       3.76187239      -0.01397256      -0.00166232      -0.00747406
C        0.03616371       5.67070038       3.59329549      -0.00313536       0.00616809       0.01251754
C       -1.18716967       7.79476663       3.66954563      -0.00276832       0.00327732      -0.00357000
C       -2.40557751       9.94888190       3.78346401       0.01678248      -0.00276426       0.00334493
C        5.04027241       1.37136883       3.88977654      -0.00707144       0.00905219       0.00062955
N        3.93663047       3.48273547       4.13868143       0.01222440       0.00083169      -0.01489211
C        1.24101058       7.78865998       3.51130441      -0.00428421      -0.00433982      -0.00769191
C        0.07410897       9.91606339       3.69355340      -0.00094639      -0.00692817       0.01171341
C        7.51967178       1.33544090       3.81549968      -0.00777752      -0.00591663      -0.00098486
C        6.35285609       3.43405247       4.10954533       0.00216954       0.00169405       0.00489851
C        5.14495851       5.52851437       4.46816511      -0.01366214       0.00117625      -0.01036138
C        3.74259523       7.74593465       3.45005236      -0.00070641      -0.00357337      -0.01083932
C        2.54553583       9.87650176       3.65162768       0.00020720      -0.00480112      -0.01102252
C        9.97481450       1.34992255       3.72737062      -0.00005927       0.00837877      -0.00243393
C        8.76582938       3.48822314       3.87367078       0.00166092       0.00591820       0.00592239
C        7.50845515       5.62964165       4.05694239       0.00496058      -0.00443954      -0.00011166
C        6.22662474       7.75619260       3.94187832       0.00658234      -0.00550806       0.00952174
C        5.01554652       9.88348369       3.71164119      -0.00197360       0.00475621      -0.00124872
Os       3.28575009       5.24044387       4.26791821       0.00259776       0.00667810       0.00749200
O        2.56090413       5.23143426       5.99144836      -0.03425975       0.02348815      -0.02113021
O        1.57931818       6.33602842       6.18667292       0.04098729      -0.00452293      -0.00054871
H        1.56054486       6.34501700       7.17029801      -0.00249631      -0.01011496      -0.02195705
