50
Lattice="12.336457 0.0 0.0 -6.168228499999997 10.683685154694365 0.0 0.0 0.0 15.0" Properties=species:S:1:pos:R:3:forces:R:3 energy=-434.1213715134922 free_energy=-434.1213715134922 stress="-0.002305981778052167 0.004243596860522653 1.81611120955439e-05 0.004243596860522653 -0.001417405314376436 -1.5291775264289214e-05 1.81611120955439e-05 -1.5291775264289214e-05 2.4720883297540596e-06" pbc="T T T"
C       -0.02406293       0.00372209       3.80100845      -0.00348027      -0.00122861       0.00180181
C       -1.22195432       2.17154880       3.78316970       0.00026071      -0.00203188      -0.00079377
C       -2.45693537       4.29610437       3.76354442      -0.00344141      -0.00160941       0.00104778
C       -3.72371780       6.42052685       3.74832946      -0.00355509       0.00951080      -0.00259660
C       -4.98287021       8.54023700       3.72896565       0.00394177      -0.00598477      -0.00453013
C        2.43414406      -0.02145000       3.98374889      -0.00672276      -0.00470252       0.00295208
C        1.24749729       2.11423096       3.94052176       0.00216533       0.01727941      -0.00874759
C        0.00063633       4.36789405       3.64419047       0.00365174      -0.00343447      -0.00891091
C       -1.27993198       6.45550525       3.71110247       0.00333463       0.00414924       0.00747128
C       -2.50153351       8.56000061       3.81705851      -0.00385817      -0.00628479      -0.00955932
C        4.91537452       0.00756701       4.00206818      -0.00765434      -0.00171490      -0.00070534
C        3.68848380       2.07731756       4.39420313       0.00067710       0.01137726       0.00641209
O        1.10108305       6.50828750       3.85815688       0.00889587       0.00061081       0.00188598
C       -0.03985462       8.56786916       3.78290047      -0.00032459       0.01334515       0.00597718
C        7.38786166       0.00572238       3.90838208       0.00783907       0.00067344      -0.00695258
C        6.17166300       2.13860860       4.13899459       0.00697792      -0.00560002       0.00659957
C        4.99136113       4.29980315       4.13930193      -0.00725241      -0.00249217       0.00133857
S        3.60111137       6.24180261       2.79688008      -0.00090012       0.00255440       0.00600317
C        2.41142763       8.53858444       3.66179020      -0.00219910       0.00286044      -0.00361881
C        9.85264775       0.00988915       3.78389292      -0.00147661       0.00754079       0.00351544
C        8.64479447       2.14748571       3.89338053      -0.00506946      -0.00596169      -0.00266527
C        7.41867578       4.27483264       3.88993408       0.00078830       0.00314615      -0.00017437
C        6.15594223       6.40232641       3.66564219       0.00274886      -0.00124077       0.00295114
C        4.88578221       8.53720140       3.58855866       0.00166905      -0.00807578      -0.00463645
C       -0.00041559       1.44603604       3.83870753       0.00257815       0.00495604      -0.00381883
C       -1.20260195       3.60451853       3.73502483       0.00134770      -0.00317609      -0.00028401
C       -2.49235027       5.71220012       3.73414368      -0.00473094       0.00518711       0.00230834
C       -3.73908317       7.84244042       3.75922346      -0.00011237       0.00153001      -0.00693104
C       -4.97049739       9.96620417       3.82408220      -0.00604428      -0.00958470       0.00053554
C        2.44495016       1.40121878       4.16358741       0.00076931       0.00539181       0.00423484
S        2.09550401       3.68966209       1.23327760       0.00808668      -0.01029983       0.00659525
C       -0.06556679       5.78910856       3.70859285       0.00657109      -0.00224893       0.00010392
C       -1.27764035       7.86474264       3.76753260       0.00228050       0.00610937       0.00428553
C       -2.49544806       9.97815178       3.94011629      -0.00881308      -0.01035205      -0.00654556
C        4.93601699       1.42194432       4.18856425       0.00190558       0.00159285       0.00108053
S        3.76734766       3.60615906       5.19606380      -0.00373838      -0.00222875       0.00918822
C        1.15207506       7.86929086       3.71818506      -0.00180887       0.00538456      -0.00146902
C       -0.01912148       9.99064255       3.89349232       0.00249589       0.01218905       0.00141483
C        7.39970359       1.43574942       3.98698625       0.00500054      -0.00811043      -0.00221620
C        6.19716659       3.55768998       4.07819310       0.00029182      -0.00071372       0.00363003
C        4.97089022       5.62762798       3.65581869       0.00163792       0.00000325       0.00575917
C        3.64639160       7.86818767       3.44278497      -0.00300201      -0.00545412      -0.00771539
C        2.44238423       9.96999205       3.79485144       0.00503635       0.00286647      -0.00102726
C        9.87574973       1.44386610       3.82116390      -0.00467924       0.00355937       0.00161770
C        8.65588822       3.56944189       3.85442872      -0.00365465      -0.00693955       0.00023435
C        7.39529687       5.69698243       3.77694426       0.00156274       0.00543489      -0.00337476
C        6.12437126       7.82451428       3.61365827       0.00590192      -0.00422645       0.00058950
C        4.90809482       9.97840872       3.72345677      -0.00528863      -0.00188558       0.00402543
Os       1.83289214       3.84917894       3.30622725       0.00428813      -0.00903496      -0.00200982
O        2.43046139       4.43245101       5.16419604      -0.00489788      -0.00263571      -0.00427623
