51
Lattice="12.336457 0.0 0.0 -6.168228499999997 10.683685154694365 0.0 0.0 0.0 15.0" Properties=species:S:1:pos:R:3:initial_magmoms:R:1:forces:R:3 energy=-438.44626210245985 free_energy=-438.44626210245985 stress="-0.002537679481920883 0.005539800031829486 -1.0642490353452307e-05 0.005539800031829486 -0.0008429318877702448 -1.1073351846957612e-07 -1.0642490353452307e-05 -1.1073351846957612e-07 1.4633027376758997e-05" pbc="T T T"
C       -0.00667502      -0.03567433       3.88259013       0.00000000       0.00107752      -0.00720253      -0.00324687
C       -1.19562064       2.13479020       3.75328084       0.00000000       0.01276977      -0.00313408      -0.00314331
C       -2.46084750       4.24961137       3.63171741       0.00000000      -0.01047492      -0.00123511      -0.00292858
C       -3.72274410       6.36966690       3.71996893       0.00000000      -0.00606968       0.00172040       0.00401702
C       -4.97575167       8.48876950       3.79564121       0.00000000      -0.00727363      -0.00594075       0.00219740
C        2.44882897      -0.09667851       4.09391773       0.00000000       0.00227978      -0.00295675      -0.00323815
C        1.27551547       2.05839599       4.17524953       0.00000000      -0.00185795       0.00855823      -0.00420749
C       -0.03927522       4.36111601       3.35008268       0.00000000       0.00271102      -0.00660310       0.01488426
C       -1.31297539       6.42308878       3.37993626       0.00000000       0.00223764       0.01037989       0.00393496
C       -2.49569657       8.50829421       3.76037356       0.00000000      -0.00893671       0.00244220      -0.01189064
C        4.93540442      -0.06810038       4.04804163       0.00000000       0.00914808      -0.00911260       0.00675538
C        3.72235378       1.92748981       4.59088923       0.00000000       0.00392197       0.00147205       0.00649945
O        1.03722106       6.51674178       3.05141203       0.00000000      -0.00854534       0.00495110       0.00646350
C       -0.03950255       8.52583437       3.59191643       0.00000000      -0.00505503      -0.00170955      -0.00369175
C        7.40211322      -0.04929823       3.85968600       0.00000000      -0.00529237      -0.00349776      -0.01358060
C        6.20133334       2.06910115       4.23494313       0.00000000       0.01269067       0.00706444      -0.00686507
C        5.04450209       4.24981963       4.35638049       0.00000000       0.01004309       0.00604356       0.00051113
S        3.65403172       6.15394186       2.98224429       0.00000000       0.01183071       0.00194541      -0.00862128
C        2.41788626       8.49768098       3.49534916       0.00000000      -0.00564350      -0.00885696       0.01294621
C        9.87031514      -0.03489040       3.75177406       0.00000000      -0.00734399       0.00430123       0.00599402
C        8.66096792       2.09595564       3.87236721       0.00000000       0.00506536       0.00272627       0.00443113
C        7.43425635       4.22008706       3.96424809       0.00000000      -0.00465197       0.00750458      -0.00390168
C        6.17454732       6.35397121       3.81074486       0.00000000       0.00033997      -0.00860319      -0.00423501
C        4.90093641       8.49209140       3.64314682       0.00000000       0.00085695      -0.00237869      -0.00282083
C        0.02983270       1.41532204       3.93114591       0.00000000       0.00386055      -0.00706330       0.00027274
C       -1.20119723       3.56651599       3.57283998       0.00000000      -0.00088401      -0.00290169       0.00598936
C       -2.50212512       5.66573889       3.57248247       0.00000000      -0.00269328       0.00344204       0.00371873
C       -3.73452852       7.79112485       3.75219535       0.00000000      -0.01011911       0.00151176      -0.00020335
C       -4.96194984       9.91169440       3.91721307       0.00000000       0.00128731      -0.00508791      -0.00326621
C        2.46786958       1.30595566       4.35417446       0.00000000      -0.00274124       0.00095269       0.00403914
S        2.74070597       3.53409486       1.84862877       0.00000000       0.00091084       0.01077524       0.00897607
C       -0.12298246       5.76820362       3.16413954       0.00000000      -0.00298164       0.00257906      -0.00118108
C       -1.28442151       7.82709420       3.55650347       0.00000000      -0.00654687       0.01011866      -0.00293224
C       -2.47949320       9.91278200       3.98020173       0.00000000       0.00320049      -0.00468428       0.00177477
C        4.96804952       1.33346025       4.31825199       0.00000000       0.01222059      -0.00196431      -0.00185957
S        3.68358785       3.53774192       5.18895765       0.00000000      -0.00546529       0.01214011       0.00248778
C        1.14712719       7.83695019       3.39101191       0.00000000      -0.00781586      -0.00237098      -0.00065230
C       -0.00712331       9.93135471       3.84252908       0.00000000       0.00358358      -0.00871262      -0.00445037
C        7.41842452       1.37746277       4.00080775       0.00000000       0.00632518       0.00215065      -0.00654691
C        6.22452162       3.49613358       4.22600249       0.00000000       0.00855441       0.01248084       0.00018321
C        5.00203340       5.57091242       3.87098659       0.00000000       0.00100883       0.00003467       0.00531273
C        3.66763515       7.82438645       3.45029573       0.00000000       0.00477887      -0.00270460      -0.00002713
C        2.45601135       9.92222000       3.70137655       0.00000000      -0.00942873      -0.00691006      -0.00004052
C        9.89803000       1.40088825       3.78687561       0.00000000       0.00818808       0.00350350      -0.00369759
C        8.66399016       3.51844911       3.83124646       0.00000000      -0.01107945       0.00105451       0.00660270
C        7.40775619       5.64118152       3.85484805       0.00000000      -0.00202198      -0.00045099      -0.00171466
C        6.13253339       7.77351857       3.71110755       0.00000000      -0.00187126      -0.01132387      -0.00036226
C        4.92698222       9.93771915       3.75071089       0.00000000      -0.00488523       0.00021998      -0.00343180
Os       1.82627377       3.90273850       3.73524796       0.00000000       0.01233043      -0.00358125      -0.00086965
O        1.21617374       4.86682755       5.41379789       1.00000000      -0.00159532       0.01337329      -0.00970697
O        1.94649882       5.93896453       5.46696099       1.00000000       0.00005267      -0.01445943       0.00532220
