51
Lattice="12.336457 0.0 0.0 -6.168228499999997 10.683685154694365 0.0 0.0 0.0 15.0" Properties=species:S:1:pos:R:3:forces:R:3 energy=-452.2831959800542 free_energy=-452.2831959800542 stress="-0.0029068364542592204 -0.0026386364547767768 -7.265154380958445e-05 -0.0026386364547767768 0.00014677449330316352 -3.925254900910251e-05 -7.265154380958445e-05 -3.925254900910251e-05 0.0003059526108133678" pbc="T T T"
C       -0.00668187      -0.00028980       3.88796148       0.00708739      -0.02756787       0.00908687
C       -1.28369787       2.08610740       4.17624657       0.01373175       0.03066180       0.00051771
C       -2.53487935       4.25273642       4.17645869       0.03442610      -0.00356390       0.00008228
C       -3.70322118       6.40183954       3.88789647      -0.02016058       0.01989136       0.00850311
C       -4.92637579       8.54990013       3.73154776      -0.00169891       0.00000604      -0.00349286
C        2.46309692       0.02172426       3.88667387      -0.00544995      -0.03194569       0.00085080
C        1.21216503       2.14492554       4.19602860      -0.01622691      -0.10103789      -0.00113557
C       -0.15042881       4.18485583       4.53348004       0.26218645       0.15135184      -0.07889187
C       -1.23631644       6.38491334       4.19786428      -0.09459686       0.03506902      -0.00421214
C       -2.44929613       8.52995603       3.88773080      -0.03104336       0.00945228       0.00059911
C        4.92382773      -0.00809447       3.78728624       0.00455446       0.00506630       0.00742786
C        3.68154599       2.15111612       3.68739710      -0.01158312      -0.02305234      -0.00949952
O        2.71936091       4.19273284       2.80581345       0.03344415      -0.05458683       0.03087472
O        1.29049188       6.66735211       2.80586565      -0.03194946       0.05345761       0.03015042
C        0.00400919       8.52019728       3.69030142      -0.02341409       0.00219057      -0.01031915
C        7.38576320      -0.01163364       3.73162163      -0.00115580      -0.00487680       0.00223305
C        6.15183720       2.12549792       3.72898671      -0.00365155       0.00399024       0.00396616
C        4.98440587       4.25328969       3.36663827       0.02350903       0.03341318      -0.00097642
P        3.67203775       6.39240510       2.25934695      -0.03630315      -0.01974720       0.03784435
C        2.47623351       8.59691609       3.37078131       0.04219683       0.00563384      -0.00139302
C        9.86150436      -0.00567319       3.78098438       0.00074419      -0.01333303       0.00888125
C        8.60496697       2.11723607       3.93481700       0.00767980       0.00405276       0.00097978
C        7.39481717       4.26673032       3.77838840      -0.01061552       0.00811504       0.00922057
C        6.19749800       6.40920950       3.43556337       0.02163647       0.01584596       0.01418210
C        4.94984062       8.56997735       3.43745972       0.02395504       0.00970106       0.01245260
C       -0.02255624       1.40705414       4.11093545       0.04934315       0.03936712       0.01354440
C       -1.35946568       3.48688984       4.36113824      -0.12282031      -0.07186288       0.04275276
C       -2.49255098       5.68445378       4.11177443       0.05866184       0.02293700       0.01305680
C       -3.69380269       7.82942023       3.84365002       0.02703103      -0.00469860      -0.00051866
C       -4.93400438       9.97769362       3.84325672       0.01077625       0.02751004      -0.00000253
C        2.45352285       1.45265002       3.92768707      -0.03368780       0.02956859      -0.00574960
C        1.08081949       3.51689735       4.50092891      -0.07221598       0.05217986      -0.02766106
C       -0.11364225       5.58508839       4.50170284       0.00801027      -0.08665902      -0.02758813
C       -1.21507494       7.80608361       3.92971174       0.01053901      -0.04333028      -0.00527878
C       -2.47049225       9.96790906       3.84191622       0.00944942       0.00478508       0.00125433
C        4.91234389       1.42428695       3.72529746       0.03077282      -0.01300440       0.00506341
C        3.76160362       3.53276793       3.31884636      -0.06392798       0.05116492      -0.03373285
C        1.24050467       7.89879598       3.32163322       0.01593227      -0.08352254      -0.03436291
C       -0.00959870       9.94938804       3.72750090       0.00111386       0.03504045       0.00426288
C        7.38053761       1.41019876       3.80821679      -0.00573812      -0.00330770      -0.00119819
C        6.17741054       3.54477955       3.64515225       0.02554142      -0.01940164       0.01359541
C        5.01622114       5.66291698       3.14889579      -0.02214663      -0.00757293       0.00858920
C        3.71275841       7.91992586       3.15143520      -0.01787572      -0.01487515       0.00829755
C        2.45939807       9.98434632       3.64918502      -0.00567926       0.03365367       0.01161836
C        9.83542324       1.39520324       3.97871005      -0.02581387      -0.02047446       0.00455337
C        8.59477595       3.54386792       3.97789243      -0.02949056      -0.01195616       0.00401326
C        7.40963564       5.69267299       3.71204345      -0.00386539      -0.00354057       0.01418162
C        6.18877477       7.84476051       3.50548738      -0.01010522      -0.00591773       0.00349389
C        4.93553473       9.97800913       3.71402666      -0.00561200      -0.00277696       0.01243950
Os       1.83669960       5.33270646       4.23322575      -0.02631392      -0.01457680       0.15691055
O        2.50285795       5.72042910       5.78922920       0.01081903       0.00308373      -0.24946678
