50
Lattice="12.336457 0.0 0.0 -6.168228499999997 10.683685154694365 0.0 0.0 0.0 15.0" Properties=species:S:1:pos:R:3:forces:R:3 energy=-431.51622746913137 free_energy=-431.51622746913137 stress="-0.0037809282768188784 -1.225670685073009e-06 -3.271663834110539e-05 -1.225670685073009e-06 -0.007576155197143135 1.1851221383213353e-07 -3.271663834110539e-05 1.1851221383213353e-07 1.5499102105874332e-05" pbc="T T T"
C        0.01553171      -0.00400483       3.94777076       0.00900037       0.00386623      -0.01281895
C       -1.22383881       2.12972896       3.83043223       0.00742352      -0.00174218      -0.00124542
C       -2.44615285       4.26921138       4.06240569      -0.00208110       0.00392551      -0.00059330
C       -3.66955310       6.41130699       4.19975079      -0.00104844      -0.00362338       0.00334005
C       -4.92597198       8.53965119       4.09660215       0.00743050      -0.00408303       0.00398524
C        2.47622220      -0.02460288       3.91260592      -0.01411790       0.00090774      -0.00222989
C        1.22515329       2.03165081       3.33426109       0.00473774       0.00703191      -0.00780340
C       -0.17147399       4.27630496       3.20315009       0.00271839       0.00626391       0.00349545
C       -1.25856322       6.42386780       3.75772851      -0.00049774       0.00433942       0.00281218
C       -2.44493228       8.53695166       4.02875799       0.00008692      -0.00160925       0.00491344
C        4.94518337      -0.01423166       3.97788527       0.00425266      -0.00361340       0.00510166
C        3.72084823       2.03162497       3.55315376      -0.00658013      -0.00467695      -0.00174863
S        1.03254620       6.55205159       2.20652560      -0.00811473       0.00240907       0.01493158
C        0.01369865       8.55367100       3.72110437       0.00693488      -0.00688909      -0.01300578
C        7.41223081       0.00385031       4.00258139      -0.00203394       0.00603893      -0.00163308
C        6.18181444       2.12745600       4.01311785       0.01189708      -0.00110625      -0.00382243
C        5.08456354       4.29511214       3.74169157       0.00381748       0.00004163       0.00631893
S        3.76917053       6.37477805       2.86376491      -0.01777156      -0.00106464      -0.00349177
C        2.46958804       8.59059723       3.58539658      -0.00733403      -0.00118757      -0.00050990
C        9.88235786       0.00442720       3.99490573      -0.00776570      -0.00510241      -0.00417964
C        8.65541189       2.13620241       4.13181285       0.00066999       0.00465098       0.00787259
C        7.44265896       4.27171442       4.23165053      -0.00034859       0.00204896       0.00183175
C        6.22264260       6.42354842       4.06326271       0.00857112       0.00259301       0.00325961
C        4.94460847       8.55371180       3.88177303       0.00584248       0.00082076      -0.00357253
C        0.01369783       1.41278649       3.72094620       0.00694982       0.00700664      -0.01295046
C       -1.25854745       3.54260924       3.75772762      -0.00049444      -0.00437040       0.00273739
C       -2.44616179       5.69725978       4.06240027      -0.00210976      -0.00393505      -0.00055745
C       -3.68105853       7.83027419       4.13178379       0.00076535      -0.00476337       0.00787384
C       -4.92422681       9.96261619       4.00247542      -0.00217255      -0.00610534      -0.00161322
C        2.46958297       1.37585797       3.58538624      -0.00729021       0.00130297      -0.00048099
S        1.03257931       3.41448445       2.20647855      -0.00804176      -0.00254364       0.01517235
C       -0.17151430       5.69018526       3.20311260       0.00284595      -0.00612382       0.00364894
C       -1.22384535       7.83674703       3.83052373       0.00744028       0.00167163      -0.00129206
C       -2.45409796       9.96205142       3.99500067      -0.00783088       0.00499282      -0.00419613
C        4.94460350       1.41275916       3.88197882       0.00585147      -0.00082858      -0.00364641
S        3.76916888       3.59165713       2.86389802      -0.01781247       0.00115610      -0.00344453
C        1.22514851       7.93478807       3.33440610       0.00463213      -0.00682751      -0.00792147
C        0.01553209       9.97046478       3.94793300       0.00908699      -0.00378899      -0.01282078
C        7.41049541       1.42682078       4.09671055       0.00732062       0.00399114       0.00399728
C        6.22263469       3.54292460       4.06340962       0.00853159      -0.00256534       0.00314105
C        5.08457172       5.67135872       3.74158125       0.00391313      -0.00013876       0.00650324
C        3.72085130       7.93484024       3.55298313      -0.00664024       0.00471081      -0.00156988
C        2.47622089       9.99106960       3.91261472      -0.01399343      -0.00093198      -0.00225853
C        9.89153255       1.42952866       4.02869029       0.00004960       0.00146371       0.00497562
C        8.66691344       3.55516720       4.19978488      -0.00105206       0.00360950       0.00331927
C        7.44265536       5.69475518       4.23159900      -0.00032639      -0.00191645       0.00185803
C        6.18181486       7.83901362       4.01293669       0.01194269       0.00116449      -0.00378337
C        4.94518043       9.98070191       3.97771320       0.00426729       0.00356821       0.00512300
Os       1.95635997       4.98324434       3.70652919      -0.00949614       0.00001082      -0.00123441
O        1.97704135       4.98347717       5.40654277      -0.00202584      -0.00004949      -0.00178808
