49
Lattice="12.336457 0.0 0.0 -6.168228499999997 10.683685154694365 0.0 0.0 0.0 15.0" Properties=species:S:1:pos:R:3:forces:R:3 energy=-424.89013475622784 free_energy=-424.89013475622784 stress="-0.0019494695972542373 -1.368144946281026e-05 4.629593036480145e-06 -1.368144946281026e-05 -0.00904159701317774 4.765579138713385e-06 4.629593036480145e-06 4.765579138713385e-06 -6.279808269515853e-06" pbc="T T T"
C        0.02189325      -0.01630496       3.96433310       0.00302912      -0.01032556      -0.00896944
C       -1.20603446       2.12637520       3.84631899       0.00102814      -0.00105018      -0.00418253
C       -2.41633542       4.27031736       4.04094568      -0.00340259      -0.00076143      -0.00711790
C       -3.65296140       6.40574226       4.14231192      -0.00007322      -0.01162302       0.00132875
C       -4.91832376       8.52723069       4.07787890       0.00128610      -0.00151913      -0.00553747
C        2.48222809      -0.03867104       3.92715846       0.00300515       0.01039077       0.01338445
C        1.23303921       2.00945535       3.34519516      -0.01373505      -0.00554606      -0.00331688
C       -0.05965455       4.25957486       3.30821571       0.00858911      -0.00609800       0.00347299
C       -1.21873125       6.42897126       3.78914956      -0.00524040       0.00162624       0.00195095
C       -2.43436010       8.53408369       4.03227865       0.00411249      -0.00502832       0.00036606
C        4.95003644      -0.00716287       3.99127385      -0.00463156      -0.00172360       0.00361512
C        3.71364309       2.03104346       3.57320065      -0.00292574      -0.00461128       0.00721345
S        1.00568803       6.66910222       2.14322900       0.00250488      -0.00028981      -0.00381008
C        0.01996214       8.56757806       3.74448526       0.00312469       0.01700606       0.00205150
C        7.41847632       0.01810547       4.00889355       0.00607776      -0.00271549       0.00858077
C        6.18585546       2.13603917       3.98050243      -0.00060576       0.00519451      -0.01407030
C        5.07488440       4.29439826       3.67530832      -0.00449758      -0.01017633       0.00305988
S        3.69408385       6.37179044       2.90264883       0.00598308       0.00811204       0.00554396
C        2.47492635       8.60854870       3.60284769      -0.01026461      -0.00038874      -0.01372404
C        9.89184437       0.00834410       4.00760838      -0.00117955      -0.00308372       0.00649065
C        8.66701134       2.14356830       4.10629078      -0.00345698       0.01053139      -0.00411467
C        7.45423071       4.27349256       4.13667629       0.00536477       0.00968852       0.00319369
C        6.22685659       6.41782326       3.98167252       0.00338556      -0.00554180       0.00540350
C        4.94853420       8.54735116       3.88108437      -0.00549948       0.00122111      -0.00846004
C        0.02007695       1.39844343       3.74349744      -0.00108737      -0.01034788       0.00186273
C       -1.21891334       3.53733745       3.78841560      -0.00283742       0.00024426       0.00356312
C       -2.41621272       5.69643287       4.04151766      -0.00583954      -0.00863259      -0.01094705
C       -3.66970485       7.82287882       4.10584534       0.00192871      -0.00999019      -0.00244372
C       -4.91809243       9.94815865       4.00819849       0.00798822       0.00608246       0.00923960
C        2.47440530       1.35773426       3.60181975      -0.00458403      -0.00184263      -0.01159954
S        1.00583616       3.29806263       2.14295732       0.00229003      -0.00014055      -0.00816653
C       -0.05979859       5.70652652       3.30865231       0.01234988       0.01178352       0.00162960
C       -1.20635347       7.83995672       3.84649580       0.00609966       0.00431137      -0.00053282
C       -2.44460667       9.95836629       4.00754956      -0.00375919      -0.00078689       0.00523200
C        4.94821331       1.41942160       3.88205081      -0.00290960      -0.00799244      -0.00754757
S        3.69390936       3.59453899       2.90407449       0.00681243       0.00119947       0.00498537
C        1.23341686       7.95637774       3.34737239      -0.01512187       0.00449852      -0.00847782
C        0.02194293       9.98253713       3.96463534       0.00164696       0.01347066      -0.00742477
C        7.41825324       1.43917247       4.07854865      -0.00280837       0.00322192      -0.00396173
C        6.22627762       3.54872810       3.98288941       0.00895103       0.00815417       0.00841520
C        5.07533946       5.67283076       3.67374205      -0.00423880      -0.00188261       0.00759442
C        3.71427886       7.93551995       3.57212801      -0.01014527       0.00380402       0.00808496
C        2.48244576      10.00509753       3.92793577       0.00055522      -0.01287542       0.01224968
C        9.90240472       1.43250784       4.03213178      -0.00097649       0.00368317       0.00310297
C        8.68353014       3.56072551       4.14251820      -0.00127874       0.01028353       0.00094410
C        7.45445423       5.69256478       4.13603732       0.00291102      -0.00219319       0.00607036
C        6.18610337       7.83051070       3.97895452      -0.00096186      -0.00567246      -0.00981778
C        4.94991008       9.97384746       3.99126467       0.00030541      -0.00342527       0.00207160
Os       1.76348413       4.98347399       3.53597880       0.01273165       0.00175687       0.00352122
