52
Lattice="12.336457 0.0 0.0 -6.168228499999997 10.683685154694365 0.0 0.0 0.0 15.0" Properties=species:S:1:pos:R:3:forces:R:3 energy=-449.1029836276982 free_energy=-449.1029836276982 stress="-0.0053372714652274705 0.0017828775097989318 2.77570745648807e-05 0.0017828775097989318 -0.0018148864714548764 1.1434105378645277e-05 2.77570745648807e-05 1.1434105378645277e-05 1.6770385008997695e-06" pbc="T T T"
C       -0.02111232       0.03696411       3.78370638      -0.00801817       0.00923721      -0.00554866
C       -1.25195261       2.16802522       3.70055830       0.00082175       0.00478518      -0.00621533
C       -2.50836843       4.31061284       3.51577767      -0.00096897       0.00272149       0.00998847
C       -3.73619406       6.45297476       3.53692058       0.00358643      -0.00261891       0.00724306
C       -4.96165520       8.58911779       3.69457358       0.00286049       0.00080130      -0.00235633
C        2.45272033       0.05837329       3.80872190      -0.00092571      -0.00050493       0.00223158
C        1.22406829       2.16034972       3.97879608       0.00444397       0.00472263      -0.00237499
C       -0.11160253       4.33267529       3.83689714       0.00022048      -0.00381796      -0.00029707
C       -1.28987585       6.46660595       3.68695430       0.00361603       0.00201123       0.00399776
C       -2.49935893       8.59808447       3.69537490      -0.00128031       0.00625323      -0.00601094
C        4.91470102       0.04700173       3.75422365       0.01371611       0.00053797      -0.00555863
C        3.71084494       2.22608112       3.88444586       0.00012983      -0.00413597      -0.00612656
B        1.21625401       6.39480859       4.22507035      -0.00868560      -0.00490296      -0.00071599
C       -0.02804309       8.58490126       3.84937373      -0.00472026      -0.00700275       0.00400935
C        7.38607021       0.03030755       3.72617784      -0.00253653       0.00408867      -0.00495416
C        6.16241153       2.15497185       3.61683213      -0.00708854       0.00163412      -0.01300125
C        4.94540284       4.25157362       3.71826110       0.00580231      -0.00562630      -0.00478019
B        3.67606529       6.37886964       4.11254472      -0.00411221      -0.01046742       0.00620722
C        2.44311798       8.58995144       3.94566728       0.00376831       0.00210613       0.00044364
C        9.85145903       0.03308666       3.73320483       0.00296237      -0.00710668       0.00782470
C        8.62325696       2.16257116       3.55633131       0.00282369      -0.00831560      -0.00128779
C        7.38406558       4.30040378       3.48685585      -0.00251143       0.00649265      -0.00724553
C        6.14568358       6.43561741       3.65504603      -0.00915559       0.00690968      -0.00707813
C        4.90901754       8.57323703       3.82183587       0.00879692      -0.00050174      -0.00216384
C       -0.01704465       1.46704920       3.82503242      -0.00034332       0.01043713      -0.00159579
C       -1.28375031       3.58828365       3.64574809      -0.00191692       0.00277828      -0.00149538
C       -2.51284353       5.74009211       3.54014134       0.00782562       0.00277232       0.00978013
C       -3.73107496       7.88078319       3.62977909       0.00284701      -0.00355780       0.00385154
C       -4.95293758      10.01735523       3.77086018      -0.00760519       0.00270361       0.00302404
C        2.46292161       1.48381663       3.91743704      -0.00002782      -0.00273612       0.00390625
B        1.16454088       3.63614404       4.19540307      -0.00320043      -0.00199299       0.00527469
C       -0.10298125       5.73188269       3.86246455      -0.00406191      -0.00545556       0.01049617
C       -1.27147328       7.88715965       3.74436718      -0.00669731       0.00092523       0.00095366
C       -2.49175310      10.02237381       3.75678046       0.00910007       0.00764105       0.00868720
C        4.92749162       1.46938118       3.73943377      -0.00099508      -0.00054458      -0.01340326
N        3.80595424       3.57278227       3.98726435       0.00448208      -0.00479175      -0.00688925
C        1.20800776       7.89075541       4.00787734       0.00061287      -0.00312053       0.00347847
C       -0.02182812      10.01080167       3.77049095       0.00635229      -0.00706660      -0.00175352
C        7.39441714       1.44719703       3.60987415      -0.00722089       0.00263678       0.00275735
C        6.17268350       3.56414082       3.54906820       0.00361525      -0.00045948      -0.00185292
C        4.95036357       5.68370500       3.76987413      -0.00195667      -0.00651081      -0.00716999
C        3.67105413       7.88071757       3.95984470       0.00769029      -0.00301817      -0.00343337
C        2.44956420      10.01193252       3.79213372      -0.00169855       0.00650884       0.00582448
C        9.85508362       1.45393014       3.64034724       0.00619955      -0.00792345       0.00952175
C        8.61412460       3.58798722       3.48436306      -0.00048112      -0.00079763       0.00043877
C        7.37864560       5.72843371       3.52403943      -0.00796600       0.00941423       0.00746082
C        6.14194298       7.86623303       3.72432834       0.00449991       0.00465389      -0.00422580
C        4.91537603      10.00588917       3.77364970       0.00052682      -0.00205213       0.00836049
Pd       2.46706607       4.97469173       4.96531037       0.00141711       0.00568301      -0.00338356
O        3.28277333       3.78038948       6.49660115      -0.00373798       0.00375547      -0.01347158
O        2.72818604       4.17579306       7.72878080      -0.00688219      -0.01638817      -0.00765258
H        3.23234392       4.99028104       7.93477201      -0.00392288       0.00920568       0.01628080
