50
Lattice="12.336457 0.0 0.0 -6.168228499999997 10.683685154694365 0.0 0.0 0.0 15.0" Properties=species:S:1:pos:R:3:forces:R:3 energy=-435.7154752836153 free_energy=-435.7154752836153 stress="-0.0009976449473994911 0.004974059096105715 1.164210813183948e-06 0.004974059096105715 0.002458450451909251 -7.1647927156053706e-06 1.164210813183948e-06 -7.1647927156053706e-06 -9.163057102671052e-06" pbc="T T T"
C       -0.00471266      -0.01033100       3.74101767       0.00136084       0.00477226       0.00425251
C       -1.21415231       2.13884748       3.47617160       0.00474818       0.00266600      -0.00121419
C       -2.48599481       4.27351300       3.51471805       0.00254938      -0.00115847      -0.00473577
C       -3.74335192       6.39723227       3.73775604      -0.00281721      -0.00830991      -0.00304701
C       -4.97305105       8.52474305       3.88938563      -0.00240091      -0.00152882      -0.00213730
C        2.46182751       0.00036757       3.87291264       0.00673829      -0.00435899      -0.00071641
C        1.28006329       2.09949359       3.51273409       0.00298244       0.01242568       0.00046064
C       -0.08482448       4.36935624       3.19111199       0.00302618      -0.01323775      -0.00135963
C       -1.30897366       6.44343571       3.48603004       0.00878462       0.00367738       0.00623851
C       -2.50126545       8.54026167       3.77396834      -0.00747712       0.00378507       0.00108808
C        4.93099862      -0.02686025       3.81896031       0.00878093       0.00043890      -0.00667949
C        3.75748883       2.09525691       3.95560181      -0.00687251      -0.00431446      -0.00751525
O        1.10767410       6.43112783       3.47253742      -0.00311929       0.00517788       0.00467430
C       -0.02401570       8.52037159       3.67823572      -0.00267871       0.00164720      -0.00075716
C        7.40961462      -0.04355383       3.70520957      -0.00511669      -0.00281192       0.00264748
C        6.19790951       2.09721275       3.82419104      -0.00558056      -0.00124036      -0.00400025
C        4.99878423       4.20733208       4.10894737       0.00087474       0.00014154      -0.00091017
B        3.72102948       6.39589117       4.67847604       0.00547678       0.01410623      -0.00966389
C        2.44257293       8.47048295       3.79633708       0.00707276       0.00155549       0.00059338
C        9.86703487      -0.02937684       3.67527096      -0.00309431       0.00901968       0.00063024
C        8.65132014       2.11337880       3.62802353      -0.00465718       0.00264752       0.00473293
C        7.40452070       4.24645778       3.78006305      -0.00285937      -0.00287080      -0.00532517
C        6.13672644       6.35229878       4.01224025      -0.00341709      -0.00118200      -0.00251939
C        4.88988826       8.51725974       3.94478126      -0.00225533      -0.00846385      -0.00260102
C        0.02405043       1.42739144       3.55889268       0.00676668       0.01023497       0.00760221
C       -1.24500540       3.57331142       3.37002407       0.00098593      -0.00550001      -0.00309495
C       -2.51919943       5.69366143       3.56649310       0.00799835      -0.00034274       0.00054487
C       -3.74051609       7.82154257       3.80897712      -0.00653671      -0.00655474       0.00365953
C       -4.95031638       9.96235727       3.84827377       0.00226114      -0.00011473       0.00072899
C        2.50050542       1.43929360       3.83230909      -0.00560990      -0.00571894      -0.00045589
S        1.44823338       3.66993025       2.76047051      -0.00170498       0.00398266      -0.00569481
C       -0.11830726       5.76528067       3.30114542       0.00536771      -0.00898702       0.00142364
C       -1.28234399       7.84677628       3.64682848      -0.00498798       0.00705117       0.00176996
C       -2.48301193       9.96686817       3.85001527       0.01016337       0.00277560       0.00114231
C        4.95466169       1.39886558       3.87552679      -0.00506990      -0.00133840      -0.00420938
O        3.83530626       3.44181338       4.30151119       0.00135278      -0.00218110       0.00409691
C        1.17384539       7.80779139       3.66470622       0.00461268       0.00633826       0.00766978
C       -0.00082948       9.94421627       3.74387677       0.00109397      -0.00484070       0.00006812
C        7.41746138       1.39256336       3.71269964      -0.00568978      -0.00306259       0.00340208
C        6.19226962       3.51248490       3.88650557       0.00070981      -0.00145817      -0.00101787
C        4.95776379       5.59263294       4.20308520      -0.00153159       0.00064560       0.00191903
C        3.66391851       7.82351138       4.04833485       0.00066729      -0.01418776       0.00087413
C        2.46249242       9.91735326       3.70086800      -0.00097789       0.00181661      -0.00053205
C        9.89019062       1.41008066       3.57859350       0.00055804       0.00957847       0.00011768
C        8.63646301       3.53945974       3.63344741      -0.00110912       0.00192657      -0.00601893
C        7.37653487       5.66474380       3.83458303      -0.00825500      -0.00437916       0.00066820
C        6.13206910       7.79720306       3.97760139      -0.00128289      -0.00212239       0.00166184
C        4.92449903       9.95385561       3.77071531      -0.00526937      -0.00237622      -0.00096048
Pd       1.99847573       4.64676560       4.77235617       0.00779397      -0.00129448      -0.00003924
O        2.97783926       6.08776269       5.75096124      -0.00235546       0.00752571       0.01253837
