52
Lattice="12.336457 0.0 0.0 -6.168228499999997 10.683685154694365 0.0 0.0 0.0 15.0" Properties=species:S:1:pos:R:3:forces:R:3 energy=-447.45873941523985 free_energy=-447.45873941523985 stress="-0.007141825040382484 -0.001219254302866146 1.5236376431598604e-05 -0.001219254302866146 0.0004921733405168645 -1.907658541272743e-05 1.5236376431598604e-05 -1.907658541272743e-05 2.3962915081888815e-06" pbc="T T T"
C        0.05296688      -0.03266176       3.92613993       0.00035809      -0.00176244      -0.00673834
C       -1.19568314       2.08250943       3.83345582      -0.00476996       0.00367313       0.00271190
C       -2.41050779       4.22749504       3.71698983       0.00521324       0.00113676       0.00216063
C       -3.62533779       6.37720299       3.73624551      -0.00100163       0.00328814      -0.00043009
C       -4.87171591       8.51918594       3.87835315      -0.01033994      -0.00757529      -0.00283726
C        2.51691053      -0.01382832       3.88861104       0.00049792       0.00080500      -0.00188982
C        1.25761662       2.14549066       3.89291863      -0.00062006      -0.00183967      -0.00548252
C        0.03365135       4.20426877       3.83951548       0.00671102      -0.00026406      -0.00475829
C       -1.18729130       6.37482938       3.79512525      -0.00060005      -0.00268841       0.00850078
C       -2.41446842       8.51784924       3.84915894       0.00005744      -0.00147335      -0.00016320
C        4.98611677      -0.03892765       3.75019828      -0.00165216      -0.00157216      -0.00067570
C        3.72585225       2.05143865       3.46493949       0.00286809       0.00336388       0.00473679
N        1.18292568       6.37067576       3.98385262       0.01445342      -0.00767790      -0.00436465
C        0.04615435       8.48827684       3.86741607      -0.00037268       0.00633002       0.01094648
C        7.45053026      -0.06155791       3.77515699       0.00031442       0.00202943      -0.00414362
C        6.22638963       2.08130505       3.47343230      -0.00269023      -0.00687602       0.00300062
C        5.11417072       4.27439542       3.18567217       0.00685557       0.00579430      -0.00267662
B        3.87654044       6.33410329       4.00789693       0.00487490       0.00042999      -0.00442442
C        2.51068472       8.46885178       3.95530258       0.00138106      -0.00086620      -0.00091455
C        9.91144213      -0.06215452       3.87650034      -0.00228376       0.00292264      -0.00176869
C        8.68448960       2.07918814       3.68358276      -0.00319163       0.00249940       0.00054589
C        7.49524614       4.23242478       3.53082964       0.00040596       0.00000367       0.00196716
C        6.28074395       6.38753201       3.66942384       0.00593516       0.00060643      -0.00400358
C        5.00056204       8.50686473       3.92405927      -0.00051014      -0.00014904       0.00140645
C        0.04023430       1.39302736       3.89976744      -0.00427600       0.00085261      -0.00485380
C       -1.19696578       3.50280753       3.78079827       0.00609415       0.00364640      -0.00199201
C       -2.40410091       5.65425397       3.74147595      -0.00142269      -0.00030098       0.00295430
C       -3.63912006       7.80365763       3.82699217      -0.00455001       0.00094704       0.00115233
C       -4.87849657       9.94584451       3.92904970      -0.00054815      -0.00667889      -0.00082239
C        2.51111432       1.41683711       3.79590388       0.00236257       0.00370762       0.00513203
N        1.16942330       3.49075776       3.98700399       0.00199342      -0.00547225      -0.00880204
C        0.04006532       5.66720279       3.83625888       0.00022542      -0.00274146       0.00523992
C       -1.18364177       7.79757570       3.83879485       0.00302243       0.00045408       0.00257498
C       -2.41629317       9.94813350       3.84515991       0.00005494      -0.00168903       0.00107296
C        4.98270764       1.38547902       3.55636084      -0.00065122      -0.00461949       0.00385785
S        3.62348566       3.58676644       2.65862211      -0.00518178      -0.01343601       0.00420230
C        1.26728419       7.72567397       3.93753231       0.00152174      -0.00100880       0.00241911
C        0.05174399       9.91450844       3.80208951      -0.00100298       0.00661433      -0.00090189
C        7.44727564       1.36666248       3.64066969      -0.00027949      -0.00136202       0.00152669
C        6.27332969       3.50322251       3.35103540      -0.00349324      -0.00148766       0.00119743
C        5.09878648       5.64075560       3.51441618       0.00596450       0.00885680      -0.00863181
C        3.75921749       7.81201989       3.97812684       0.00087661       0.00064046       0.00144092
C        2.50655746       9.89871784       3.87693821      -0.00099698       0.00048826      -0.00007524
C        9.90891682       1.36369733       3.80348777      -0.00550083       0.00335013      -0.00299681
C        8.70236509       3.50699808       3.63877785       0.00248078       0.00228397       0.00721551
C        7.50037889       5.66077646       3.62909679       0.00191195       0.00055943       0.00172614
C        6.23922553       7.80229007       3.84769721      -0.00647052      -0.00585775      -0.00593083
C        4.98856373       9.93035105       3.92355596      -0.00094183       0.00039749      -0.00292592
Pd       2.68266373       4.91495107       4.57932935      -0.00273861       0.00318047       0.00417084
O        1.66687834       4.87233350       6.35163588      -0.00023609      -0.00099719      -0.00497110
O        1.47833550       6.20111978       6.82949809      -0.01064884       0.00777207       0.00962424
H        1.95171420       6.15199123       7.68703545       0.00053667       0.00176214      -0.00330907
