50
Lattice="12.336457 0.0 0.0 -6.168228499999997 10.683685154694365 0.0 0.0 0.0 15.0" Properties=species:S:1:pos:R:3:forces:R:3 energy=-438.0740470583518 free_energy=-438.0740470583518 stress="-0.009038954793019811 -0.0010163419857073107 -6.498363673042638e-06 -0.0010163419857073107 -0.0015344029507747428 -1.5336753355691723e-05 -6.498363673042638e-06 -1.5336753355691723e-05 1.4268480048348001e-05" pbc="T T T"
C       -0.02407578       0.03209943       3.88779288       0.01068369      -0.00012852       0.00248521
C       -1.28346789       2.13504120       3.97171631       0.00559744       0.00544819      -0.00051075
C       -2.51711429       4.28571751       3.97729979       0.00130830      -0.01106613       0.00297880
C       -3.71380250       6.43869576       3.86966492      -0.00221917      -0.00557724       0.00015663
C       -4.94907273       8.58567111       3.84236599       0.00443517      -0.00670497       0.00023503
C        2.44667819       0.04975622       3.82446829      -0.00095626      -0.00141181      -0.00400718
C        1.19927961       2.20114551       3.80957212      -0.00338665      -0.01203144      -0.00742562
C       -0.08423619       4.26796573       4.03886683       0.01103689       0.00232345       0.00470642
C       -1.28513886       6.44085231       4.06228447      -0.00764258      -0.00119952       0.00146824
C       -2.49749270       8.58339700       3.94707239      -0.00388411       0.00788585      -0.00440627
C        4.91590399       0.01719102       3.76124526      -0.00626398       0.00429462       0.00495220
C        3.67387857       2.08933246       3.30352173      -0.00372137      -0.00161932       0.00921999
C        1.14134049       6.39450171       4.00932416       0.00724350      -0.00573541      -0.00707056
C       -0.02842810       8.54716466       3.96682145       0.00066842       0.00064075       0.00366462
C        7.37318250      -0.00227945       3.82766506      -0.00852532       0.00832777      -0.00076763
C        6.15939560       2.13314490       3.47734583      -0.00076124       0.00485716       0.00314824
C        5.09885147       4.31116643       2.96051985       0.00108384       0.00175160       0.00323408
B        3.80590178       6.42134056       3.58150550      -0.01441804      -0.00246300      -0.00663240
C        2.44167819       8.53761898       3.87962994       0.00172662      -0.00294171      -0.00641825
C        9.83519144       0.00039699       3.89393412      -0.00313067       0.00194763       0.00200913
C        8.59871115       2.13842526       3.82785801       0.00732877      -0.00411801      -0.00225027
C        7.41503149       4.28736938       3.60726370       0.00243533      -0.00228275       0.01257905
C        6.21612747       6.44935527       3.52960532      -0.00557765       0.00209297       0.00148232
C        4.93181695       8.57797177       3.77457697       0.00433222       0.01138963      -0.00687806
C       -0.03704422       1.45284009       3.91176731      -0.00043297      -0.00238028      -0.00728094
C       -1.30956847       3.55345590       4.03168199       0.00952556       0.00369479       0.00470633
C       -2.50295580       5.71816056       3.98906643      -0.00691426      -0.01168799       0.01303279
C       -3.72017689       7.86873476       3.89722244       0.00321850      -0.00377391      -0.00384187
C       -4.95354341      10.01214920       3.87567025       0.00729682      -0.00715566      -0.00427569
C        2.45177262       1.47134936       3.66345461      -0.00397501      -0.00672888      -0.00087136
C        1.08125602       3.56403331       3.89954606       0.00422428      -0.01225931       0.00867863
C       -0.06760171       5.71597096       4.06981141       0.00037306       0.00377473      -0.00385158
C       -1.26873759       7.86238627       4.00966401      -0.00483360       0.00498173      -0.00087776
C       -2.49095508      10.00663273       3.85487243      -0.00444338       0.00565808      -0.00801869
C        4.92210746       1.42844567       3.50255286      -0.00320175       0.00464594       0.01656498
S        3.67981203       3.52304751       2.33118877       0.00366927      -0.01201819      -0.00324986
C        1.20996020       7.79872092       3.96071110       0.00396980      -0.00633737      -0.00620827
C       -0.02431862       9.97099720       3.85711939      -0.00688942       0.00451619       0.00670967
C        7.36790179       1.42592426       3.71985399       0.00183528       0.00673645      -0.01088293
C        6.21735759       3.55354275       3.31659296       0.00359094       0.00354669       0.00238940
C        5.05979032       5.69992777       3.22516097      -0.00502831       0.00178236      -0.00110750
C        3.68867614       7.88281960       3.75345637       0.00717899       0.00172666      -0.00227572
C        2.43430857       9.96470535       3.88323576      -0.00914098       0.00189177       0.00135339
C        9.82136625       1.42022920       3.91908687       0.00770154       0.00104018       0.00020560
C        8.60740416       3.56675915       3.82497487       0.00320462      -0.00944417      -0.00163129
C        7.42459375       5.71994926       3.66181499      -0.00515194      -0.00132453       0.01029707
C        6.16758061       7.86858242       3.72228383       0.00006283       0.00300748      -0.00029144
C        4.91462635       9.99375426       3.87112386       0.00535686       0.01085804       0.00108590
Pd       2.57054112       4.95896115       3.93024189      -0.01215784       0.00941627      -0.00577925
O        3.33352880       4.20641273       5.47852765       0.00356795       0.01215315      -0.01053254
