49
Lattice="12.336457 0.0 0.0 -6.168228499999997 10.683685154694365 0.0 0.0 0.0 15.0" Properties=species:S:1:pos:R:3:forces:R:3 energy=-438.71389400548014 free_energy=-438.71389400548014 stress="-0.00986947021310979 0.00063130007086124 9.257168700649783e-07 0.00063130007086124 0.0021269859829951675 1.341692459647854e-06 9.257168700649783e-07 1.341692459647854e-06 -1.3201903137023089e-06" pbc="T T T"
C       -0.00356306       0.01185075       3.72475893      -0.00567759       0.01253122       0.01047533
C       -1.25067787       2.11743583       3.62445164       0.00486850       0.00871818      -0.00270832
C       -2.47811915       4.27078069       3.52100699       0.01185559       0.00878138      -0.00955588
C       -3.69403408       6.42632665       3.55430216       0.00636027      -0.00804334       0.00045669
C       -4.92947451       8.57671480       3.67957234      -0.00470727      -0.00969941       0.00767398
C        2.45937460       0.06664966       3.78822454      -0.00684985       0.00692768       0.00556863
C        1.19543211       2.19422865       3.84983169       0.00032854       0.00028440      -0.01039229
C       -0.06319409       4.25368315       3.73166459      -0.00748980      -0.00732697      -0.00663292
C       -1.26536243       6.42952493       3.64231308      -0.00269783       0.00327981      -0.00576644
C       -2.48008500       8.58069757       3.68751098       0.00649697       0.01071429      -0.00640851
C        4.93229769       0.01804496       3.77678290       0.00537784      -0.00871419      -0.00034714
C        3.71038214       2.20329623       3.91631833       0.01133147      -0.00353347      -0.00475310
N        1.09567427       6.39963064       3.99327185      -0.00370410      -0.00132349      -0.00097162
C       -0.01813941       8.53132991       3.79181342      -0.00443554       0.00011338      -0.00000444
C        7.40399875      -0.03495268       3.73326378      -0.00636782      -0.01231730       0.00093263
C        6.19204777       2.10894645       3.68886577      -0.00711788      -0.00194647      -0.01139057
C        5.03442024       4.25088664       3.80893062       0.00405886      -0.00226333       0.00762062
B        3.78072760       6.35306809       4.08092902       0.00349449      -0.00082191      -0.00676095
C        2.45307029       8.49124036       3.88625401       0.00387731       0.01324591      -0.00127524
C        9.85784196      -0.03479383       3.70983810       0.00628540      -0.00336767       0.00179628
C        8.63646484       2.10866968       3.58016775       0.00536267      -0.00213280      -0.00049068
C        7.43447938       4.26217192       3.54545011      -0.00116408       0.00010573      -0.00397136
C        6.21771600       6.42089731       3.67723612      -0.00959668      -0.00749937       0.00116845
C        4.94117329       8.53957858       3.79761503      -0.00922173       0.00120907       0.00371781
C       -0.01961722       1.43285122       3.72061888      -0.00211127       0.01533892       0.00675203
C       -1.27082780       3.54042341       3.58312787      -0.00191406      -0.00054443       0.00115924
C       -2.47525531       5.70196952       3.54662656       0.00856546       0.00126003      -0.01476309
C       -3.70242620       7.85955252       3.62842593       0.00704291      -0.00102900       0.00780111
C       -4.93086180      10.00750185       3.73325821      -0.01543123       0.00535540       0.01147090
C        2.45350168       1.49884745       3.88010429       0.00527622       0.00549989       0.00746743
N        1.07060453       3.54801376       3.92899169       0.00053075       0.00399791      -0.00843049
C       -0.05477818       5.71049677       3.76513292      -0.00994463      -0.00774673      -0.00282546
C       -1.25255127       7.85168983       3.70351031      -0.00392540      -0.00042091       0.00007351
C       -2.47916803      10.01170849       3.76019046       0.00034027       0.01040926      -0.00081395
C        4.94716259       1.43871169       3.79879689       0.00330863      -0.01188032       0.00125640
C        3.82609428       3.58818664       4.03902111       0.00711373      -0.00201426      -0.01002599
C        1.19955912       7.76553673       3.89994475      -0.00099350       0.01236884      -0.00326753
C       -0.00470766       9.95639587       3.76921527      -0.00165553      -0.00789279       0.00298583
C        7.41582932       1.38730875       3.65321102      -0.00803149      -0.00530129      -0.00270411
C        6.23284678       3.52226028       3.63792591      -0.00233337      -0.00106744       0.00117749
C        5.05601908       5.65499295       3.81532345      -0.00706074      -0.00328857       0.00077327
C        3.69987473       7.83381839       3.92325268      -0.00403391       0.00010562      -0.00002377
C        2.45667517       9.92261076       3.77030416       0.00201753       0.00482460       0.00509791
C        9.85905735       1.39188600       3.62085686       0.01275155      -0.00933917      -0.00208196
C        8.64511768       3.54093615       3.51906949       0.00870322       0.00900437       0.00307683
C        7.43574553       5.69869891       3.56119915       0.00275750      -0.00152013       0.00421025
C        6.18289329       7.84861745       3.71779476      -0.01070720      -0.00780301       0.00216253
C        4.93289990       9.96234034       3.73520391       0.00505198       0.00065970       0.01342000
Pd       2.49125441       4.95728646       4.45323925       0.00401484      -0.00589783       0.00807064
