49
Lattice="12.336457 0.0 0.0 -6.168228499999997 10.683685154694365 0.0 0.0 0.0 15.0" Properties=species:S:1:pos:R:3:forces:R:3 energy=-438.90465424641314 free_energy=-438.90465424641314 stress="-0.00829522392217627 -0.0005822093476517885 2.1054960610044986e-06 -0.0005822093476517885 0.0010501666166476498 5.865363622120957e-06 2.1054960610044986e-06 5.865363622120957e-06 3.9732550236330806e-07" pbc="T T T"
C        0.00199434       0.00893739       3.76408649      -0.00122511       0.00073470       0.00168420
C       -1.25311544       2.11169944       3.67380446       0.01514842       0.00013080      -0.00937388
C       -2.49049826       4.26565960       3.56076829       0.01104126      -0.00072455       0.00151850
C       -3.70257556       6.42233197       3.59259006      -0.00152074      -0.00889437       0.00058015
C       -4.92072822       8.57403431       3.70502984      -0.00719455       0.00768709       0.00316975
C        2.46878839       0.06270566       3.78022339       0.00251786       0.00262026       0.00644848
C        1.20594285       2.19489272       3.88162707      -0.00600788      -0.01195206      -0.00228224
C       -0.07666180       4.22734297       3.76357942      -0.00462110       0.00395167      -0.00491278
C       -1.26078328       6.41167596       3.66985785       0.00472981      -0.00687832       0.00146010
C       -2.47120231       8.57169369       3.68705736       0.01144686       0.00117026       0.00107671
C        4.93150797       0.01553086       3.72673405       0.00221494       0.01104120       0.00508968
C        3.72792633       2.19394778       3.84594602       0.00258238      -0.00062291      -0.00886520
B        1.20186730       6.37105082       3.99842374      -0.01656925       0.00332609       0.00328713
C       -0.01154961       8.55000879       3.77208069       0.00284446       0.00490840       0.00866355
C        7.40771496      -0.02163545       3.71160199      -0.00458886      -0.01012253      -0.00118349
C        6.18220230       2.12235210       3.64949730      -0.00709592       0.00293248      -0.00058343
C        4.99607236       4.24739200       3.76222631       0.00493091       0.00157082      -0.00471034
C        3.77948572       6.37089607       3.98396785      -0.01147884      -0.00887506      -0.01105750
C        2.47002972       8.51311481       3.86934140       0.00536425      -0.00009056       0.00945645
C        9.86693307      -0.02874508       3.73069722       0.00584195      -0.00400551       0.00208707
C        8.63527173       2.11542384       3.59916050      -0.00798587       0.01161152       0.00003705
C        7.41582056       4.27160490       3.57087436      -0.01065295       0.00226085      -0.01397370
C        6.19579642       6.42331611       3.69183801      -0.00074499       0.00017431       0.00112121
C        4.94875680       8.53066305       3.80616746      -0.00160300      -0.00305567      -0.00869370
C       -0.01095506       1.43221550       3.76852064       0.00342695      -0.00246354       0.00421076
C       -1.28554585       3.52288338       3.62186583       0.00708219      -0.00284373       0.00150085
C       -2.48841725       5.69727121       3.58262088       0.00713577      -0.00645741      -0.00655286
C       -3.69879820       7.85449037       3.65243752      -0.00226168       0.00566070       0.00660598
C       -4.92452568      10.00344795       3.75624979      -0.00833569       0.01459970       0.00672406
C        2.46716614       1.49886889       3.85742465       0.00389547      -0.00167253       0.00136397
N        1.08276395       3.55667086       3.99476514      -0.01533461      -0.00733694      -0.00819416
C       -0.07952642       5.64693978       3.77085219      -0.00396622       0.00108212       0.00790525
C       -1.24405072       7.84476856       3.70664534       0.00824259      -0.01034970       0.00743203
C       -2.47422928      10.00491173       3.73456728       0.00821573       0.00784317       0.00454901
C        4.94384883       1.43798868       3.73069887       0.00036860       0.00493420       0.00019652
N        3.85509078       3.55287312       3.92533201       0.00444270       0.00157660      -0.00115712
C        1.23041341       7.85463398       3.87861373      -0.00059627       0.00432021       0.00096333
C       -0.00415232       9.97181778       3.73003953      -0.00454135       0.00668622       0.00463778
C        7.40937784       1.40166489       3.63871436      -0.01238146      -0.00130763      -0.00274394
C        6.20728021       3.53962689       3.62348627      -0.00411408      -0.00221185      -0.00446812
C        4.97355818       5.68933472       3.80497907       0.00126019       0.00070122      -0.01604029
C        3.70763851       7.77825937       3.89893091       0.00107308       0.00158165      -0.00269626
C        2.47160732       9.94152415       3.76560680       0.00190580      -0.00592344       0.00901006
C        9.85957233       1.39414834       3.65355865       0.00646494      -0.00021181      -0.00035278
C        8.63073856       3.54537725       3.55132601      -0.00379057       0.01638855       0.00090674
C        7.41026682       5.70334620       3.59779585      -0.00047914      -0.00504477       0.00356824
C        6.18461894       7.84564382       3.73247050      -0.00153721      -0.00234533      -0.00063201
C        4.93787886       9.95364930       3.76714897       0.00912672      -0.00676845       0.00073922
Pd       2.46677709       4.98029809       4.41288760       0.00732354      -0.00933613       0.00247995
