49
Lattice="12.336457 0.0 0.0 -6.168228499999997 10.683685154694365 0.0 0.0 0.0 15.0" Properties=species:S:1:pos:R:3:forces:R:3 energy=-426.8575630782243 free_energy=-426.8575630782243 stress="-0.003901914945111889 0.000852088333034604 4.522648853167768e-06 0.000852088333034604 -0.00597065567808234 9.424126123050285e-06 4.522648853167768e-06 9.424126123050285e-06 1.5811222876259407e-06" pbc="T T T"
C        0.00138766      -0.00717757       3.70482843      -0.00586263      -0.00600014       0.00790324
C       -1.22527324       2.13909927       3.54357545       0.00116616       0.00037171      -0.00178555
C       -2.47494024       4.27493783       3.61117219      -0.00124342       0.00111395       0.00103380
C       -3.70446800       6.40802280       3.71088934       0.00476680       0.00137385      -0.01263983
C       -4.94779199       8.52887472       3.71857786       0.00950859       0.00006888      -0.01011087
C        2.45927818      -0.03672913       3.91180991      -0.00214793      -0.00940825      -0.00157615
C        1.26339465       2.06274952       3.54482850       0.00719398       0.00248772       0.00854668
C       -0.06512564       4.31959468       3.32834209       0.00390476       0.00232667       0.00322833
C       -1.25082360       6.41660386       3.76579808       0.00665384       0.00484295      -0.00053268
C       -2.46964824       8.53293605       3.91466803      -0.00680018       0.00194096       0.00198380
C        4.93408594      -0.01088268       4.03492508       0.00646708       0.00179043      -0.00570100
C        3.68126541       2.10332508       3.99923642       0.00997021      -0.00244991       0.00549437
B        1.25123362       6.35433864       4.05996166      -0.00520962      -0.00238088      -0.00362591
C        0.00489353       8.54180632       4.01165280      -0.01402429      -0.00135789      -0.00153027
C        7.40299511       0.01487527       3.98491256       0.00261452      -0.00159669       0.00249058
C        6.16869855       2.13786887       3.94617983       0.00557277       0.00256338      -0.00978723
C        4.97601218       4.28675726       3.66791986       0.00227812      -0.00120003       0.00711401
S        3.50187982       6.34179656       2.83123140      -0.00855476       0.00965211       0.00484114
C        2.46962615       8.57449083       3.86800739      -0.00576409       0.00432200      -0.00043703
C        9.87635514       0.01392112       3.78343415       0.00224380       0.00495528       0.00048361
C        8.64089278       2.14077166       3.78365410      -0.00746286      -0.00634671      -0.00962910
C        7.41314565       4.27056249       3.70988998      -0.00665351       0.00094496      -0.00676187
C        6.17829666       6.41137737       3.47791139      -0.01028320       0.00429407      -0.00216380
C        4.92796470       8.54469002       3.59815018       0.00154065      -0.00260916      -0.00164505
C        0.00683823       1.42304649       3.58806036       0.00225773      -0.00156800       0.00863002
C       -1.24491306       3.55506889       3.45433111       0.00332156       0.00248578       0.00311012
C       -2.47919834       5.69613943       3.69429382       0.00895988       0.00512937      -0.00357114
C       -3.70619521       7.82653817       3.78399877       0.00390634      -0.00058311      -0.00853015
C       -4.94175782       9.95367554       3.78471959      -0.00553693      -0.00614496       0.00218449
C        2.46468290       1.39237233       3.87137719       0.00792702      -0.00549659       0.00138433
S        1.43959116       3.62644280       2.83401078       0.01325100       0.00260255       0.00400683
C       -0.04299288       5.68151792       3.64029132       0.00201315      -0.00358165       0.01093275
C       -1.23372353       7.82913946       3.92957095      -0.01240836       0.00127024      -0.00035648
C       -2.46830174       9.95207253       3.98199915       0.00083540      -0.00079148       0.01192102
C        4.92987658       1.42451048       4.02274706       0.01233482       0.00246536       0.00087597
B        3.68069200       3.60994761       4.07509880       0.01131397       0.00005498      -0.00071884
C        1.25298149       7.86213566       3.98823461      -0.00981451       0.00219789       0.00936888
C        0.00045101       9.97734187       4.03268534       0.00143326      -0.00231018      -0.00050471
C        7.40496206       1.43439460       3.92273945      -0.00271381      -0.00414395      -0.00031424
C        6.18443398       3.55124669       3.78949369      -0.00060229      -0.00179352      -0.00520204
C        4.99763543       5.64794157       3.35293611      -0.00799624      -0.00574377      -0.00231118
C        3.67229540       7.90435389       3.54742499      -0.00350268       0.00047086       0.00112154
C        2.47524067      10.00377434       3.91120393       0.00468548       0.00713313       0.00258168
C        9.88201417       1.43834118       3.71122917      -0.00204874       0.00085223      -0.00591765
C        8.63885966       3.55898384       3.70889011      -0.00723410      -0.00438933      -0.00534071
C        7.40871287       5.69164081       3.62824224      -0.00500268       0.00571731      -0.00651098
C        6.15921728       7.82752467       3.55836240       0.00671012       0.00598763      -0.00571384
C        4.93378062       9.97565141       3.70692978      -0.00481666      -0.00621498       0.00851855
Pd       2.44887560       4.97013612       4.92429218      -0.00714755      -0.00330511       0.00516253
