52
Lattice="12.336457 0.0 0.0 -6.168228499999997 10.683685154694365 0.0 0.0 0.0 15.0" Properties=species:S:1:pos:R:3:forces:R:3 energy=-452.8198725456982 free_energy=-452.8198725456982 stress="-0.00699170641842961 0.0006491875951976351 5.621245324997329e-06 0.0006491875951976351 0.004644834410495504 -1.8585821742478512e-05 5.621245324997329e-06 -1.8585821742478512e-05 -7.4587405993736015e-06" pbc="T T T"
C        0.09225310      -0.03344583       3.80118615      -0.00569396       0.00461477       0.00219920
C       -1.15010921       2.07205078       3.62578323       0.00174710       0.00213802       0.00263975
C       -2.37692500       4.22436912       3.49732714       0.00841110      -0.00108709       0.00220255
C       -3.59954294       6.37807694       3.58710260      -0.00173462      -0.00500052       0.00564741
C       -4.83582577       8.52662666       3.77212282       0.00347569      -0.00159179      -0.01541271
C        2.55542814       0.02234447       3.84858053      -0.00478748      -0.00159804      -0.00024574
C        1.29472738       2.16102456       3.86336401       0.00830255      -0.00182386      -0.00837056
C        0.05596552       4.20699304       3.61656526       0.00123804      -0.00105682       0.00109854
C       -1.15999455       6.38171903       3.55576980      -0.00542139       0.00068734       0.00793209
C       -2.38377464       8.53362360       3.70160751      -0.00425178      -0.00744788      -0.00117805
C        5.03029565      -0.03061279       3.80779350      -0.00798752       0.00115611       0.00006862
C        3.80907775       2.15734364       3.98421866       0.00431308      -0.00379237       0.01252231
N        1.20071687       6.35080549       3.89599252       0.00194902      -0.00370947       0.00073486
C        0.08084936       8.48097781       3.76637539      -0.00696862       0.00865412      -0.00008846
C        7.50275575      -0.08482622       3.76152801       0.00352923      -0.00197083       0.00766849
C        6.28995307       2.06254071       3.74024937      -0.00024516       0.00570679      -0.00619181
C        5.12683997       4.20130917       3.91517429      -0.00073595      -0.00453673       0.00022585
B        3.85735636       6.28990376       4.25036050       0.00568769      -0.00159450      -0.01456792
C        2.55205405       8.43893475       3.92647253      -0.00845397       0.00926159       0.00622576
C        9.95666950      -0.08273313       3.76886696       0.00732550       0.00603550      -0.00478455
C        8.73648670       2.06198634       3.61341821      -0.00854334      -0.00262108      -0.01049642
C        7.53016205       4.21518119       3.60514041       0.01542703       0.00527535      -0.00088248
C        6.30702196       6.36936365       3.79248463       0.00511842      -0.00356227       0.00152944
C        5.03155767       8.48612703       3.91275615      -0.00137761      -0.00787576      -0.00607499
C        0.08029992       1.39049629       3.75060112       0.00240106       0.00460945       0.00448961
C       -1.16152229       3.49684666       3.52645686       0.00558571      -0.00187043      -0.00103596
C       -2.37666560       5.65640427       3.51559519      -0.00404908      -0.00227970       0.00562268
C       -3.60788682       7.81151163       3.67633158       0.00061782      -0.00978469       0.00786503
C       -4.83583817       9.96001150       3.81563966      -0.00681444       0.00177428       0.00234548
C        2.54914235       1.45470205       3.93452718       0.00668057      -0.00169762      -0.00317053
N        1.18115317       3.51567543       3.89460110      -0.00394552      -0.00613644       0.00626118
C        0.06430736       5.66899065       3.62332245      -0.00270435      -0.00167399      -0.00110853
C       -1.15495564       7.80433720       3.66523236      -0.00313084       0.00275479      -0.00525490
C       -2.38208604       9.96458530       3.79639510      -0.00776681      -0.00740443       0.00792154
C        5.04459672       1.39113536       3.85012012      -0.00041499       0.00226584      -0.00462929
C        3.93098188       3.53264923       4.14948512       0.00025542      -0.00395803       0.01473629
C        1.29834166       7.70715019       3.86593322      -0.00912401       0.00325670      -0.00265891
C        0.09315722       9.90588228       3.78384425      -0.00306233       0.00896597      -0.01247227
C        7.51463319       1.33957904       3.69117419      -0.00703343      -0.00473129       0.00528757
C        6.32744777       3.47710546       3.71194966       0.01026007       0.00734688      -0.00232913
C        5.13992108       5.61021830       3.94978059       0.00438370      -0.00391059      -0.00240030
C        3.79238170       7.77529804       4.03090604      -0.00799936       0.00229018      -0.00146622
C        2.55580465       9.87046302       3.81211985       0.00776886       0.00694798       0.00309615
C        9.95933827       1.34480571       3.65298126      -0.00305240       0.00568978      -0.00184323
C        8.74391560       3.49559638       3.54682305       0.00949636      -0.00077202      -0.01385884
C        7.52837520       5.65141698       3.63459778       0.00384296       0.00045523       0.00971824
C        6.27634302       7.79769647       3.83403959       0.00532961      -0.00499745       0.00194600
C        5.02861774       9.91305326       3.82431945       0.00015746      -0.00329843       0.00491930
Pd       2.55922967       4.88225308       4.71007889      -0.00535510       0.00167867      -0.00977614
O        1.27853343       4.84839004       6.31717747      -0.00494616      -0.00428516      -0.01346679
O        1.02080113       6.18656313       6.72794414      -0.00081215       0.00817815       0.01508745
H        1.16199875       6.10950417       7.69499158       0.00310832       0.00632579       0.00377332
