52
Lattice="12.336457 0.0 0.0 -6.168228499999997 10.683685154694365 0.0 0.0 0.0 15.0" Properties=species:S:1:pos:R:3:forces:R:3 energy=-442.7355380055054 free_energy=-442.7355380055054 stress="-0.0030937651108992326 0.006359935483077813 -6.902783314918245e-07 0.006359935483077813 0.0022440103784745705 -4.277114793643219e-06 -6.902783314918245e-07 -4.277114793643219e-06 1.6560525179140052e-05" pbc="T T T"
C        0.07823281       0.11472009       3.86908641      -0.00239968       0.00117630      -0.01136405
C       -1.12760247       2.26109188       3.61165029       0.00174096      -0.00157736      -0.00689523
C       -2.40221601       4.39706996       3.59503962      -0.00256446      -0.00794578      -0.00285121
C       -3.66221286       6.52222484       3.77525062      -0.00321842       0.00387662       0.00874908
C       -4.88895958       8.65156384       3.95262693       0.00247316       0.00428085       0.00041932
C        2.54619565       0.12966673       3.94263778      -0.00093220       0.00297790      -0.00427735
C        1.36058613       2.23035748       3.64083324       0.00022948      -0.00139424      -0.00054784
C       -0.01958602       4.49885094       3.29884117       0.00483881      -0.00240700      -0.00113253
C       -1.23545036       6.57307182       3.50584532      -0.00550552      -0.00376406       0.00884977
C       -2.42417338       8.66869813       3.80451267       0.00350522       0.00007725       0.00519190
C        5.01725969       0.09569206       3.85755091      -0.00967243      -0.00561040      -0.00138681
C        3.84928833       2.21802677       3.94924476       0.00403500      -0.00084393      -0.00265949
O        1.18020988       6.57116702       3.51066896       0.01132521      -0.00313018      -0.00749675
C        0.04873583       8.65099440       3.69298435      -0.00140751       0.00135992       0.00617144
C        7.49604609       0.07592759       3.77512458      -0.00248535       0.00047385       0.00318876
C        6.28971175       2.20902057       3.85711554      -0.00069194       0.00409998       0.00764834
C        5.09573913       4.30270628       4.07147235      -0.00060339       0.00400637       0.00243782
B        3.76873363       6.43940276       4.42130061       0.01029098       0.00384030      -0.00143270
C        2.50960948       8.59713728       3.86863503      -0.00445340      -0.00210080      -0.01018559
C        9.95382703       0.08954626       3.80338076      -0.00321790       0.00817440      -0.00288886
C        8.74186229       2.23235179       3.72313042      -0.00014868       0.00277750      -0.01047170
C        7.49584325       4.36689460       3.81905752       0.00266889      -0.00064327       0.00333449
C        6.22438261       6.48142986       4.02148541       0.00405542      -0.00865204      -0.00618490
C        4.97760780       8.62774336       4.02757143      -0.00067401      -0.00213421      -0.00990404
C        0.11022377       1.55618197       3.69707954       0.00025327      -0.00119439       0.00008294
C       -1.16321305       3.69471954       3.48519155       0.00252047      -0.00492779      -0.00122402
C       -2.43881565       5.81868251       3.61076005      -0.00927170      -0.00611122       0.00753433
C       -3.66192447       7.94831240       3.84859691       0.00322521       0.00620649       0.00776812
C       -4.86657433      10.08747037       3.94163551      -0.00048335       0.00601295      -0.00150755
C        2.58507206       1.56496185       3.89447392       0.00274071       0.00255961      -0.00206095
S        1.53599495       3.83945983       3.04803342       0.01405852       0.00648848      -0.01125293
C       -0.05092474       5.88980565       3.34016530       0.00002264      -0.00320629       0.01276146
C       -1.20859133       7.97792102       3.65694807       0.00193456      -0.00043018       0.00228752
C       -2.40006887      10.09330292       3.89459785      -0.00658589      -0.00387840       0.00254194
C        5.04319286       1.51803154       3.90168581       0.00003230      -0.00517682      -0.00589763
O        3.93977752       3.57374977       4.23904410       0.00287807      -0.00162744      -0.00849274
C        1.25274546       7.94607957       3.69942003      -0.00124601      -0.00281589       0.00297036
C        0.08300327      10.06786822       3.78137275      -0.00637844       0.00175120       0.00299056
C        7.50885198       1.50808798       3.78015149       0.00130557       0.00299443       0.01347106
C        6.29175825       3.61992637       3.90013852      -0.00144714       0.00750178       0.00365403
C        5.04004923       5.70582205       4.15776118       0.00143856       0.00241857       0.00500117
C        3.73683417       7.91331744       4.08981515      -0.00304425       0.00160442       0.00691729
C        2.54527129      10.03971227       3.79867522      -0.00222071       0.00009003       0.00470753
C        9.98037842       1.52855921       3.70634845      -0.00004691       0.00768300      -0.00248624
C        8.72446528       3.66050726       3.70810821      -0.00085670      -0.00314930       0.00706827
C        7.46093829       5.78863523       3.86804517       0.00417740      -0.00438359       0.00527994
C        6.21272604       7.91716458       4.02149271       0.00327952      -0.00753540       0.00499352
C        5.00992175      10.06956643       3.90138560      -0.00440567       0.00305346      -0.01374623
Pd       2.33175477       5.21128537       4.95655649      -0.01045757       0.00015711       0.00302222
O        2.21035337       3.50696323       6.08293223      -0.00112490      -0.00124352      -0.00285659
O        0.84692905       3.37853440       6.45544398      -0.01644033      -0.00519567      -0.00986609
H        0.90710679       2.77966006       7.23287650       0.01895454       0.00543640       0.00002685
