50
Lattice="12.336457 0.0 0.0 -6.168228499999997 10.683685154694365 0.0 0.0 0.0 15.0" Properties=species:S:1:pos:R:3:forces:R:3 energy=-430.50353231314483 free_energy=-430.50353231314483 stress="-0.001920759932239841 0.003566671751633772 -2.8928891407552855e-07 0.003566671751633772 -0.0007728663849290374 -9.356018145069777e-06 -2.8928891407552855e-07 -9.356018145069777e-06 5.197010829723626e-06" pbc="T T T"
C        0.03118897      -0.01104901       3.89618182       0.00477807       0.01322788      -0.00702475
C       -1.19311411       2.12829577       3.61291169      -0.00479741       0.00280831      -0.00246026
C       -2.47520168       4.26740662       3.58854532       0.00626090      -0.00829630      -0.00581818
C       -3.70368759       6.39663796       3.79472433      -0.00388739      -0.00148803       0.00448108
C       -4.92560959       8.52287007       3.97714059      -0.00567443       0.00502793      -0.00875156
C        2.50124162      -0.00676672       3.94276972       0.00977299       0.00069233      -0.00526594
C        1.29739269       2.08580942       3.58872289       0.00368227      -0.00285282      -0.00226359
C       -0.13452115       4.30159952       3.01889031       0.00696126      -0.00072246       0.01295996
C       -1.29237516       6.43105997       3.28565052      -0.00694913       0.00381236       0.00637379
C       -2.45150055       8.52918192       3.73761113      -0.00644411      -0.00090714      -0.00656466
C        4.96155728      -0.02784879       3.85579703      -0.01066399      -0.00043309      -0.00016909
C        3.78509855       2.09621304       3.97126338       0.00247122      -0.00074020       0.01612603
S        1.34689061       6.45450101       2.45370201       0.00624407       0.00495049      -0.01368716
C        0.00798265       8.53779965       3.50619647       0.00275880       0.00689793       0.01132873
C        7.43302506      -0.02084544       3.80738911      -0.01030794       0.00005039       0.00275936
C        6.22100465       2.10012059       3.95802403      -0.00291843      -0.00667144      -0.00188985
C        5.01724689       4.19029496       4.14073681       0.00110229       0.00309355       0.00438467
B        3.68833675       6.35710956       4.33644925       0.00838565       0.00238085      -0.00368160
C        2.48240357       8.53138899       3.75968099       0.00355068       0.00367859      -0.00459818
C        9.90605170      -0.00970732       3.86035559       0.00462377      -0.00863697      -0.00229594
C        8.67690195       2.12111911       3.81514377      -0.00027650      -0.00168018       0.00193642
C        7.43329578       4.25233366       3.93313812      -0.00338067       0.00328537      -0.00080915
C        6.17441115       6.36366410       4.08206559      -0.00000698      -0.00036308      -0.00515360
C        4.93715754       8.51885954       4.02951952       0.00385163      -0.00980329       0.00500864
C        0.04882528       1.42283127       3.69572548      -0.00297248       0.01328221      -0.01008062
C       -1.25366341       3.54019010       3.40258366       0.00740773      -0.00403919       0.00270004
C       -2.49238343       5.69393136       3.55379843      -0.00344422      -0.00566117       0.00396773
C       -3.69443582       7.81891824       3.84528128      -0.00855913       0.00054992      -0.00503191
C       -4.91046365       9.95779551       3.95549285       0.00478673       0.01117407      -0.00131130
C        2.52837180       1.42804515       3.88480824       0.00760658      -0.00154136       0.00121881
S        1.43257908       3.61951822       2.80318639      -0.00261781      -0.01163962       0.00784984
C       -0.15640003       5.69169084       2.92504543      -0.00771144      -0.00299495       0.00546849
C       -1.23759296       7.83829041       3.47345519       0.00222590       0.00778844       0.00759535
C       -2.44185172       9.95556537       3.87022276      -0.00052663      -0.00694188       0.00320688
C        4.98032135       1.39791818       3.95222006      -0.00300085      -0.00560645       0.00790441
O        3.84256171       3.46238511       4.18697732       0.00394014      -0.00041385       0.01463052
C        1.25634390       7.87708136       3.41055192       0.00626174       0.00215065      -0.00584185
C        0.02504006       9.94922188       3.73812729      -0.01156226       0.00752408      -0.00124312
C        7.44214953       1.40305965       3.87512472      -0.00208550      -0.00359714      -0.00359681
C        6.22252917       3.51027931       4.02609430      -0.00362736      -0.00245114      -0.00940633
C        4.97766047       5.59617652       4.19499119       0.00146351       0.00375933       0.00322541
C        3.68656313       7.82921561       4.00959247       0.00107724      -0.00094717       0.00454833
C        2.49648293       9.96199850       3.81518747      -0.00527409       0.00096454      -0.00355784
C        9.91841367       1.41774542       3.77007484      -0.00139136      -0.00555527       0.00067365
C        8.65936071       3.54487303       3.79379181       0.00062395       0.00097250      -0.00166151
C        7.41463179       5.67079748       3.95105179      -0.00356509       0.00306640      -0.00159262
C        6.17009802       7.79836954       4.05551762       0.00063854      -0.00674177      -0.00764951
C        4.96219219       9.95855297       3.93344479       0.00981228      -0.00741746      -0.00164064
Pd       2.08884967       5.22639862       4.76656037       0.00464021      -0.00516349      -0.00747145
O        0.90564920       6.46048728       5.47580738      -0.00328293       0.01216878       0.00217090
