49
Lattice="12.336457 0.0 0.0 -6.168228499999997 10.683685154694365 0.0 0.0 0.0 15.0" Properties=species:S:1:pos:R:3:forces:R:3 energy=-433.4323894660382 free_energy=-433.4323894660382 stress="-0.005858594651497207 0.0005424473812628333 -6.60373666997827e-06 0.0005424473812628333 0.0013962708061031072 1.0377970634943523e-05 -6.60373666997827e-06 1.0377970634943523e-05 -6.705554115129821e-07" pbc="T T T"
C       -0.00489760       0.01562321       3.86237294       0.00182928       0.00077860       0.00087291
C       -1.24764041       2.12533983       3.97659496       0.00611506      -0.00656765       0.01240713
C       -2.47673064       4.26960225       4.09189174      -0.00252105      -0.00791566       0.00482202
C       -3.70196628       6.41909898       4.02800920       0.00162865       0.00035973       0.00386489
C       -4.93996123       8.56359899       3.89782381      -0.00093379       0.00425056       0.00787142
C        2.45506714       0.03932498       3.84081800       0.00461657      -0.00117707      -0.00355241
C        1.20322729       2.20322297       3.69867670      -0.00207541       0.00706870       0.00324314
C       -0.03498878       4.25293649       3.93735405       0.00250414       0.00333166       0.00373609
C       -1.26325888       6.42241450       4.11355760       0.00378737       0.00419750       0.00720016
C       -2.48450306       8.56751078       4.03385375      -0.00757831      -0.00336330      -0.00482801
C        4.92655268       0.00252811       3.85529748      -0.00236284      -0.00723683      -0.01346400
C        3.70555838       2.06837578       3.32293244      -0.00227656      -0.00472446      -0.00703390
N        1.08250260       6.41805292       3.70510006      -0.00558137       0.00148515      -0.00064836
C       -0.02133140       8.53320402       3.96347034      -0.00282309      -0.00092489      -0.00677830
C        7.39474243      -0.02659988       3.88065525       0.00000418       0.00345630      -0.01133033
C        6.18585944       2.11357556       3.62301762      -0.00426063       0.00141566      -0.00306021
C        5.14528947       4.27895027       3.06361043       0.00203534      -0.00287276       0.00006137
B        3.79712591       6.40891918       3.21788335      -0.00285365       0.00724111       0.00683380
C        2.44526691       8.50400153       3.73263790       0.00809139      -0.00500021       0.00220046
C        9.85582323      -0.02491432       3.88514943       0.00093733       0.00153621       0.00077980
C        8.62979438       2.11924521       3.94039671       0.00296199      -0.00617979       0.00798224
C        7.43612021       4.26766825       3.81183399      -0.00252053       0.00114324      -0.00265945
C        6.22471798       6.41882065       3.63250185      -0.00440729      -0.00361935       0.01306538
C        4.93747315       8.54795270       3.70992995       0.00530865       0.00530445       0.00682647
C       -0.00994500       1.44442607       3.86600247       0.00524549      -0.00080378       0.00146118
C       -1.25954257       3.54431077       4.05268055       0.00443511      -0.00675708       0.01367407
C       -2.48069588       5.69755327       4.11813201       0.00267707      -0.00170709      -0.00272152
C       -3.71107781       7.84979965       4.00583183      -0.00487317       0.00013702      -0.00476388
C       -4.93998733       9.99462332       3.88201292       0.00468589       0.00397023      -0.00330939
C        2.45924528       1.46703591       3.62269523      -0.00455911       0.00059210      -0.01262021
N        1.10354468       3.56299230       3.67269819      -0.00499438       0.00898156       0.00170788
C       -0.04828046       5.70922447       3.97089529       0.00347814       0.00454390       0.00702653
C       -1.25334555       7.84538111       4.06405171      -0.00432946       0.00368875       0.00174904
C       -2.48327358       9.99677300       3.92110857      -0.00053105      -0.00821866       0.00149432
C        4.94133185       1.41478914       3.61112711      -0.00457372      -0.00271729       0.00377616
S        3.82802134       3.45394112       2.27341737       0.00106441       0.01223986      -0.00275953
C        1.19301381       7.78325602       3.80266549       0.00153599       0.00012198       0.00759030
C       -0.00923675       9.95698722       3.91577967      -0.00117466      -0.00047872      -0.01335369
C        7.39675489       1.40471362       3.83721062      -0.00149742       0.00402731      -0.00029439
C        6.24478395       3.53267644       3.50557646      -0.00016891      -0.00041774      -0.00023428
C        5.08646755       5.66741843       3.24929705      -0.00050058      -0.00725451       0.01378686
C        3.69185836       7.85394438       3.57517613       0.00962737      -0.00161232      -0.00428181
C        2.45092220       9.93425507       3.85499445       0.00211617      -0.00097385      -0.00807688
C        9.85664500       1.40192930       3.96349330       0.00608886      -0.00393034      -0.00690556
C        8.63953483       3.54706418       3.98560209      -0.00542418      -0.00560020      -0.00334621
C        7.43128288       5.69782369       3.84675369       0.00087221       0.00210416      -0.00682186
C        6.17526488       7.84194823       3.74874289       0.00295215       0.00390625      -0.00498614
C        4.93125169       9.96955449       3.83823958       0.00026040       0.00492079      -0.00477512
Pd       2.39301212       5.09767496       2.94516532      -0.01203804      -0.00074925      -0.00142819
