49
Lattice="12.336457 0.0 0.0 -6.168228499999997 10.683685154694365 0.0 0.0 0.0 15.0" Properties=species:S:1:pos:R:3:forces:R:3 energy=-426.32752930885914 free_energy=-426.32752930885914 stress="-0.00011165730064632476 0.0008424248726908489 -8.830574724949777e-06 0.0008424248726908489 -0.0022800397137281224 -1.4527108515984755e-05 -8.830574724949777e-06 -1.4527108515984755e-05 -2.1227129000381265e-06" pbc="T T T"
C        0.03325808      -0.01702623       3.74642218      -0.00135154       0.01245859       0.00926402
C       -1.20500926       2.11563381       3.48859073       0.00244561      -0.00118397       0.01270509
C       -2.47689269       4.25188379       3.63591177      -0.00694892       0.00031280      -0.00199266
C       -3.70629391       6.38142923       3.87429270       0.00227024       0.00083859       0.00325732
C       -4.92559737       8.51292458       3.92981194       0.00514458       0.00624880       0.00203804
C        2.49435807      -0.01445799       3.83691129      -0.00087397       0.00252316       0.00414852
C        1.28575028       2.05171288       3.32764902      -0.00621751      -0.00132458      -0.00793202
C       -0.11081113       4.26780352       3.02950726       0.00180899       0.00366525      -0.00513638
C       -1.24836738       6.39558487       3.60558166      -0.00160213       0.01187462      -0.00192470
C       -2.45316517       8.51350434       3.87893550       0.00745821      -0.00085273       0.00158384
C        4.95074761      -0.03525712       3.88958692      -0.00437796      -0.00199485       0.00777788
C        3.76026181       2.10050442       3.82061018      -0.00143389      -0.00423831      -0.00176462
S        1.29080267       6.52711516       2.45098719       0.00395118      -0.01419140       0.00595927
C        0.00690577       8.51387530       3.80157417       0.00664369      -0.00370250      -0.00051619
C        7.42057691      -0.01276511       3.83370726      -0.00751657       0.00099459       0.00962320
C        6.19088643       2.10737506       3.91078804      -0.00158533       0.00462872       0.00025462
C        4.95099034       4.19065904       4.04719866       0.00346975      -0.00092837      -0.00039777
B        3.63575607       6.40082106       4.22440144      -0.00061360      -0.00538498       0.00674169
C        2.51785255       8.57420516       3.81096580      -0.00190734      -0.00121344      -0.00044062
C        9.90768254       0.00044611       3.76804443       0.00105617       0.00059674      -0.00090936
C        8.65730397       2.12056243       3.76275737       0.00231256       0.00066151      -0.00351110
C        7.40424233       4.24880620       3.91212109      -0.00976210       0.00169319      -0.00130746
C        6.14465160       6.35778147       4.02877989       0.00190299      -0.00599373      -0.00149301
C        4.96300076       8.53635931       3.93448787       0.00318616       0.00059235       0.00031645
C        0.03920387       1.40517168       3.51510143      -0.00332378       0.00430381       0.00135972
C       -1.25380549       3.53301430       3.37960278       0.00048386      -0.00120555       0.00662511
C       -2.47581636       5.67370467       3.71544327       0.00003572       0.00335044      -0.00320279
C       -3.69287290       7.80326439       3.90758536       0.00666625       0.00217766       0.00104031
C       -4.91084281       9.94683134       3.84533204      -0.00163020       0.01141255       0.00523365
C        2.51549342       1.41513826       3.68657473      -0.00708477       0.00038739      -0.00009332
S        1.33807222       3.53803649       2.44782394      -0.00789995      -0.01692461       0.00056766
C       -0.07102573       5.67108671       3.24210287       0.00076497       0.01124598      -0.01511857
C       -1.21354610       7.80384773       3.77127951       0.00683054       0.00793032      -0.01114613
C       -2.44758755       9.94314743       3.89619783      -0.00082664      -0.00440581      -0.00153996
C        4.95611661       1.39659369       3.89288038      -0.00061355      -0.00136941      -0.00274908
O        3.77549393       3.46721005       3.99729496       0.01266363      -0.00539702      -0.00152748
C        1.27991562       7.81705481       3.70023446       0.00205393      -0.01894135      -0.00207146
C        0.02231961       9.93682109       3.86827280      -0.00547193      -0.00490068       0.00515280
C        7.41960648       1.40937990       3.84538661      -0.00087288       0.00367864      -0.00254374
C        6.17762084       3.51960010       3.96807526      -0.00248185       0.00352948      -0.00024770
C        4.92047521       5.60371335       4.10993737      -0.00001352      -0.00174220      -0.00421359
C        3.71756811       7.87434524       3.95184498      -0.00042914      -0.00273830      -0.00208489
C        2.49475058       9.98492835       3.80007705      -0.00447307       0.00155579      -0.00389875
C        9.90576071       1.41941670       3.67610131       0.00395402      -0.00123154       0.00571876
C        8.63938398       3.54005525       3.77909473      -0.01137186       0.00165708      -0.00682735
C        7.39381446       5.66535179       3.94738405       0.00050066      -0.00265324      -0.00339738
C        6.17183184       7.79145323       3.98162693       0.00570566      -0.00243889       0.00069851
C        4.96695500       9.96706533       3.81723501       0.00324608       0.00462598      -0.00381794
Pd       1.71961690       5.96283597       4.66260551       0.00612859       0.00201343       0.00173959
