50
Lattice="12.336457 0.0 0.0 -6.168228499999997 10.683685154694365 0.0 0.0 0.0 15.0" Properties=species:S:1:pos:R:3:forces:R:3 energy=-430.66119326411285 free_energy=-430.66119326411285 stress="-0.0058176284854246745 0.001656655996941006 -3.0900633291190773e-06 0.001656655996941006 -0.005188053604345365 4.594271742486021e-06 -3.0900633291190773e-06 4.594271742486021e-06 2.313432992755233e-05" pbc="T T T"
C        0.00103599      -0.00346311       3.64477500      -0.00085951       0.00026623       0.00468773
C       -1.22775623       2.13700588       3.51669452       0.00280685       0.00566873       0.00001365
C       -2.47948068       4.27653009       3.65221313       0.00827602      -0.01060420       0.00328637
C       -3.71086778       6.41389941       3.74471877      -0.00400836      -0.00158758       0.00507736
C       -4.94938000       8.53653897       3.68940338       0.00224077      -0.00865996       0.00345397
C        2.45618693      -0.02044474       3.89493862       0.00159551      -0.00313416      -0.00328010
C        1.26845244       2.08033218       3.48931503       0.00025628       0.00010207      -0.00075581
C       -0.09210424       4.33460731       3.33419531       0.00056882      -0.00364975      -0.00188484
C       -1.27569819       6.42164317       3.86041794       0.00033070      -0.00337401       0.00084248
C       -2.47977556       8.54352094       3.95758508       0.00273031       0.00087796       0.00400080
C        4.93367609      -0.00825109       4.08466087      -0.00179345      -0.00662842      -0.01327638
C        3.69169700       2.09942665       4.04542672      -0.00108777       0.00447862      -0.00780538
B        1.13480727       6.40434668       4.16599319       0.00746517      -0.01151973      -0.00022290
C       -0.00642222       8.54714504       4.07864789       0.00653662       0.00936457      -0.01160296
C        7.40808393       0.00309185       4.00930772       0.00061527       0.00127988      -0.00097731
C        6.17975477       2.13067165       4.01629247      -0.00581037      -0.00474349      -0.00490616
C        5.01681622       4.28838111       3.74365031      -0.00059903       0.00934433       0.00402102
S        3.52843538       6.30983076       2.76389847       0.00007552       0.00837811       0.00238087
C        2.47091902       8.55924682       3.84971178      -0.00301398      -0.00142735      -0.00259565
C        9.87586771       0.00372552       3.74160562      -0.00120342       0.00919595       0.00489864
C        8.64609652       2.13165005       3.80002386      -0.00704544       0.00360182       0.00199558
C        7.42520815       4.26754131       3.76051747       0.00331604       0.01186751       0.00265987
C        6.18755740       6.40834173       3.47259020      -0.00729957       0.00343195       0.00159163
C        4.92357691       8.53737886       3.53562028       0.00296157      -0.01073821       0.00179775
C        0.01008688       1.42956194       3.53537154      -0.00084630       0.00647130       0.00187685
C       -1.25413871       3.55811801       3.46808050       0.00891787      -0.00443725       0.00275668
C       -2.49148682       5.69895181       3.75651603      -0.00344447      -0.01111413       0.00355742
C       -3.71228757       7.83491040       3.79846981       0.00375841      -0.00250468       0.00378278
C       -4.94210314       9.96294058       3.74167338       0.00001801      -0.00646412       0.00703944
C        2.46269740       1.40764742       3.85159536       0.00192199      -0.00034645      -0.00188665
S        1.40605393       3.65477258       2.76020129      -0.00273880      -0.00353933       0.00087706
C       -0.08332106       5.67826825       3.73423108       0.00111194      -0.00905425       0.00511905
C       -1.24606708       7.83588192       4.01107802       0.00542178       0.00599380      -0.00155866
C       -2.47453911       9.96362193       4.00913556       0.00046477      -0.00264302       0.00071755
C        4.93983753       1.41958473       4.08231945      -0.00650464      -0.00793425      -0.00831713
B        3.79751342       3.56257025       4.17304069      -0.00605788       0.00974609       0.00029962
C        1.24162994       7.86738464       4.04100408      -0.00010392      -0.00637917      -0.00728846
C       -0.00025426       9.97493673       4.08348877       0.00310084       0.00788869      -0.00972073
C        7.41354122       1.42318612       3.96021144      -0.00456005      -0.00212491       0.00440300
C        6.20943301       3.54499570       3.86743967       0.00078585       0.00473411       0.00169459
C        5.02551178       5.63142013       3.34184931      -0.00104540       0.00410045      -0.00371388
C        3.66543570       7.88626633       3.48957814      -0.00014424      -0.00029319      -0.00090456
C        2.47734162       9.98729863       3.89380808      -0.00039358       0.00214009      -0.00041348
C        9.88303372       1.42998932       3.68946115      -0.00177949       0.01329221       0.00399001
C        8.64463283       3.55260505       3.74545913       0.00268224       0.00245278       0.00786162
C        7.41310623       5.68992816       3.65496641      -0.00856261       0.01025599       0.00499695
C        6.16123655       7.82960693       3.51796255       0.00144054      -0.00629785       0.00123791
C        4.93285599       9.97048883       3.64435603      -0.00251440      -0.00454070       0.00784574
Pd       2.46555224       4.98342239       4.38581772       0.00048901       0.00090187      -0.01296896
O        2.45427984       4.96762945       6.48969293       0.00152797      -0.00209497      -0.00468399
