49
Lattice="12.336457 0.0 0.0 -6.168228499999997 10.683685154694365 0.0 0.0 0.0 15.0" Properties=species:S:1:pos:R:3:forces:R:3 energy=-438.5547621709658 free_energy=-438.5547621709658 stress="-0.008978521930312844 0.0026432431755236485 -2.8282467862593987e-06 0.0026432431755236485 0.0016564111257186837 -2.0926478588273698e-06 -2.8282467862593987e-06 -2.0926478588273698e-06 -1.3772000517254746e-06" pbc="T T T"
C       -0.00271088       0.01999239       3.73269235       0.00074524      -0.00503468       0.00966422
C       -1.24161963       2.12738421       3.63949788      -0.00709420      -0.00401246      -0.00290375
C       -2.47358833       4.27203864       3.52507584      -0.01485300      -0.00396588      -0.01235716
C       -3.70824605       6.42436950       3.54301015       0.00432618      -0.00073398       0.00462731
C       -4.94265284       8.57274692       3.67441056       0.00670625       0.00711394       0.00198513
C        2.46581546       0.06285222       3.79329248      -0.00818881      -0.00410871      -0.00027996
C        1.22931270       2.20862225       3.87933879       0.00474262      -0.00994537       0.00471787
C       -0.04512207       4.28382340       3.77367397       0.00687027       0.00927134      -0.00392831
C       -1.27869439       6.44071067       3.64050901       0.00052992       0.00419426      -0.00122782
C       -2.49075429       8.57891329       3.67437828      -0.00555971      -0.00077028       0.01163412
C        4.93360556       0.00787068       3.76103097      -0.00722985       0.00922014      -0.00199142
C        3.74719367       2.18591727       3.92379899      -0.00059750       0.00476702      -0.00363586
N        1.07194918       6.42143673       4.03614301       0.00343236      -0.00456060      -0.00667709
C       -0.02607125       8.53677750       3.78515589       0.00464601      -0.00831212      -0.00383881
C        7.40656168      -0.03521454       3.71722523       0.00938312       0.00884512       0.00742627
C        6.19805360       2.10359333       3.66337404       0.00283850       0.00361050      -0.00249305
C        5.02594214       4.21209771       3.79225998       0.00596163      -0.00545688      -0.01265416
B        3.75578925       6.34664971       4.05464809      -0.00961845      -0.00331349       0.00736143
C        2.44956371       8.49846008       3.88086902      -0.00305249      -0.00706296       0.00443072
C        9.86173212      -0.02823200       3.70415050       0.00940445      -0.00215791       0.00273867
C        8.64506027       2.11070562       3.56789882      -0.00692782       0.00462341       0.00169766
C        7.43181029       4.26037537       3.52373968      -0.00638450       0.00180907       0.00904131
C        6.19293780       6.40608952       3.65990677       0.00384265       0.00233564      -0.00380656
C        4.93263844       8.53830634       3.77993876       0.00662203      -0.00240225       0.01615076
C       -0.00907039       1.44457128       3.74390344      -0.00074059      -0.00864810       0.00718795
C       -1.26414941       3.54910876       3.60487374      -0.00492479       0.00355320      -0.00942945
C       -2.48466798       5.70669882       3.54240519       0.00079787      -0.00266379       0.00532221
C       -3.71511259       7.85726816       3.61928739       0.00118440      -0.00121687       0.00211569
C       -4.93407537      10.00682618       3.73793726      -0.00041016      -0.00204145       0.00668495
C        2.48069576       1.49419763       3.89674482       0.00441622      -0.00744246      -0.00226844
C        1.11417981       3.59055463       3.98180287      -0.00084148      -0.00618936       0.00057887
C       -0.06409778       5.73290287       3.79412381       0.00298949       0.01035766      -0.01004860
C       -1.26315572       7.85629033       3.69544787      -0.00056242       0.00298981      -0.00460499
C       -2.48064835      10.00688023       3.75128457      -0.00999235       0.00031610       0.00205297
C        4.96091016       1.42371795       3.77847155      -0.00313824       0.01135982      -0.01455424
N        3.88805617       3.53276920       4.06924629       0.00346101       0.00349536      -0.00540329
C        1.19103437       7.77792490       3.90925269       0.00227154      -0.01283474       0.00078873
C       -0.00318362       9.95513407       3.75409358       0.00292884      -0.00099546      -0.00703063
C        7.42081239       1.38727113       3.63119003       0.00251199       0.00809232      -0.00108116
C        6.23212343       3.51348760       3.60932563       0.00415797      -0.00304886      -0.00524131
C        5.02182778       5.63450077       3.79326670       0.00116425      -0.00460650      -0.00393953
C        3.68988907       7.83146065       3.90132430      -0.00237387      -0.00111233       0.00393284
C        2.45870826       9.92770533       3.76204593       0.00854904      -0.00090340      -0.00422861
C        9.86530778       1.39599193       3.61886284      -0.00945915       0.00115486       0.00466277
C        8.64946894       3.54240743       3.50944247      -0.01620588      -0.00144264      -0.00729657
C        7.41981037       5.69358125       3.54527200       0.00119105       0.00019733      -0.00525342
C        6.16644400       7.83864285       3.70256244       0.00961164       0.00607521       0.00442722
C        4.93362507       9.96677433       3.73079004       0.00661149      -0.00490164       0.01341577
Pd       2.46415500       4.95559402       4.54574307      -0.00374279       0.01650306       0.00352873
