51
Lattice="12.336457 0.0 0.0 -6.168228499999997 10.683685154694365 0.0 0.0 0.0 15.0" Properties=species:S:1:pos:R:3:forces:R:3 energy=-445.25979013510556 free_energy=-445.25979013510556 stress="-0.003732873804852356 -0.001056973865981336 7.953487770736079e-06 -0.001056973865981336 -0.006621004654502444 -5.948854112842624e-06 7.953487770736079e-06 -5.948854112842624e-06 2.000861396924178e-05" pbc="T T T"
C       -0.05797581      -0.01293722       3.75224315       0.00196614       0.00167978       0.00098758
C       -1.30522754       2.10995301       3.91061952       0.00650431      -0.00159322      -0.00271070
C       -2.54352421       4.25791816       3.92399400      -0.00146525      -0.00163981       0.01458307
C       -3.76194917       6.39533051       3.78898796      -0.00441409       0.00150071       0.00354120
C       -4.99135199       8.53079173       3.67289945      -0.00033353       0.00586006      -0.00016351
C        2.41146394      -0.01933938       3.81963545      -0.00402910       0.00116136       0.01600995
C        1.16899044       2.10582273       3.98422516      -0.00157649      -0.00665898       0.00530215
C       -0.10192452       4.21043230       4.11281883       0.00311298       0.00113093      -0.00187106
C       -1.29133811       6.39180281       3.95258304       0.00001119       0.00317442      -0.00025574
C       -2.51498534       8.52622958       3.80967486       0.00502713      -0.00111716      -0.00036652
C        4.87862254      -0.01472625       3.78088142      -0.00487404       0.00362716       0.00137756
C        3.64052073       2.12106101       3.83920483      -0.00329422       0.00314444       0.01236450
B        2.41702324       4.34682668       4.20479973       0.00133885      -0.00659609      -0.00813527
P        1.52915393       6.24877272       4.10473953       0.00965735      -0.00672426       0.00146355
C       -0.04556516       8.53648652       3.73859284       0.00145514       0.00059248       0.01012155
C        7.33863236       0.00773739       3.68284869       0.00298845      -0.00436401      -0.00061293
C        6.10813299       2.12142477       3.76011817       0.00256936       0.00379762       0.00552678
C        4.88775815       4.23757134       3.62036673      -0.00093622      -0.00339203       0.00255067
P        3.45867420       6.27950621       2.54102424       0.00565794      -0.00043445       0.01394250
C        2.42482675       8.61463513       3.39387063      -0.00820445      -0.00599540       0.00196127
C        9.81898927       0.01419158       3.63991355       0.00767446       0.00009022       0.00233720
C        8.57042731       2.13065202       3.80350392      -0.00079321       0.00452115      -0.00997780
C        7.34370809       4.26432922       3.75214459      -0.00722279       0.00481173      -0.00153226
C        6.11173544       6.40255802       3.51036816      -0.00370035      -0.00225634       0.01010603
C        4.89036690       8.56008400       3.39855712       0.00238441      -0.00137704      -0.00423018
C       -0.06751237       1.39847268       3.89576227       0.00195199      -0.00335967      -0.00293922
C       -1.33191953       3.52153749       4.00558210       0.00533677      -0.00082312      -0.00123668
C       -2.53321780       5.68344068       3.90311152      -0.00201882       0.00083567       0.00182117
C       -3.75546204       7.81940687       3.76347578       0.00096998       0.00308422      -0.00317685
C       -4.99088575       9.95378058       3.75080926      -0.00230439       0.00595522      -0.00461513
C        2.40949909       1.39877628       3.89353584      -0.00318008      -0.00081217       0.01131412
C        1.12697088       3.51291052       4.12323735       0.00152251      -0.00646014      -0.00196714
C       -0.10483508       5.62510313       4.09006633      -0.00272430       0.00062830      -0.00799818
C       -1.27713441       7.81603757       3.84671771       0.00600786       0.00170231      -0.00239380
C       -2.52073262       9.95159900       3.80083567      -0.00385761       0.00035315       0.00014706
C        4.87669152       1.40631771       3.78674172      -0.00125042       0.00680176      -0.00465584
C        3.67344292       3.54494676       3.80775596      -0.00077383       0.00132801       0.00203499
C        1.22107606       7.89471139       3.60411373      -0.00686948      -0.00946318       0.00214470
C       -0.05640564       9.96460449       3.72468056      -0.00275161       0.00080994      -0.00602720
C        7.33909660       1.42088154       3.75504083       0.00206391      -0.00107551      -0.00883566
C        6.12159306       3.53939706       3.70503158      -0.00247624       0.00243575      -0.00432934
C        4.89159384       5.65984410       3.44479487       0.00455463      -0.00817179      -0.01441534
C        3.64654914       7.92446430       3.17868861      -0.00247170       0.00381452       0.00423572
C        2.41271788      10.01646905       3.55615977       0.00471376      -0.00490100      -0.00444367
C        9.80437802       1.41850066       3.79471109       0.00398518       0.00450683      -0.01127295
C        8.56651469       3.55173264       3.84080403      -0.00656258       0.00570660      -0.00451809
C        7.34115088       5.68955791       3.69563317      -0.00717966       0.00069018      -0.00071526
C        6.11752798       7.82557019       3.50680896       0.00086663      -0.00161973       0.00094737
C        4.88276728       9.97781687       3.60102576       0.00753914      -0.00004750      -0.00659416
Pd       3.11965114       5.85695051       5.39732812       0.00365300       0.00131200       0.00929892
O        4.58864217       5.88155658       6.37955981      -0.00824857       0.00382609      -0.01412912
