49
Lattice="12.336457 0.0 0.0 -6.168228499999997 10.683685154694365 0.0 0.0 0.0 15.0" Properties=species:S:1:pos:R:3:forces:R:3 energy=-435.1502994972322 free_energy=-435.1502994972322 stress="-0.007611584316745164 0.0021587389318796094 3.9506411795991575e-06 0.0021587389318796094 -0.0030763232491729828 8.097770420353732e-06 3.9506411795991575e-06 8.097770420353732e-06 6.401591491424713e-07" pbc="T T T"
C       -0.00032085       0.00318193       3.73832968       0.00136812       0.00045113      -0.00890300
C       -1.23310378       2.12952768       3.62904887       0.00069587       0.00118614       0.00055034
C       -2.49153889       4.27457302       3.45746338       0.00252523      -0.00269218      -0.00009781
C       -3.71692771       6.42014070       3.50145067      -0.00128100      -0.00440260      -0.00514790
C       -4.94065590       8.55702605       3.66132821       0.01077915       0.00727903      -0.00357435
C        2.47472657       0.02437387       3.78748753       0.00201462       0.00346960      -0.00537072
C        1.24478881       2.12620318       3.92109081       0.00375055      -0.00119740       0.00187191
C       -0.10178450       4.29720208       3.76935962      -0.00495545       0.00966560       0.01485205
C       -1.28039375       6.43346544       3.66029014       0.00078179       0.01242589      -0.00521912
C       -2.48127445       8.56577307       3.66918507       0.00015657      -0.00464863       0.00130752
C        4.93724532       0.00989219       3.73137101      -0.00947897      -0.00521528      -0.00249308
C        3.74280576       2.18228745       3.91292325       0.00172617      -0.00452099      -0.00342785
B        1.20519998       6.37000821       4.20970547       0.01469445      -0.01207354      -0.00082215
C       -0.01179124       8.55039376       3.82913399       0.00422665       0.00601403      -0.00530960
C        7.40778752      -0.00992342       3.68819515       0.00214643       0.00903664       0.00589201
C        6.18751889       2.11464548       3.60000659      -0.00206390       0.00086563      -0.01107725
C        4.99166692       4.21319293       3.76112589      -0.00987875      -0.01126919      -0.00673987
B        3.71078538       6.35001074       4.08259614       0.00118802      -0.00766478      -0.01219684
C        2.46362903       8.55249712       3.92415364      -0.00904440      -0.00226808      -0.00149941
C        9.87193833      -0.00575162       3.69157443       0.00709872       0.00238035      -0.01157525
C        8.64395587       2.12282337       3.50195384       0.00321063      -0.00163405      -0.00320047
C        7.40892321       4.26456461       3.45382434       0.00230778       0.00042250       0.00159331
C        6.17468128       6.40258375       3.63397179      -0.00728203       0.00355722       0.00080429
C        4.93279731       8.53979450       3.79223444      -0.00258600      -0.00235783       0.00168357
C        0.00140602       1.43141476       3.76326287       0.00005300      -0.00221742       0.00089374
C       -1.26918711       3.54964546       3.57263387       0.00145978       0.00051804       0.00468324
C       -2.49731387       5.70520422       3.49845377       0.00119668       0.00043505       0.00934506
C       -3.71141691       7.84808050       3.59836229       0.00485019      -0.00734552       0.00425157
C       -4.93148186       9.98499372       3.73695307       0.00675457       0.00563221       0.00026828
C        2.48626066       1.45129604       3.90419062       0.00376853      -0.00051146       0.00480672
B        1.17742726       3.60206559       4.10899061      -0.00237022       0.00075643      -0.00221946
C       -0.09971983       5.69531878       3.83158587      -0.00096489       0.01025869       0.00190136
C       -1.25587623       7.85311469       3.72542982       0.00579691       0.01135169      -0.01174558
C       -2.47083614       9.98933879       3.73547951      -0.00767923      -0.00751869       0.00448042
C        4.95553454       1.42952033       3.73449908      -0.00122978      -0.00355035       0.00183334
N        3.86339499       3.52671478       4.06723873      -0.00962861      -0.00774830      -0.00449251
C        1.22476361       7.86026449       3.99279320      -0.00445807      -0.00716589       0.01646946
C       -0.00095821       9.97299542       3.73973650      -0.00166502       0.00669020       0.01144946
C        7.41720003       1.40636929       3.56911296       0.00143439       0.00538834      -0.00062518
C        6.20522621       3.52335149       3.54855074      -0.00174582      -0.00022781      -0.00680853
C        4.98721660       5.64429073       3.77674121      -0.00207448      -0.01142739       0.01271542
C        3.69408541       7.84820085       3.93973347      -0.00827626      -0.00684284      -0.01075880
C        2.47057992       9.97224563       3.75970429       0.00336083       0.00554603      -0.00077478
C        9.87463688       1.41373234       3.58087785       0.00252917       0.00508641       0.01092398
C        8.63434647       3.54961865       3.43024377       0.00401687      -0.00359371       0.00287241
C        7.40207473       5.69361271       3.49331073      -0.00836961       0.00268297      -0.00228647
C        6.16459543       7.83277090       3.69323613       0.00383240       0.00846034       0.00351689
C        4.93703307       9.97023523       3.73488563       0.00199553      -0.00077069       0.00413362
Pd       2.47774257       4.93566767       4.81090899      -0.00468709      -0.00069551       0.00326599
