49
Lattice="12.336457 0.0 0.0 -6.168228499999997 10.683685154694365 0.0 0.0 0.0 15.0" Properties=species:S:1:pos:R:3:forces:R:3 energy=-433.2872797166864 free_energy=-433.2872797166864 stress="-0.008390794763664763 0.000661257410994906 4.817608076868472e-06 0.000661257410994906 -0.0014684291138658049 4.3550109253310425e-08 4.817608076868472e-06 4.3550109253310425e-08 3.6661350326119343e-06" pbc="T T T"
C        0.00572611       0.01301280       3.79742867      -0.00160966       0.00476801       0.00258168
C       -1.24696122       2.11368754       3.99339365      -0.00779745       0.00775615      -0.00785447
C       -2.49308647       4.26629282       3.97061871       0.00240554      -0.00468142       0.00215862
C       -3.70843127       6.41588365       3.77658256       0.00677427       0.00037814       0.00799514
C       -4.94045767       8.56016100       3.65332922       0.00347676      -0.00648712       0.00417506
C        2.46613516       0.05786706       3.78178298       0.00266208      -0.00534195       0.00742657
C        1.21791497       2.18964598       3.95098271       0.00477509       0.00124882       0.00219369
C       -0.07852683       4.22289280       4.13619076      -0.00237662      -0.00105396      -0.00086967
C       -1.27352839       6.41249208       4.01385924      -0.00415558       0.00479251       0.00236713
C       -2.47986859       8.56532857       3.84267372      -0.00634126       0.00359798      -0.00128669
C        4.92952050       0.01133817       3.79708583      -0.00433389      -0.00582193      -0.00076725
C        3.73110748       2.19023065       3.66177461      -0.00187349       0.00246916      -0.00489286
B        1.17506955       6.39935118       4.02379416       0.01003220      -0.00365640       0.00879810
C       -0.01356217       8.55035874       3.90477306       0.00156276       0.00035095      -0.00510310
C        7.40422723      -0.01352046       3.84464747      -0.00415827       0.00409044       0.00044538
C        6.19331545       2.10927575       3.66974687       0.00373555      -0.00739710       0.00288541
C        5.03483524       4.20827544       3.29948702      -0.00293971      -0.00357549      -0.00711199
S        3.61117563       6.38054260       2.54185045       0.01113699       0.00534105       0.00002605
C        2.47096706       8.54596414       3.71615017       0.00410990       0.00149507      -0.00831706
C        9.87500421      -0.01366628       3.82364174      -0.00334253      -0.00166400       0.00213307
C        8.64011881       2.11999682       3.86092757       0.00462624      -0.00539350       0.00304574
C        7.43290671       4.26250564       3.65203594       0.00745914       0.00709018      -0.00495234
C        6.19824189       6.40171253       3.39419788      -0.00459859       0.00588232       0.00288663
C        4.94113147       8.54987807       3.51638737      -0.00205142      -0.00657153       0.00098342
C       -0.00444647       1.43131756       3.93228225      -0.00514388       0.00985530       0.00705907
C       -1.29111771       3.52133741       4.07605269      -0.00112085       0.00364987      -0.00332366
C       -2.49762726       5.69667341       3.94054656       0.00279814      -0.00587749       0.00555592
C       -3.70828769       7.84695663       3.75572386       0.00313739      -0.00483368       0.00337331
C       -4.92966639       9.99922912       3.74075773       0.00275499      -0.00610437       0.00982519
C        2.47109949       1.49803814       3.80350461       0.00361648      -0.00407466      -0.00695584
N        1.10443122       3.54674094       4.10941888      -0.00044880      -0.00394778      -0.00424108
C       -0.09113879       5.64344949       4.11002689      -0.00505596      -0.00047727      -0.00133249
C       -1.25074026       7.84157854       3.93398409      -0.00484784       0.00922694      -0.00683490
C       -2.47773747       9.99918242       3.80168007      -0.00262569      -0.00354887       0.00548294
C        4.94997243       1.42726277       3.69529062      -0.00241870      -0.00419358       0.00456200
N        3.86466458       3.53491648       3.47218033      -0.01071589       0.00956871       0.00988239
C        1.23466963       7.86323628       3.85960428       0.00772017      -0.00284682      -0.00761605
C       -0.00724153       9.97437150       3.85291776      -0.00277673      -0.00056469      -0.01462704
C        7.41418202       1.40350879       3.80017187       0.00568046      -0.00216883       0.00302396
C        6.24186309       3.51447097       3.51572754       0.00552478      -0.00217620      -0.00453162
C        5.05824185       5.61830037       3.12589300      -0.00497124       0.00073702       0.00221113
C        3.68562249       7.89527479       3.38614042       0.00057695      -0.01178273      -0.00348715
C        2.47467222       9.96904969       3.81664503      -0.00483600       0.00507391       0.00242567
C        9.86557831       1.40499571       3.91173345      -0.00148253       0.00005939      -0.00205376
C        8.63781406       3.54545271       3.84151543       0.00530021      -0.00584471       0.00526831
C        7.42094059       5.68968053       3.61294136       0.00123186       0.01212499      -0.00426301
C        6.17371849       7.83787564       3.48352302      -0.00283679       0.00089387       0.00947845
C        4.94111845       9.97080767       3.72997343      -0.00419022      -0.00229403      -0.00443396
Pd       2.50383308       4.98533429       4.02314201      -0.00204836       0.01192932      -0.01339405
