50
Lattice="12.336457 0.0 0.0 -6.168228499999997 10.683685154694365 0.0 0.0 0.0 15.0" Properties=species:S:1:pos:R:3:forces:R:3 energy=-442.26514766803706 free_energy=-442.26514766803706 stress="-0.004611301383246299 0.000346826783562991 1.7409612721403881e-06 0.000346826783562991 -0.0019311212758325606 1.8700058028532236e-05 1.7409612721403881e-06 1.8700058028532236e-05 1.920145682524949e-05" pbc="T T T"
C        0.01997970       0.01909247       3.64877716      -0.00984917      -0.00707995       0.00433606
C       -1.22997439       2.14662123       3.78307248      -0.00313813      -0.00496317      -0.00035253
C       -2.46489760       4.29604437       3.60928684       0.00264843       0.00919614      -0.00066691
C       -3.68030071       6.43929648       3.48526454      -0.00405500       0.00260936       0.00153981
C       -4.91239602       8.57889525       3.53082228      -0.00187673       0.00386700       0.00518271
C        2.48676836       0.05604558       3.72072402       0.00183579       0.00310955       0.00197695
C        1.23273504       2.10566840       4.09659998      -0.00224317      -0.00534946      -0.00310333
C       -0.10031496       4.29036304       4.19323837       0.00382908       0.00383580      -0.01724626
C       -1.24086755       6.43618451       3.79864019      -0.00421706      -0.00088627       0.00264664
C       -2.45215674       8.58395924       3.64056850       0.00627671      -0.00609461      -0.00416134
C        4.94644475       0.04330161       3.69513506       0.00442779       0.01024616       0.00725032
C        3.74372726       2.23188833       3.90637278       0.00505475      -0.00090532      -0.00876682
B        1.24351189       6.42723758       4.30692619      -0.00272608      -0.00895340       0.00376815
C        0.01045211       8.57867940       3.82200588      -0.00013201      -0.00173088      -0.00580808
C        7.41849255       0.02096295       3.63413630       0.00029141       0.00346041       0.00125881
C        6.19280093       2.14761419       3.55666491      -0.00366246       0.00339583      -0.00106280
C        4.99574708       4.24607387       3.66965565       0.00136792      -0.00382710      -0.00036348
B        3.76564169       6.40764752       3.98559274       0.00895739       0.00857463      -0.00453665
C        2.48478664       8.58289861       3.82305525       0.00190265       0.00303735      -0.00084664
C        9.88800750       0.02022621       3.61053120       0.00244915      -0.00829420       0.00118155
C        8.65736504       2.15207932       3.52015788      -0.00544688       0.00570997       0.00817377
C        7.43254610       4.28936327       3.41922554      -0.01050013       0.00186053      -0.00010023
C        6.20091626       6.42770801       3.49721335      -0.00024699      -0.00053548       0.01380681
C        4.95523073       8.56833170       3.61704450       0.01001741      -0.00278408       0.00950571
C        0.01738244       1.43555016       3.83699038      -0.00419152      -0.00801909      -0.00567674
C       -1.25596222       3.57541388       3.85891556       0.00732051       0.00193786      -0.01572889
C       -2.45983615       5.72271440       3.60270277      -0.00396646       0.00765985       0.01035626
C       -3.67951005       7.86788067       3.53666323       0.00001897       0.00161268      -0.00384154
C       -4.90878186      10.00820971       3.62411704      -0.00570970       0.00319565       0.00890238
C        2.47501535       1.48916150       3.92306772       0.00205739       0.00882398      -0.00964193
B        1.05074475       3.44428313       4.84871553       0.00066641      -0.01030301      -0.00817160
C       -0.06904346       5.67962776       4.09153500      -0.00452602       0.00111314      -0.01263457
C       -1.22516398       7.86435945       3.75721774       0.00300663      -0.00851439       0.00137152
C       -2.45556496      10.01593869       3.68347877       0.00614764       0.00068270       0.00096481
C        4.95131333       1.47048631       3.70217502       0.00297245       0.00684695       0.00387817
N        3.86252139       3.58701095       4.01701183       0.00871980      -0.00875007      -0.00571299
C        1.25162601       7.89268591       3.97215204       0.00029674      -0.00445182      -0.00649062
C        0.01068037      10.00378501       3.70195585       0.00078371       0.00452905       0.00420466
C        7.42563628       1.43828505       3.53713474      -0.00632544       0.00347311      -0.00140622
C        6.21610654       3.55450970       3.48194455      -0.00548164      -0.00078524       0.00164252
C        5.01288933       5.67425443       3.64731692       0.00269304      -0.00458033       0.00135442
C        3.71861814       7.88732927       3.78690595       0.00737702       0.01136693       0.00849889
C        2.48488451      10.00191531       3.66603344       0.00125861       0.00249323       0.00115710
C        9.89012382       1.44361319       3.60791529      -0.00542985      -0.00611516      -0.00155236
C        8.65946909       3.57609015       3.47723255      -0.00180121       0.01075600      -0.00357710
C        7.43523439       5.71740572       3.42345808      -0.00608162       0.00034478       0.00490110
C        6.19071433       7.85966104       3.53230026       0.00463624      -0.00239670       0.00975254
C        4.95577300       9.99585854       3.60128893      -0.00056637      -0.01139472       0.00015498
Pd       2.62883826       5.12932213       4.93328630       0.00666554      -0.00107166       0.00306338
O        1.57718158       3.68268162       6.04340143      -0.01150552      -0.00595256       0.00061965
