49
Lattice="12.336457 0.0 0.0 -6.168228499999997 10.683685154694365 0.0 0.0 0.0 15.0" Properties=species:S:1:pos:R:3:forces:R:3 energy=-428.73190522403604 free_energy=-428.73190522403604 stress="0.0015579037950839828 0.0016018161448985904 1.1427937422456524e-05 0.0016018161448985904 -0.00018291783645137358 2.4846390209814448e-06 1.1427937422456524e-05 2.4846390209814448e-06 -5.619540420115003e-06" pbc="T T T"
C       -0.00767331      -0.02416031       3.71713171      -0.00067174       0.00575720       0.00602104
C       -1.23803744       2.11707943       3.78825588      -0.00398477       0.00672767      -0.00148849
C       -2.46622643       4.25394078       3.86173897      -0.00477625       0.00303167      -0.00610877
C       -3.71271610       6.38356426       3.82488090      -0.00025241      -0.00100928       0.00449383
C       -4.95881923       8.51578817       3.73923673       0.00811951      -0.00398182       0.01388904
C        2.44849470       0.01595116       3.72789130      -0.01132891      -0.00501179      -0.00168787
C        1.19554424       2.12793398       3.76273645       0.00159587      -0.00019014       0.01103705
C       -0.00543604       4.20508644       3.93621011      -0.00125592       0.00422875      -0.00312586
C       -1.21658269       6.36478207       3.91145073      -0.00021451       0.00522552       0.00152357
C       -2.48645650       8.51860394       3.79749637       0.00444347      -0.00042684      -0.00656918
C        4.90325812      -0.01562126       3.71544208      -0.00928839      -0.00309637      -0.00119800
C        3.71185926       2.12294264       3.65116514       0.00354940       0.00075993      -0.00117889
B        1.29343120       6.42440831       4.14455779       0.00209835      -0.00465795       0.00449774
C       -0.03112699       8.53457180       3.77896989       0.00020757       0.00062347      -0.00483530
C        7.37474408      -0.00568279       3.67241095       0.00194065      -0.00623207       0.00950750
C        6.15570122       2.10415541       3.70591177       0.00559607      -0.00168039      -0.00649193
C        4.95763448       4.17200440       3.61252342       0.00260155       0.00396739      -0.01840431
S        3.57985378       6.30894744       2.61829565       0.00214650       0.00585073       0.00007503
C        2.41712774       8.57302276       3.63061752      -0.00354993       0.00311516       0.01130440
C        9.86098922      -0.00915487       3.67384010       0.00635153      -0.00263094       0.00372266
C        8.62966563       2.12110023       3.74860222      -0.00072942      -0.00677344       0.00603892
C        7.39835559       4.24844878       3.78590611      -0.00012944      -0.00012950      -0.00698404
C        6.13451575       6.36453854       3.71389991      -0.00092400      -0.00172993      -0.01735420
C        4.91700184       8.51061020       3.65794517       0.01022680       0.00384006       0.00403620
C       -0.00079991       1.41072042       3.75265507      -0.00292911       0.00669250       0.00178563
C       -1.23265031       3.52921674       3.87135070      -0.00243613       0.00731667      -0.00267719
C       -2.46976725       5.67144891       3.87381172      -0.00124406       0.00347198      -0.00023441
C       -3.72218767       7.80690791       3.79183313       0.00920708      -0.00296812       0.00340669
C       -4.94716423       9.95532800       3.72632750      -0.00656260      -0.00358380       0.01201641
C        2.44966915       1.46419411       3.70840044       0.00179925      -0.00252355      -0.00893790
O        1.17367556       3.50180434       3.86338916       0.00048838      -0.00425170       0.01934926
C        0.01258075       5.61758978       3.99447526       0.00042536       0.00553786      -0.00156426
C       -1.24730425       7.79702752       3.84580753       0.00382295       0.00359293      -0.00536384
C       -2.49567817       9.95863534       3.74506879      -0.01062927      -0.00265253      -0.00132108
C        4.90826767       1.41320811       3.68594858       0.00320570      -0.00085020      -0.00731380
O        3.76320547       3.49113721       3.55365201       0.00264067       0.00572453      -0.01163166
C        1.21503877       7.87666581       3.78334370      -0.00292506      -0.00407024       0.00159793
C       -0.02906049       9.96557362       3.70952053      -0.00415478      -0.00114884       0.00222736
C        7.38432489       1.41219869       3.70796968       0.00189448      -0.00805589       0.00208197
C        6.16535621       3.51721492       3.72007365      -0.00140037       0.00126731       0.00542548
C        4.90176584       5.59563202       3.61359726       0.00085671       0.00495060      -0.00057962
C        3.64608814       7.81206465       3.59603665      -0.00288136      -0.00241816      -0.00432994
C        2.44902708       9.98590222       3.63132228       0.00533245      -0.00386213       0.00952425
C        9.86904580       1.41342722       3.73565635       0.00049434      -0.00277482      -0.00146399
C        8.63426356       3.54166617       3.80667381      -0.00285807      -0.00328781      -0.00871147
C        7.37873675       5.66727448       3.79119330      -0.00216533      -0.00006211      -0.01138754
C        6.13064261       7.78913141       3.69828243       0.00657732      -0.00101305      -0.00076772
C        4.91861169       9.94095029       3.68901545       0.00690901      -0.00059282       0.00118080
Pd       3.16660353       6.11076771       4.88219770      -0.01523914      -0.00001570       0.00696849
