51
Lattice="12.336457 0.0 0.0 -6.168228499999997 10.683685154694365 0.0 0.0 0.0 15.0" Properties=species:S:1:pos:R:3:initial_magmoms:R:1:forces:R:3 energy=-439.30070460329614 free_energy=-439.30070460329614 stress="-0.0006117895420714172 0.0016998880200696305 7.129511744929308e-07 0.0016998880200696305 5.001581442291534e-05 -1.1662685212937894e-05 7.129511744929308e-07 -1.1662685212937894e-05 8.252432676659854e-06" pbc="T T T"
C        0.00213080       0.09746389       3.69290089       0.00000000      -0.00140781       0.00387306      -0.00231258
C       -1.22746052       2.22863385       3.77435785       0.00000000      -0.00004981      -0.00262767      -0.00040396
C       -2.45765894       4.36581827       3.78930729       0.00000000       0.00427516       0.00072603       0.00103129
C       -3.70362576       6.50070809       3.72226880       0.00000000      -0.00856753      -0.00039916      -0.00719900
C       -4.95190458       8.63401107       3.65102474       0.00000000      -0.00423953       0.00185819      -0.00065914
C        2.45859348       0.14350079       3.67165478       0.00000000       0.00040877      -0.00216807       0.00487709
C        1.20768997       2.25460568       3.70500478       0.00000000       0.00283499      -0.00094875       0.00007670
C       -0.01119991       4.32117887       3.91500328       0.00000000      -0.00191726      -0.00077082       0.00576982
C       -1.23273861       6.48647205       3.91762921       0.00000000      -0.00290016      -0.00045986      -0.00789842
C       -2.48092774       8.64309422       3.79357929       0.00000000      -0.00078678       0.00174888      -0.00068932
C        4.91817013       0.10338876       3.75928230       0.00000000      -0.00348976       0.00482067      -0.00356307
C        3.73263040       2.24649977       3.54374381       0.00000000      -0.00260840       0.00258672      -0.00311637
B        1.18793167       6.53491500       4.35821149       0.00000000       0.01103897      -0.00503661       0.00245834
C       -0.02054916       8.65400388       3.96375062       0.00000000       0.00119151      -0.00351259       0.00359283
C        7.39277815       0.10310485       3.85239973       0.00000000      -0.00333069      -0.00065709      -0.00860199
C        6.17894958       2.20896542       3.67645730       0.00000000      -0.00083601       0.00108914       0.00214021
C        5.00084579       4.28549250       3.44090809       0.00000000       0.00638789       0.00350800      -0.00119695
S        3.44015262       6.35333856       3.03317428       0.00000000      -0.00194142      -0.00523725      -0.00393301
C        2.44701029       8.66809506       3.89454994       0.00000000      -0.00304645       0.00338570      -0.00668306
C        9.87301667       0.09865138       3.78771904       0.00000000       0.00297162      -0.00025124      -0.00009844
C        8.64425477       2.22890979       3.77656927       0.00000000       0.00155313       0.00367825      -0.01085209
C        7.42086254       4.35799847       3.66171624       0.00000000       0.00425905      -0.00402666      -0.00023354
C        6.15730538       6.47603195       3.52673201       0.00000000       0.00359441      -0.00687792      -0.00780581
C        4.91574244       8.62676907       3.62186599       0.00000000       0.00045242      -0.00676473      -0.00393671
C        0.01325982       1.53291008       3.72088074       0.00000000       0.00213797       0.00236972       0.00769931
C       -1.22706310       3.63893708       3.81676260       0.00000000       0.00039848      -0.00446967       0.00319218
C       -2.46952181       5.78564915       3.80348094       0.00000000      -0.00635633       0.00126916       0.00192699
C       -3.71239231       7.92719613       3.71790006       0.00000000      -0.00447610       0.00265634       0.00209659
C       -4.93614773      10.07921650       3.66854961       0.00000000      -0.00306653       0.00357919       0.00786387
C        2.46367205       1.59477530       3.63350018       0.00000000       0.00126883      -0.00431847       0.01153011
O        1.17942961       3.62123725       3.90155491       0.00000000      -0.00036690       0.00034620      -0.00227010
C       -0.02787234       5.72715701       4.02977286       0.00000000       0.00025500       0.00102227       0.00765235
C       -1.24827192       7.92188741       3.91254301       0.00000000      -0.00089450       0.00024199      -0.00685302
C       -2.48616896      10.08355452       3.74029098       0.00000000       0.00005534       0.00115360       0.00931175
C        4.92626936       1.52668912       3.64834630       0.00000000      -0.00347330       0.00438839       0.00035588
O        3.78256360       3.61664733       3.47103251       0.00000000       0.00731389       0.00169846       0.01020295
C        1.21954874       7.99009624       4.04840447       0.00000000       0.00346455      -0.00358806       0.01264829
C       -0.01794504      10.08373820       3.86419974       0.00000000      -0.00539265      -0.00103955      -0.00228632
C        7.40301955       1.51772926       3.77532030       0.00000000      -0.00032958       0.00147675       0.00327793
C        6.20235467       3.61521540       3.59504147       0.00000000       0.00428601       0.00040997       0.00019187
C        4.98218422       5.68700614       3.39538022       0.00000000       0.00234135       0.00266114      -0.00041957
C        3.65439411       7.97191643       3.63035151       0.00000000      -0.00338788       0.00353516       0.00246854
C        2.46508955      10.09429971       3.86277339       0.00000000      -0.00042622       0.00285823      -0.00112108
C        9.88126769       1.52266072       3.78574632       0.00000000      -0.00068046       0.00063177      -0.00492515
C        8.65068679       3.65042056       3.74414074       0.00000000       0.00598404       0.00269367       0.00311280
C        7.40456106       5.77754021       3.63579985       0.00000000      -0.00199402      -0.00829410      -0.00257287
C        6.14893103       7.91039397       3.58056470       0.00000000       0.00127470      -0.00857986       0.00161050
C        4.93181856      10.06460072       3.71176584       0.00000000       0.00182335      -0.00377457      -0.00271976
Pd       2.74423529       5.66965125       5.12650476       0.00000000      -0.00464118       0.00820166      -0.01101942
O        3.61067520       3.99131987       6.07356289       1.00000000       0.00392706      -0.00568640      -0.01589161
O        2.73858731       3.07172267       5.94623584       1.00000000      -0.00289125       0.01102078       0.01417413
