52
Lattice="12.336457 0.0 0.0 -6.168228499999997 10.683685154694365 0.0 0.0 0.0 15.0" Properties=species:S:1:pos:R:3:forces:R:3 energy=-447.6900753288793 free_energy=-447.6900753288793 stress="-0.005645686532004043 0.004278258979302832 -7.471771771086758e-05 0.004278258979302832 0.002070031246776668 -3.394561280325076e-05 -7.471771771086758e-05 -3.394561280325076e-05 0.00010682749852127083" pbc="T T T"
C        0.11626977       0.01193137       3.81367554      -0.01805447       0.00401820      -0.01128845
C       -1.10373147       2.13846470       3.51060056       0.01736441      -0.00325165       0.01738231
C       -2.36277516       4.28034161       3.59276718      -0.00153510       0.02457789       0.01191165
C       -3.60690505       6.41710257       3.81700733       0.00501585       0.02323543       0.01382796
C       -4.83678877       8.55811817       3.96528217       0.01646966      -0.02716488      -0.02624799
C        2.57625674       0.03629082       3.91327171       0.01885142      -0.02021387      -0.02127284
C        1.38602583       2.10889905       3.44533907      -0.02836920      -0.05449080       0.01172325
C        0.01801684       4.35342705       3.17921483      -0.02527958      -0.03941147      -0.03687949
C       -1.19399206       6.46100796       3.53697825      -0.02236127       0.00780788      -0.00300925
C       -2.38355314       8.57261299       3.84036644       0.01269888       0.02018006      -0.03097500
C        5.04712625       0.00800851       3.87294970       0.03321532      -0.05105686      -0.00950663
C        3.85715036       2.17789628       3.93638339      -0.01064107       0.02258854       0.10968106
N        1.16780316       6.41880228       3.73955680       0.02196093       0.00125974      -0.09183878
C        0.08302996       8.54797286       3.72289568      -0.01635897      -0.04037188       0.09482553
C        7.52816164      -0.02951062       3.81583395       0.01015982      -0.04866483      -0.05954066
C        6.32376388       2.10657670       3.92527197      -0.00657363      -0.01985882       0.01416732
C        5.12571245       4.19864167       4.12689360      -0.00731749       0.01914616      -0.09890749
B        3.84155891       6.34884001       4.28711519      -0.00584014       0.03091769       0.00341767
C        2.56106130       8.49182751       3.88987752      -0.02045223       0.04530977       0.02950899
C        9.98929517      -0.02599066       3.77513260      -0.01440594       0.03970689       0.02690868
C        8.77563481       2.11713810       3.75063345       0.03611173       0.01605700       0.01416305
C        7.55230659       4.25590701       3.90666211      -0.02682474       0.02757911      -0.05981413
C        6.29667135       6.39481325       4.04333460       0.02302211      -0.03449328       0.04807011
C        5.03894077       8.53405035       4.01266001      -0.02084313       0.02178726      -0.05816646
C        0.13206524       1.43865605       3.57996049      -0.00288193      -0.02835484      -0.00786097
C       -1.13073744       3.57382522       3.40054258      -0.00295977      -0.02495916       0.05273685
C       -2.39058414       5.70987312       3.62982416      -0.01146821       0.02797557       0.03454269
C       -3.60988754       7.84730788       3.88624617       0.02984590       0.00390826      -0.02991801
C       -4.82618347       9.99266099       3.92080239      -0.00628542      -0.01235835      -0.04160788
C        2.59329431       1.46547632       3.79541837      -0.01181656       0.00018371       0.01599027
S        1.47059563       3.62393185       2.58164776      -0.00477725       0.07091226       0.04329219
C        0.02337382       5.76526643       3.40480004      -0.00239051      -0.00425724      -0.04122896
C       -1.16025531       7.86878937       3.69498835      -0.03232400       0.00625781       0.01220325
C       -2.36586413       9.99670000       3.90603949       0.02947789      -0.00922934      -0.01408370
C        5.07370554       1.42773603       3.92427244      -0.01098509      -0.02219083      -0.01978765
N        3.95266783       3.51664673       4.15427202       0.00416755       0.02180019      -0.00641235
C        1.29690005       7.77239263       3.78111972       0.00636096      -0.00751424      -0.00251530
C        0.11158700       9.96376211       3.80160912       0.01667925      -0.06413791       0.06045689
C        7.54851716       1.39483217       3.84572248       0.01884605      -0.03348931      -0.07978732
C        6.35038361       3.51210510       3.99000055      -0.01560708      -0.01119239       0.02706443
C        5.12296216       5.62604778       4.16543275       0.00624919       0.00953747       0.00005909
C        3.79196840       7.82731933       4.06265466      -0.02634612       0.03891823      -0.00701751
C        2.58022748       9.92722703       3.80681957       0.01026573       0.01918160       0.05707613
C       10.00857455       1.41020676       3.66997207       0.03554182       0.01476610      -0.00646558
C        8.77358304       3.54594154       3.75658710      -0.00822689       0.04257901      -0.02762267
C        7.52734441       5.68499950       3.92468157       0.02568580       0.00875007       0.02219251
C        6.27167924       7.82920427       4.01716344      -0.00715999      -0.02835305       0.06579998
C        5.05204653       9.96360118       3.86960749      -0.02991896       0.04911412      -0.01688103
Pd       2.47218231       4.97941438       4.45444701      -0.04483684      -0.10492694       0.07253460
O        1.22957012       4.25685919       5.91488169      -0.04633417       0.16420099       0.02428547
O        0.46474156       5.37219985       6.43183941       0.16051665      -0.13792492      -0.03929365
H        0.60232409       5.21883674       7.39133274      -0.04933113       0.04560985      -0.03589217
