50
Lattice="12.336457 0.0 0.0 -6.168228499999997 10.683685154694365 0.0 0.0 0.0 15.0" Properties=species:S:1:pos:R:3:forces:R:3 energy=-432.20977786929654 free_energy=-432.20977786929654 stress="-0.00503213179851481 -0.003974315287394417 -8.840984373172733e-06 -0.003974315287394417 -0.0009025595700826996 7.851154207800543e-06 -8.840984373172733e-06 7.851154207800543e-06 -2.381508344501778e-06" pbc="T T T"
C        0.03470490       0.04707474       3.89983265      -0.00628868      -0.00076354      -0.00271949
C       -1.20528736       2.16334987       3.66748021       0.00481449       0.00177927       0.00082802
C       -2.45673614       4.29267131       3.62204056      -0.00252043       0.00151365       0.00160080
C       -3.65064392       6.44542871       3.79334832       0.00136006      -0.00443284      -0.00502043
C       -4.87892310       8.58972296       3.90954720      -0.00097812      -0.00344224      -0.00298444
C        2.51228946       0.01600826       3.98778576      -0.00220282       0.00828566       0.00010434
C        1.23585369       2.14127858       4.32072545      -0.00183816      -0.00195938       0.00455046
C       -0.11291043       4.28913487       2.92788439      -0.00797246       0.00101158       0.00773809
C       -1.20470967       6.42313867       3.58632185      -0.00152614      -0.00334181      -0.00031098
C       -2.40696871       8.56372757       3.84577653      -0.00158726       0.00289386      -0.00424738
C        4.97462746       0.02388312       3.86706472       0.00505787      -0.00140622      -0.00643753
C        3.69047898       2.12421032       3.83926622      -0.00062765      -0.00301346       0.00224308
B        1.16948789       6.34591610       3.93787038      -0.00907410       0.00880464       0.00269177
C        0.05964018       8.55227250       3.82031088      -0.00081240      -0.00477136       0.00244924
C        7.43976099       0.01715987       3.81903256       0.00266656       0.00149160       0.00779550
C        6.18007689       2.18036704       3.77411309       0.00335364       0.00362532      -0.00595656
C        5.02521572       4.41108432       3.72433644       0.00984273       0.00130882      -0.00682583
O        3.84137399       6.49286604       3.86383758      -0.00235196       0.00053513      -0.01801711
C        2.53431003       8.53745597       3.87290213      -0.00347160      -0.00381390       0.00293036
C        9.90240488       0.01875169       3.81308431      -0.00841978      -0.00545792      -0.00062088
C        8.65522903       2.16091429       3.75157315       0.01042001       0.00236063      -0.00367972
C        7.43566499       4.31552303       3.80143891       0.00089308       0.00362037      -0.00288004
C        6.25126598       6.48274823       3.87069863      -0.00061823      -0.00093824       0.00039950
C        4.99210649       8.58263058       3.87222751      -0.00568797       0.00086770       0.00053520
C        0.01216312       1.46283467       3.88484115       0.00107727       0.00080924       0.00392665
C       -1.25062214       3.56773002       3.43034051      -0.00184664       0.00712732       0.00744217
C       -2.44475907       5.72347710       3.65075568       0.00092692      -0.00391990       0.00258007
C       -3.64323712       7.86851062       3.85495589       0.00084421      -0.00416597       0.00082862
C       -4.89226541      10.01084325       3.95575149      -0.00320320       0.00121336       0.00121496
C        2.49737792       1.42956901       4.04585416      -0.00326084      -0.00035256       0.00027867
S        0.93519259       3.54560766       1.85892127       0.00329361       0.00339722       0.00092697
C       -0.03233038       5.66437136       3.35274799      -0.00169745       0.00039350       0.00986717
C       -1.17558248       7.84333752       3.76548465      -0.00282450      -0.00218315      -0.00226492
C       -2.41502493       9.98918336       3.90933970      -0.00002690       0.00611288       0.00186313
C        4.95344855       1.46280020       3.82206502       0.00131811      -0.00024474      -0.00726849
S        3.50664951       3.74598610       3.30345906      -0.00576100      -0.00754661      -0.00099729
C        1.29303813       7.84220664       3.87077281      -0.00126884      -0.00044091       0.00865042
C        0.04404804       9.99022213       3.83691279       0.00499731      -0.00413758       0.00302339
C        7.41647343       1.45357328       3.78781617       0.00735464       0.00577763      -0.00207604
C        6.19469719       3.61482711       3.77318920       0.00461756       0.00705557      -0.00092281
C        5.05548825       5.79847024       3.80690656       0.00704214       0.00196915       0.00197278
C        3.78698531       7.87622875       3.86618779      -0.00255222       0.00170773      -0.00213635
C        2.51194431       9.97707382       3.83490713      -0.00521032      -0.00760915      -0.00669019
C        9.89760777       1.44989903       3.74281012       0.00827991      -0.00312992       0.00426142
C        8.65438438       3.58320293       3.74725237       0.00049369       0.00165886      -0.00166177
C        7.45958433       5.73435858       3.83344857       0.00012346       0.00180214      -0.00224626
C        6.23587572       7.89511116       3.89201989      -0.00405541      -0.00021186      -0.00677227
C        4.96828841      10.00561635       3.85040915      -0.01028415      -0.00093082      -0.00415514
Pd       2.30944246       4.99212043       4.83562514       0.01522570      -0.00370375       0.00833957
O        1.18495382       3.15771168       5.08321993       0.00396627      -0.00520502       0.00784957
