52
Lattice="12.336457 0.0 0.0 -6.168228499999997 10.683685154694365 0.0 0.0 0.0 15.0" Properties=species:S:1:pos:R:3:forces:R:3 energy=-449.7623025963596 free_energy=-449.7623025963596 stress="-0.006170123211968086 0.001982713499410875 0.00023431525211184068 0.001982713499410875 0.0005410785812489295 -0.0001111064382904137 0.00023431525211184068 -0.0001111064382904137 -1.4648337774372782e-05" pbc="T T T"
C       -0.02341832      -0.09951083       3.81133180       0.00897680      -0.01142427       0.02726858
C       -1.25021084       2.03398355       3.58030185      -0.03941142      -0.01750330       0.01984293
C       -2.49243421       4.18473320       3.75399602      -0.02753364      -0.04461819       0.01067395
C       -3.72577217       6.31878000       3.93160659       0.03932802       0.02560306       0.01003512
C       -4.96357698       8.45743201       3.99067461      -0.00976253      -0.00702809      -0.00359253
C        2.44258192      -0.07471574       3.81401963       0.01513209       0.02205472      -0.00701585
C        1.21297981       1.96347618       3.31098722       0.01432826       0.03888665      -0.02546321
C       -0.14553056       4.23137088       3.22356828       0.05965105      -0.04486830       0.01848374
C       -1.29006201       6.33971884       3.73789750      -0.00149581      -0.02942356      -0.02892672
C       -2.50311302       8.46951324       3.90050098      -0.01290911      -0.00021731      -0.00385237
C        4.91715610      -0.09011467       3.83223169       0.01867010       0.00317229      -0.01842178
C        3.69495682       2.09543406       3.66387366       0.01028127       0.02900301       0.00500117
C        1.14547381       6.31299399       3.51900578       0.01993659      -0.04804040      -0.02860538
C       -0.02955003       8.43793770       3.80548573      -0.01652166       0.03790714       0.01934923
C        7.39522543      -0.12655364       3.84089935       0.00006594       0.08443522      -0.02442055
C        6.17721940       2.00944780       3.85983817       0.01178867      -0.00432586       0.00411207
C        4.98776879       4.14375484       3.99523274      -0.05872422      -0.04679084       0.01103658
B        3.72698267       6.28868599       4.65414990      -0.07374201      -0.00956322      -0.06890297
C        2.46136205       8.40803965       3.92958140      -0.01642979       0.04883573       0.02239115
C        9.85337842      -0.11007051       3.85021352       0.01161842      -0.02214971       0.00272034
C        8.63185455       2.02685232       3.81189996       0.00501444      -0.06069321       0.04490335
C        7.41395942       4.16298157       3.93394344       0.03892582       0.00277147       0.08684741
C        6.16369095       6.29917681       4.07867304       0.00984839       0.01801387      -0.03457856
C        4.90229159       8.44232714       4.07024879       0.02236972       0.02839821       0.02466792
C       -0.02542675       1.31646623       3.56925410      -0.01589960      -0.02231287      -0.01809297
C       -1.27697357       3.46612031       3.52886814      -0.02093756      -0.00878004       0.00362488
C       -2.49906989       5.61104536       3.81763060      -0.00593518      -0.03691737      -0.02524973
C       -3.72953193       7.74855968       3.95062380       0.00104598       0.00141087       0.01986589
C       -4.95739128       9.88766298       3.89375004       0.02646350      -0.02535504      -0.07265470
C        2.44622434       1.34525090       3.59251499       0.01858172       0.05578154       0.01694005
S        1.14586669       3.43298993       2.38976784       0.03861540       0.04177932      -0.00659641
C       -0.07065874       5.63145827       3.47923037       0.09694427       0.01392468      -0.05418435
C       -1.27215061       7.75394276       3.82225036       0.01343825       0.01542270       0.04502365
C       -2.49314899       9.89214895       3.87497467       0.00644111       0.00339799      -0.05607061
C        4.92967562       1.33289212       3.78729020       0.01948047       0.00923460       0.07638318
C        3.79834722       3.48222999       3.69738979      -0.11197409       0.03887185      -0.03093602
C        1.20793254       7.68493276       3.76890239       0.01396740      -0.08530244       0.03160373
C       -0.01941864       9.85957024       3.83816582       0.02952872       0.03445519       0.01869534
C        7.40846428       1.29603604       3.84475202      -0.00376064       0.03219228      -0.01200122
C        6.21067368       3.42172370       3.95463761       0.02533936      -0.00242387       0.01981898
C        4.99283755       5.53892172       4.15312793       0.02824120      -0.06188665      -0.00970448
C        3.66606651       7.76517198       4.18326764      -0.00105438       0.03136990      -0.00132110
C        2.45686068       9.84577449       3.86654270      -0.01446187       0.05899480       0.01115664
C        9.86618204       1.32236911       3.75980049      -0.01952722      -0.04197918      -0.06352685
C        8.63621008       3.45544100       3.84420683      -0.01259496      -0.07956574      -0.01401378
C        7.40216908       5.58937874       3.98063784       0.02541524       0.02190575      -0.00546290
C        6.14824876       7.73733068       4.07317443      -0.02969926       0.01403780       0.00038547
C        4.91369364       9.87136941       3.91552802       0.00512270       0.00889535      -0.02391410
Pd       2.64553280       5.05315671       3.20982346       0.01947485      -0.08445366       0.04106913
O        3.45293119       5.84116697       5.98923929      -0.16447688      -0.00654707       0.14571899
O        2.31955154       6.63082124       6.52453965      -0.06222595       0.08154619      -0.13428566
H        2.75221534       6.97528950       7.33294498       0.06504201      -0.00013200       0.03417531
