50
Lattice="12.336457 0.0 0.0 -6.168228499999997 10.683685154694365 0.0 0.0 0.0 15.0" Properties=species:S:1:pos:R:3:forces:R:3 energy=-440.2802599235103 free_energy=-440.2802599235103 stress="-0.0034706522965028217 -0.0014542293594517796 -3.5873481163529564e-07 -0.0014542293594517796 0.001487009533879809 1.645436405362844e-06 -3.5873481163529564e-07 1.645436405362844e-06 1.5063897275127477e-05" pbc="T T T"
C        0.00612607      -0.01058887       3.86065835      -0.00157136      -0.00236067      -0.00794835
C       -1.25197216       2.09230881       4.09589501      -0.00610331       0.00583827      -0.00245829
C       -2.49607187       4.24454748       4.11923648       0.00647707       0.00176015       0.00729286
C       -3.69309773       6.39333254       3.89811029       0.00795131       0.00167754      -0.00280346
C       -4.92834020       8.53830164       3.73176551       0.00274277      -0.00386126       0.00017478
C        2.47195743       0.03602053       3.77514890       0.01307805       0.00314118      -0.00451700
C        1.20627649       2.16307918       3.87199153      -0.00267689       0.00026748      -0.00549900
C       -0.07017217       4.21446427       4.17240050      -0.00539126      -0.00670869      -0.00428975
C       -1.22801185       6.37419179       4.07971730      -0.00135028       0.00146374      -0.00467310
C       -2.45681252       8.53744494       3.87925489      -0.00045957      -0.00054900      -0.00085342
C        4.93450262      -0.00823461       3.76870621      -0.00201498      -0.00437741       0.00425355
C        3.71777204       2.17797628       3.56447345       0.00751504      -0.00684106       0.00575280
B        1.33724152       6.34276219       4.37392589       0.00465601      -0.00197869       0.00281702
C        0.02317300       8.51281290       3.87986097      -0.00364897       0.00537784       0.00181645
C        7.40209154      -0.02857425       3.82401465      -0.00190430       0.00616932       0.00010184
C        6.17737559       2.10543872       3.73421860      -0.00807928       0.00604555       0.01450047
C        5.01326792       4.21392557       3.33943991      -0.01181010      -0.00297192       0.01156394
S        3.76220937       6.44848987       2.33826489       0.01364505       0.00564205       0.01142880
C        2.46304630       8.51526810       3.63730534       0.00203763      -0.00290000      -0.00009794
C        9.86904481      -0.03247350       3.85599260      -0.00139690      -0.00015254       0.00175013
C        8.62793439       2.10381064       3.97061788       0.00630208      -0.00163634      -0.00395169
C        7.41448826       4.24955857       3.80935809       0.00924047       0.00535784       0.01281677
C        6.20776246       6.38758746       3.49063819      -0.01405970       0.00074427       0.01049698
C        4.94784873       8.53735252       3.54245219      -0.00500155      -0.00147770      -0.00113065
C       -0.00938800       1.40633804       3.98445340      -0.00853813       0.00114959      -0.01071923
C       -1.29015021       3.50339694       4.20961526       0.00088130       0.00391693      -0.00002198
C       -2.47896536       5.67009556       4.05518321       0.00487168      -0.00170051      -0.00415793
C       -3.69206649       7.82306124       3.83951982       0.00503282      -0.00220853      -0.01106529
C       -4.92418667       9.97823954       3.78989443       0.00942873       0.00060395      -0.01134275
C        2.46462923       1.47663048       3.72251805       0.00533851       0.00193109      -0.00769685
N        1.07806799       3.52553622       3.88554541      -0.00441194      -0.00656834       0.00422233
C       -0.04029681       5.62340163       4.17853678      -0.00470651      -0.00361049      -0.00451476
C       -1.22777833       7.81360095       3.96384706      -0.00386062       0.00438972      -0.00505224
C       -2.46799011       9.97561180       3.79826423       0.00502487      -0.00601897      -0.01169507
C        4.93941055       1.41711351       3.68046572      -0.00119226      -0.00692091       0.00642018
N        3.83689787       3.51836950       3.30180741      -0.00063547      -0.00940477       0.00765700
C        1.25553080       7.82541124       3.85423355      -0.00227676      -0.00203794      -0.00307998
C        0.00243865       9.95193074       3.80941534      -0.00257279       0.00590541       0.00251825
C        7.40257558       1.39393138       3.85476758      -0.00241485       0.00716618      -0.00003033
C        6.21121615       3.51831024       3.65028778      -0.00124622       0.00814651       0.00055377
C        5.07615389       5.62023531       3.14224143      -0.00896208      -0.00229428      -0.00000861
C        3.71000336       7.89201317       3.30492810       0.00283838      -0.00506464       0.00042800
C        2.46962143       9.94678031       3.77919540      -0.00118359      -0.00132729      -0.00480205
C        9.85782503       1.38502164       4.00332770       0.00329422       0.00100205      -0.01030050
C        8.62289932       3.52891362       3.99540095       0.01371887      -0.00200526      -0.00095272
C        7.42234797       5.67484337       3.75327638      -0.00060307       0.00910361       0.01634777
C        6.18642312       7.82251606       3.55274499      -0.00616115       0.00007780      -0.00211766
C        4.94051822       9.95347480       3.78285503      -0.00583079      -0.00262046      -0.00113932
Pd       2.29032228       4.87414771       3.08346663      -0.00409128       0.00329096      -0.00258716
O        2.28752690       5.93615568       5.20167102       0.00008113      -0.00257136       0.00659338
