50
Lattice="12.336457 0.0 0.0 -6.168228499999997 10.683685154694365 0.0 0.0 0.0 15.0" Properties=species:S:1:pos:R:3:forces:R:3 energy=-445.73271622744045 free_energy=-445.73271622744045 stress="-0.004828798906161868 -0.00027752666825571525 5.557556277411016e-06 -0.00027752666825571525 0.004670311059226839 -2.634349130822137e-06 5.557556277411016e-06 -2.634349130822137e-06 8.356259574299276e-06" pbc="T T T"
C       -0.01814722      -0.00922934       3.64256041      -0.00038110      -0.00791301      -0.00377862
C       -1.26551297       2.09679059       3.45673419       0.00100507       0.00581170       0.00015613
C       -2.50027059       4.24882356       3.39664713       0.00227130       0.00540401       0.00270126
C       -3.71866539       6.39804670       3.54144264      -0.00279552      -0.01336723      -0.00354917
C       -4.94902968       8.54611407       3.69978644       0.00258131       0.00232238       0.00657533
C        2.44486404       0.03705472       3.75135905       0.00144330       0.00383655      -0.00009832
C        1.17898986       2.16667216       3.74163868       0.00557126      -0.00044001       0.00321481
C       -0.07245596       4.22971580       3.56989909       0.00003739       0.00247496       0.00681071
C       -1.27222386       6.39958946       3.54198560      -0.00563293      -0.00310635       0.00000699
C       -2.49091519       8.54963237       3.64957012      -0.00424485      -0.00148933       0.00754163
C        4.92219590      -0.01550413       3.76452266       0.00453293       0.01382160      -0.00564217
C        3.69312835       2.16776181       3.95695157       0.00091845      -0.00185249       0.00282929
N        1.09105184       6.34493886       3.97494793      -0.01355215       0.00675366       0.00778223
C       -0.01691125       8.49036570       3.76302232       0.00198763       0.00055302      -0.00078979
C        7.39181098      -0.06165231       3.69078437      -0.00338429       0.00168530       0.00164218
C        6.17012618       2.09422298       3.72196375      -0.00529485       0.00923793      -0.00105336
C        5.00235950       4.25115003       4.02780842       0.00266953      -0.00596168      -0.00268860
B        3.84456598       6.45039680       4.74050942      -0.01246040       0.01047102       0.00846087
C        2.46127453       8.45819208       3.91005843       0.00968889      -0.00957959      -0.00535276
C        9.84224048      -0.05379367       3.62117908       0.00173634      -0.01102629       0.00533040
C        8.61439050       2.08883367       3.49886243      -0.00855429      -0.00193471       0.00201919
C        7.40275885       4.24012981       3.58737061       0.00538033      -0.00159229       0.00149025
C        6.18708208       6.38444435       3.85567433       0.00747529       0.01421644      -0.00802446
C        4.92032820       8.53022939       3.85987110       0.00188973      -0.00495420       0.00218904
C       -0.03283144       1.41213606       3.57914295       0.00264355      -0.00180758      -0.00888427
C       -1.28204105       3.52201852       3.40317783      -0.00136311       0.00856927       0.00991752
C       -2.49344524       5.67820364       3.45559730      -0.00080558      -0.00279701      -0.00110053
C       -3.71813631       7.82999698       3.62069834      -0.00418804      -0.01249434       0.00675265
C       -4.94770063       9.98178810       3.69818909       0.00282924      -0.00100592       0.00218510
C        2.43538873       1.47016827       3.84484953       0.00180696      -0.00001202       0.00983410
N        1.05440393       3.52341272       3.82251970       0.00519867       0.00293490       0.00016098
C       -0.05219908       5.68351774       3.65638928      -0.00734462      -0.00023033       0.00198772
C       -1.25992819       7.81934276       3.64723413       0.00092495      -0.00100859      -0.00509571
C       -2.49099256       9.98022790       3.73491595       0.00471922       0.00834918      -0.00360445
C        4.93295008       1.40798687       3.82280410       0.00193381       0.01298616       0.00151469
C        3.79990706       3.53844678       4.20530793      -0.00240383      -0.00467762      -0.01244638
C        1.19499991       7.71693970       3.90501895       0.00657174      -0.00237732      -0.00456542
C       -0.01250835       9.92215401       3.74737329      -0.00209131       0.00265246      -0.00572552
C        7.39516006       1.36767749       3.61891997      -0.01218782       0.00152570       0.00298889
C        6.19891836       3.51381215       3.74677122       0.00558375       0.00070265      -0.00638474
C        5.03128210       5.65139508       4.12772249       0.01270374      -0.00014083      -0.01119923
C        3.70354128       7.84493717       4.06998307      -0.00034096      -0.00405376       0.00499881
C        2.44839728       9.89480546       3.71954817       0.00111900      -0.00479094      -0.00114160
C        9.84171414       1.37369451       3.49318203      -0.00151344      -0.00293129      -0.00207916
C        8.61803115       3.52144777       3.45538468       0.00401917       0.00066575       0.00642175
C        7.40690381       5.67117709       3.62894123      -0.00183672      -0.00219409      -0.00360289
C        6.17051565       7.82652080       3.82493412      -0.00016237       0.01358420      -0.00246951
C        4.91655886       9.94881562       3.68006726       0.00352359      -0.01513862      -0.00196654
Pd       2.37218696       4.80969165       4.70715818      -0.01468488      -0.01209709       0.00041428
O        3.27453602       6.19259528       5.92697824       0.00245691       0.00241567      -0.00468359
