51
Lattice="12.336457 0.0 0.0 -6.168228499999997 10.683685154694365 0.0 0.0 0.0 15.0" Properties=species:S:1:pos:R:3:initial_magmoms:R:1:forces:R:3 energy=-436.60261319859393 free_energy=-436.60261319859393 stress="-0.001444532548573784 0.0020153496827347416 4.275900584270945e-06 0.0020153496827347416 -0.001974426482331615 8.775186635195081e-07 4.275900584270945e-06 8.775186635195081e-07 -5.213848130913002e-06" pbc="T T T"
C        0.02144464       0.09439008       3.81487281       0.00000000      -0.00380243      -0.00193450       0.00282794
C       -1.21490617       2.22213661       3.55470849       0.00000000       0.00298740       0.00028539      -0.00119151
C       -2.48685061       4.36217760       3.62539946       0.00000000      -0.00213638       0.00252189       0.00464219
C       -3.71191939       6.49561940       3.83817450       0.00000000       0.00549018      -0.00024789      -0.00223839
C       -4.93169737       8.62823041       3.94530233       0.00000000      -0.00193330       0.00269666       0.00420487
C        2.48728953       0.10472651       3.84158437       0.00000000      -0.00100720       0.00269086      -0.00026884
C        1.27009768       2.17096373       3.38244471       0.00000000      -0.00170526       0.00019832       0.00255505
C       -0.14336172       4.37536469       3.00146108       0.00000000      -0.00031128       0.00165785       0.00291707
C       -1.27453936       6.51463891       3.45392938       0.00000000       0.00087788      -0.00146981      -0.00350160
C       -2.45834792       8.62912314       3.79895637       0.00000000       0.00113288      -0.00237533       0.00162250
C        4.94658521       0.08016483       3.86158007       0.00000000       0.00060161       0.00300576       0.00024763
C        3.75632992       2.21246078       3.81741606       0.00000000       0.00306473      -0.00040566       0.00519158
S        1.38042768       6.51480218       2.60871820       0.00000000       0.00108463      -0.00087705      -0.00130571
C        0.00652845       8.63560562       3.64984004       0.00000000      -0.00222291      -0.00385771      -0.00100701
C        7.41615616       0.09307213       3.86098271       0.00000000      -0.00050809       0.00251994      -0.00057253
C        6.19057967       2.21336201       3.93196586       0.00000000      -0.00543628       0.00262986       0.00207293
C        4.96473437       4.29696790       4.05460920       0.00000000       0.00210268      -0.00257929      -0.00314374
B        3.68444911       6.49212878       4.27718947       0.00000000      -0.00239968      -0.00056772      -0.00014379
C        2.48490446       8.65988863       3.84224687       0.00000000       0.00194653      -0.00011625       0.00048216
C        9.89609997       0.10427872       3.86604176       0.00000000       0.00273031      -0.00065012       0.00086312
C        8.65495920       2.22775667       3.82175913       0.00000000       0.00139995      -0.00265987       0.00275504
C        7.40583829       4.35625065       3.92432046       0.00000000      -0.00428285      -0.00320915      -0.00079599
C        6.15564463       6.46979207       4.04685214       0.00000000       0.00038493      -0.00054758       0.00065521
C        4.94366614       8.63844505       4.01356765       0.00000000       0.00077011       0.00547110      -0.00112172
C        0.02889407       1.51570984       3.57801463       0.00000000      -0.00036718      -0.00541139      -0.00223098
C       -1.27007013       3.63476041       3.39326953       0.00000000      -0.00138837       0.00305493       0.00466996
C       -2.49379739       5.78633125       3.64708185       0.00000000       0.00444980       0.00091303      -0.00047955
C       -3.70021413       7.91907649       3.86960749       0.00000000      -0.00063885       0.00005194      -0.00169600
C       -4.91890175      10.06173836       3.87915046       0.00000000      -0.00305484       0.00286296       0.00125473
C        2.50615609       1.53704554       3.71304110       0.00000000       0.00084550       0.00281689      -0.00392498
S        1.32998942       3.62653132       2.46535094       0.00000000       0.00329030       0.00129056      -0.00520226
C       -0.13963941       5.77190746       3.06838962       0.00000000      -0.00472267       0.00006930      -0.00768449
C       -1.23321565       7.92708510       3.62589360       0.00000000       0.00017147      -0.00478606      -0.00129539
C       -2.45376600      10.06032423       3.85660861       0.00000000       0.00082410       0.00115322       0.00650285
C        4.95127473       1.51110804       3.89315344       0.00000000      -0.00019765       0.00193047       0.00006104
O        3.78387847       3.57918061       4.02569614       0.00000000       0.00958545      -0.00445639      -0.00188231
C        1.26314893       7.98796252       3.52898533       0.00000000      -0.00128394      -0.00104394      -0.00031983
C        0.01382953      10.05862485       3.81805288       0.00000000      -0.00023603      -0.00063008       0.00201821
C        7.41795514       1.51588723       3.88883814       0.00000000      -0.00448769       0.00392777      -0.00193144
C        6.18369953       3.62225298       3.98200639       0.00000000      -0.00293996      -0.00116212       0.00570590
C        4.95007297       5.70691610       4.12895184       0.00000000      -0.00036179      -0.00337042      -0.00088546
C        3.69871574       7.96276187       4.02084687       0.00000000       0.00306340       0.00224151      -0.00311773
C        2.48474875      10.08680905       3.87351278       0.00000000       0.00170946       0.00169317       0.00229962
C        9.89984661       1.52461654       3.76003632       0.00000000       0.00533879      -0.00186748      -0.00317632
C        8.63679052       3.64802582       3.80482952       0.00000000      -0.00345482      -0.00207517      -0.00232608
C        7.39698957       5.77464996       3.94603640       0.00000000       0.00302393      -0.00225255      -0.00030784
C        6.16684451       7.90523603       4.02209348       0.00000000      -0.00106635       0.00311967       0.00694771
C        4.95640417      10.07285610       3.90736388       0.00000000      -0.00124043       0.00108164       0.00156208
Pd       2.01157923       5.57841714       4.66824524       0.00000000      -0.00339751      -0.00272680      -0.01797563
O        2.14297515       3.11043882       6.01837569       1.00000000       0.00064610      -0.00515202      -0.00474353
O        1.21688989       3.92135524       5.71367803       1.00000000      -0.00293838       0.00654767       0.01241126
