51
Lattice="12.336457 0.0 0.0 -6.168228499999997 10.683685154694365 0.0 0.0 0.0 15.0" Properties=species:S:1:pos:R:3:initial_magmoms:R:1:forces:R:3 energy=-443.52792006228566 free_energy=-443.52792006228566 stress="-0.007007873038421015 0.004548722864050814 1.2088176770010727e-05 0.004548722864050814 0.0007862172524299197 -1.5902750364050284e-05 1.2088176770010727e-05 -1.5902750364050284e-05 -2.5360912178091316e-06" pbc="T T T"
C        0.02924146       0.06628282       3.73153341       0.00000000      -0.00073615       0.00397770       0.01550191
C       -1.18720868       2.19770511       3.48982471       0.00000000      -0.00386817       0.00865025      -0.00910986
C       -2.44757520       4.34036253       3.56625742       0.00000000      -0.00351482       0.00940243      -0.00708729
C       -3.69584404       6.47735683       3.75168709       0.00000000       0.00523225      -0.00758715      -0.00187063
C       -4.92445464       8.61400178       3.87000732       0.00000000      -0.00802282      -0.00779852      -0.00216282
C        2.49103692       0.09091575       3.80532849       0.00000000       0.00600446       0.00000791       0.00939330
C        1.29559468       2.16891620       3.39658000       0.00000000       0.01319117      -0.00574915       0.00453021
C       -0.06489219       4.41293581       3.19129150       0.00000000      -0.00719064      -0.00849781      -0.00766725
C       -1.27958402       6.51831778       3.52603880       0.00000000       0.00252747      -0.00505107      -0.00348437
C       -2.47003527       8.63100404       3.76991569       0.00000000      -0.00848623       0.00055152       0.00872629
C        4.96399181       0.06072355       3.79155079       0.00000000       0.00421707       0.00299246       0.00836915
C        3.76689438       2.22937243       3.82165117       0.00000000       0.00207915       0.00188340      -0.00279047
N        1.09445037       6.47786130       3.70108950       0.00000000       0.00329128      -0.00586659       0.01261547
C       -0.00118443       8.60146261       3.71208221       0.00000000      -0.00402744       0.00309497       0.00673498
C        7.44260638       0.02841477       3.75272762       0.00000000      -0.00031355       0.00386826      -0.00676415
C        6.23588903       2.16412013       3.78609530       0.00000000      -0.01214769      -0.00590376       0.01140945
C        5.02878483       4.25680054       3.94015595       0.00000000       0.00118114      -0.00134453       0.00976144
B        3.75775541       6.40702342       4.22571366       0.00000000       0.00163386      -0.00132619      -0.00309989
C        2.47451153       8.55650961       3.86686806       0.00000000       0.01056349       0.00503198       0.00367247
C        9.90264871       0.03859526       3.73947952       0.00000000       0.00193803      -0.00950208      -0.00481319
C        8.68880267       2.17798287       3.67100005       0.00000000      -0.00125064       0.00028583       0.00501746
C        7.45783625       4.31660152       3.77211956       0.00000000       0.00071047      -0.00017549       0.00691944
C        6.20599718       6.45234664       3.94417602       0.00000000       0.00776967       0.00896057      -0.01382200
C        4.95186200       8.59367432       3.94003077       0.00000000       0.00177933       0.00151088       0.00870165
C        0.04633464       1.49537679       3.52606904       0.00000000       0.00317068       0.00895503      -0.00427585
C       -1.21122788       3.63312804       3.40762764       0.00000000      -0.01165748       0.00725674       0.00016419
C       -2.47623915       5.76815121       3.60368883       0.00000000       0.00317328      -0.00007210      -0.01009678
C       -3.69681562       7.90654166       3.80563275       0.00000000      -0.00689868      -0.00904618      -0.01086622
C       -4.91273111      10.04549601       3.81598044       0.00000000      -0.00142817      -0.00356802       0.00338264
C        2.50439628       1.51882465       3.70459280       0.00000000       0.01243942      -0.00310037       0.00164223
S        1.38647200       3.70608036       2.57947409       0.00000000      -0.00797136      -0.00617134       0.00668125
C       -0.06247799       5.82502473       3.39384057       0.00000000       0.00234958      -0.00852169      -0.00589199
C       -1.24556083       7.92544572       3.66940373       0.00000000      -0.00771248      -0.00059020      -0.00435234
C       -2.45044511      10.05250456       3.81585224       0.00000000       0.00632197       0.00435834      -0.00405907
C        4.98610487       1.48196044       3.80738850       0.00000000      -0.00840847      -0.00099384      -0.01129068
N        3.86214771       3.57155108       3.99997963       0.00000000      -0.00350247       0.00523114       0.00400903
C        1.21379940       7.83433749       3.76158427       0.00000000       0.00525016       0.00285941       0.01050595
C        0.02838701      10.01757372       3.75980915       0.00000000       0.00185455       0.00538596      -0.00757588
C        7.46169810       1.45262391       3.73627064       0.00000000      -0.00843747       0.00154526      -0.00192964
C        6.25681737       3.57111673       3.81862606       0.00000000      -0.00098538      -0.00690949       0.00530719
C        5.02999243       5.68451185       4.02848848       0.00000000       0.01254718       0.00578954       0.00203509
C        3.70583678       7.88840777       4.01419445       0.00000000       0.01108230       0.00317161       0.00486202
C        2.49511052       9.99132915       3.78040151       0.00000000       0.00072968       0.00097980      -0.00554545
C        9.92382843       1.47227757       3.62906728       0.00000000       0.00063670      -0.00594278       0.00452825
C        8.68317688       3.60637832       3.67060007       0.00000000       0.00137428       0.00541958      -0.00736823
C        7.43645271       5.74498854       3.82354074       0.00000000       0.00541159       0.00118093      -0.00074765
C        6.18329364       7.88663870       3.93707656       0.00000000      -0.00518218       0.00257629       0.00104930
C        4.96439307      10.02446969       3.80770951       0.00000000       0.00185742      -0.00573255      -0.00617010
Pd       2.37943769       5.04411609       4.43165207       0.00000000      -0.00036033      -0.00356537      -0.01951238
O        1.97364093       2.93796561       6.18353282       1.00000000      -0.01334126       0.00751499      -0.00856092
O        1.40182260       4.05140506       5.96046581       1.00000000      -0.00487378       0.00057348       0.01539474
