50
Lattice="12.336457 0.0 0.0 -6.168228499999997 10.683685154694365 0.0 0.0 0.0 15.0" Properties=species:S:1:pos:R:3:forces:R:3 energy=-432.94178848141564 free_energy=-432.94178848141564 stress="-7.211786550370691e-05 0.0016596633723768303 1.0546795053260788e-05 0.0016596633723768303 0.0007056155589927297 1.4024150336320187e-05 1.0546795053260788e-05 1.4024150336320187e-05 -1.461838412670273e-06" pbc="T T T"
C       -0.00880941      -0.01762916       3.67950561       0.00726108       0.00314070      -0.00840684
C       -1.24204714       2.11496823       3.75926042       0.00208701      -0.00986399      -0.00045496
C       -2.47166634       4.25371399       3.78788130       0.00990115      -0.00025106      -0.00303313
C       -3.71606129       6.38766436       3.72442436      -0.00851412      -0.00655824       0.00278008
C       -4.96648031       8.51716828       3.64182846      -0.00872233       0.00214076      -0.00083551
C        2.44624075       0.02596132       3.72503458      -0.00302711      -0.00109254       0.00434230
C        1.19359541       2.13514250       3.78916807       0.00346676       0.00852860       0.00683712
C       -0.02910236       4.20962334       3.91585952      -0.00709012       0.00501764       0.00584976
C       -1.23966858       6.37084600       3.89066494      -0.00175699      -0.00425396       0.00118347
C       -2.49047498       8.52627554       3.79211906       0.00349611      -0.00051179       0.00126616
C        4.90436129      -0.01378549       3.79668967      -0.00082516       0.01472749       0.00411700
C        3.71756261       2.12963911       3.68727524       0.00103604       0.00135688      -0.01562839
B        1.21940710       6.39828068       4.31184057      -0.00468511       0.00359595      -0.01096967
C       -0.02059809       8.52949048       3.91751528       0.00503528      -0.00677649       0.00234989
C        7.38256572      -0.01559121       3.81673819      -0.01016807       0.00418032       0.00631707
C        6.16442587       2.09894778       3.75473926       0.00385959       0.00267026       0.00227821
C        4.98537138       4.18164504       3.54458943       0.00490491      -0.00190845      -0.00667989
S        3.42426605       6.22830710       3.01061411       0.00245928       0.00887172       0.00874107
C        2.44000175       8.54666663       3.77717125      -0.00019760       0.00517570      -0.00245417
C        9.86128276      -0.01673366       3.71893331       0.00305365      -0.00788069      -0.00041706
C        8.63117271       2.11495066       3.77311258      -0.00091915       0.00831147      -0.00326979
C        7.40640270       4.24933311       3.71101453      -0.00349268      -0.01080703      -0.01217677
C        6.14146542       6.36123706       3.52666039       0.00615449      -0.00096571      -0.00088640
C        4.90257708       8.50826911       3.53989212      -0.00271227      -0.00448169      -0.00122051
C       -0.00031164       1.41852786       3.73952493       0.00811528       0.00187083      -0.00183832
C       -1.24224526       3.52642634       3.80707605       0.00367220      -0.00821245       0.00473094
C       -2.48040875       5.67247413       3.79698865      -0.00170328      -0.00194978       0.00143597
C       -3.72425720       7.81272022       3.71737677      -0.00624184      -0.00058538      -0.00083590
C       -4.94774413       9.96339284       3.67967603      -0.00187742      -0.00045694      -0.00505027
C        2.45086357       1.47894764       3.73259187       0.00016817      -0.00072113      -0.00283239
O        1.16128509       3.51190516       3.95106666      -0.01034111       0.00875843       0.00270939
C       -0.03009676       5.61252707       3.99895192      -0.00145339       0.00443223       0.00401303
C       -1.25372337       7.80469314       3.88524136       0.00505242      -0.00717105       0.00747776
C       -2.49862623       9.96711324       3.76987157       0.00216121       0.00710773       0.00980808
C        4.91082992       1.41585429       3.74903037       0.00485761       0.01285055       0.00491791
O        3.77226470       3.50362925       3.56061160       0.00331111       0.00167492      -0.00245178
C        1.22585872       7.86056113       3.96966452       0.00664811      -0.00263651      -0.00188895
C       -0.02680586       9.96279202       3.84455786      -0.00765107      -0.00084109       0.00342727
C        7.39007143       1.40334926       3.78896863      -0.00044924       0.00584468      -0.00250279
C        6.18594322       3.50778079       3.68719705       0.00040230      -0.00621879      -0.00071479
C        4.96310542       5.57240476       3.42346439       0.01140816      -0.00070729      -0.00668068
C        3.64905703       7.84776534       3.55423716      -0.00617830       0.00205056      -0.00268756
C        2.45340148       9.97208329       3.77351998      -0.00560567       0.00256808       0.01346787
C        9.86840163       1.40784210       3.75065362      -0.00352302      -0.00538279       0.01052902
C        8.63603520       3.53814740       3.76299661       0.00537140       0.00718945      -0.00740946
C        7.38837719       5.66742689       3.65644984      -0.00401391      -0.01303142      -0.00500730
C        6.13455150       7.79314528       3.54417810      -0.00573637       0.00043364       0.00374854
C        4.92051801       9.94705717       3.64268716       0.00915075      -0.00483799      -0.00728079
Pd       2.70722577       5.45708657       5.29349976      -0.00283766      -0.00345923       0.00084719
O        3.79463609       6.83927285       5.86430253      -0.00331108      -0.01093512       0.00043899
