51
Lattice="12.336457 0.0 0.0 -6.168228499999997 10.683685154694365 0.0 0.0 0.0 15.0" Properties=species:S:1:pos:R:3:initial_magmoms:R:1:forces:R:3 energy=-437.1686525077145 free_energy=-437.1686525077145 stress="-0.004149079266216731 0.00031659749901787716 -7.2516434253944264e-06 0.00031659749901787716 -0.004089476802796568 1.0479716159358408e-06 -7.2516434253944264e-06 1.0479716159358408e-06 8.917778024161474e-06" pbc="T T T"
C       -0.06630343       0.03815933       3.87320101       0.00000000       0.00125118       0.00143507       0.00031567
C       -1.30548708       2.16903996       4.00070399       0.00000000      -0.00080500       0.00459735       0.00249417
C       -2.56681689       4.30930713       3.96122831       0.00000000      -0.00230632      -0.00220890       0.00238037
C       -3.77958962       6.44829585       3.80355357       0.00000000      -0.00229492       0.00128365       0.00589454
C       -5.01257248       8.57929226       3.73996508       0.00000000      -0.00552687      -0.00050834      -0.00337669
C        2.40326471       0.02313518       3.83103852       0.00000000       0.00034026      -0.00081234      -0.00338319
C        1.19244566       2.15979834       3.96305540       0.00000000      -0.00153722       0.00289837       0.00504053
C       -0.15144830       4.32432146       4.18437711       0.00000000       0.00062869      -0.00162564      -0.00911026
C       -1.34392946       6.46170332       4.07086672       0.00000000      -0.00363058      -0.00416742       0.00274611
C       -2.54189757       8.58237925       3.90282327       0.00000000       0.00366081      -0.00169018       0.00546811
C        4.86948243       0.03218209       3.76865295       0.00000000      -0.00353394       0.00298670       0.00341559
C        3.62562393       2.10069852       3.40482028       0.00000000      -0.00017631      -0.00554717       0.00202194
B        1.18276571       6.41250791       4.22568781       0.00000000       0.00233685      -0.00610890       0.00323732
C       -0.06581610       8.57885013       3.97621949       0.00000000       0.00775278       0.00308772       0.00529505
C        7.32878660       0.04259703       3.83674803       0.00000000      -0.00273056       0.00376620       0.00323092
C        6.10395139       2.16162810       3.50546863       0.00000000       0.00161438      -0.00246919       0.00702484
C        5.01568072       4.32122040       2.94694159       0.00000000       0.00296323       0.00136181      -0.00182372
S        3.49987257       6.47826931       2.53837134       0.00000000      -0.00437207      -0.00570004       0.00116426
C        2.40464082       8.59960732       3.79787001       0.00000000       0.00502175       0.00304356       0.00710540
C        9.80428219       0.04354975       3.85757045       0.00000000       0.00404030       0.00495054       0.00083369
C        8.56371756       2.17228332       3.81896278       0.00000000      -0.00052476       0.00529265      -0.00262519
C        7.34990510       4.30620131       3.57722279       0.00000000      -0.00293584       0.00280999       0.00063596
C        6.13946735       6.46452599       3.35336462       0.00000000       0.00185404       0.00125425       0.00689003
C        4.87047503       8.59463683       3.57839015       0.00000000      -0.00234777      -0.00452598      -0.00320784
C       -0.05714108       1.46985088       3.97370916       0.00000000      -0.00211154       0.00380502       0.00164791
C       -1.34018570       3.58524465       4.07027450       0.00000000      -0.00111506       0.00203940       0.00005294
C       -2.56851459       5.73530103       3.96140236       0.00000000      -0.00455791      -0.00473022       0.00196867
C       -3.77579294       7.87146564       3.82128963       0.00000000      -0.00138757       0.00232982      -0.00628340
C       -5.00713888      10.00362865       3.83643646       0.00000000       0.00026265      -0.00037572      -0.00398919
C        2.41210332       1.45055287       3.76196556       0.00000000      -0.00181618      -0.00039711       0.00293255
B        1.19134443       3.63886183       4.22558458       0.00000000       0.00376154       0.00297909       0.00317738
C       -0.15619363       5.72360773       4.18680159       0.00000000      -0.00222008      -0.00361642      -0.00937550
C       -1.31148183       7.87803067       3.99829837       0.00000000       0.00750916      -0.00120123       0.00266902
C       -2.53352578      10.00241211       3.83680651       0.00000000       0.00030023      -0.00170180       0.00005201
C        4.87083938       1.45034662       3.54146386       0.00000000       0.00193284      -0.00265427      -0.00428106
S        3.52179926       3.54561970       2.47155555       0.00000000      -0.00621838      -0.00817107      -0.00202014
C        1.18265758       7.88941440       3.97917774       0.00000000       0.00759888      -0.00235269      -0.00003630
C       -0.06846941      10.00858208       3.86528399       0.00000000      -0.00327898       0.00433987       0.00050705
C        7.32431497       1.46515204       3.72661684       0.00000000       0.00313007       0.00082474      -0.00471623
C        6.14114002       3.57622543       3.33574530       0.00000000       0.00015875      -0.00148363       0.00058098
C        5.01597195       5.71702732       2.95227545       0.00000000       0.00618100       0.00118813      -0.00133724
C        3.61923848       7.94636519       3.44512008       0.00000000      -0.00249789      -0.00018682      -0.00235968
C        2.40271247      10.02649446       3.85495951       0.00000000       0.00072723       0.00615062      -0.00349768
C        9.79863551       1.46393398       3.91025860       0.00000000      -0.00073138       0.00674176       0.00287046
C        8.55969121       3.59426024       3.80021804       0.00000000      -0.00354902       0.00332166      -0.00405284
C        7.34900004       5.73328818       3.58558487       0.00000000       0.00006454       0.00182192       0.00031737
C        6.10245416       7.87974768       3.53535691       0.00000000      -0.00412332      -0.00205299      -0.00244219
C        4.86976675      10.01562855       3.79736725       0.00000000       0.00301815      -0.00282455      -0.00427113
Pd       2.62869832       5.04788334       4.48557833       0.00000000      -0.00225334       0.00489706      -0.00014513
O        4.30647615       3.32707676       5.80208748       1.00000000      -0.00811258      -0.00221773       0.00267575
O        4.20945380       4.59103765       5.79957485       1.00000000       0.01058610      -0.00987661      -0.01231200
