50
Lattice="12.336457 0.0 0.0 -6.168228499999997 10.683685154694365 0.0 0.0 0.0 15.0" Properties=species:S:1:pos:R:3:forces:R:3 energy=-445.76102751758896 free_energy=-445.76102751758896 stress="-0.004963024063843316 0.00015985072736225347 -1.7727821777060806e-05 0.00015985072736225347 0.004510711974541255 -1.0314311649113522e-05 -1.7727821777060806e-05 -1.0314311649113522e-05 -4.093341350798589e-06" pbc="T T T"
C        0.02061776      -0.01130215       3.76008810      -0.00148341      -0.00315890       0.00340483
C       -1.22602886       2.09769042       3.67162145       0.00101558       0.00567346       0.00421948
C       -2.45712415       4.24391068       3.51273676      -0.00763879      -0.00195851       0.00140208
C       -3.67683850       6.40055352       3.50951016      -0.00838694      -0.00787203       0.00495040
C       -4.90284928       8.55268196       3.65403813       0.00673749       0.00363176       0.00290654
C        2.48782741       0.04462535       3.76284245       0.00268622       0.00704506       0.00440167
C        1.22931595       2.18373949       3.93363716       0.00248757      -0.00714168       0.00004409
C       -0.04312238       4.22944404       3.90455371       0.00131439      -0.00463614       0.00062984
C       -1.23849010       6.38059293       3.75646678       0.00081114       0.00174448       0.00547316
C       -2.44926400       8.54950781       3.68275176       0.00083615      -0.00377871       0.00443542
C        4.95257925      -0.00491350       3.67256991      -0.00593038       0.00042962       0.00791262
C        3.75143942       2.17094999       3.78628145       0.00365463       0.00118673      -0.00328999
B        1.06344785       6.43157359       4.70068649       0.01062468       0.00516407       0.00446648
C        0.01303263       8.53294319       3.86160076       0.00398302       0.00576525       0.00985336
C        7.43004050      -0.04746872       3.66235872      -0.00077710      -0.00123901       0.00233164
C        6.20366880       2.09854909       3.51050716      -0.00059914       0.00638561      -0.00249243
C        5.01641760       4.22325534       3.63666200      -0.00075627      -0.00433657      -0.01187139
C        3.83216263       6.33239170       4.03853784       0.00468815      -0.00176818      -0.01055425
C        2.46646226       8.46933843       3.95512218      -0.00292861       0.00135596       0.00334377
C        9.88380273      -0.05819382       3.71158883       0.00276122       0.00219828      -0.00924211
C        8.66113545       2.09181162       3.50496367      -0.00299365      -0.00917040       0.00284203
C        7.44009976       4.24834114       3.42010386       0.00722297       0.00017117      -0.00770519
C        6.21824820       6.40051553       3.57924355      -0.00381006       0.00499990       0.00176485
C        4.96087287       8.49818113       3.79632760      -0.01031144      -0.00360465       0.00239220
C        0.01275724       1.41573981       3.78864725      -0.00039966      -0.00251620       0.00176568
C       -1.24837586       3.51514973       3.64692490      -0.00474927       0.00418406       0.00217323
C       -2.46305268       5.67239453       3.54690947      -0.00493705      -0.00108714      -0.00357174
C       -3.67930199       7.83294430       3.60379939       0.00209905      -0.00739275      -0.00487202
C       -4.90640930       9.98298046       3.73769438       0.00504793       0.00627320       0.00037768
C        2.48892217       1.48198460       3.85394347       0.00662185       0.00408781      -0.00326184
N        1.11180797       3.53469236       4.13521614      -0.00442842      -0.00935326       0.00847119
C       -0.08062285       5.63726112       4.00050286       0.01072765       0.00269944      -0.00011756
C       -1.23084259       7.82602635       3.78209091       0.00597193       0.00410788       0.00851510
C       -2.45428701       9.98699689       3.71122938      -0.00451444      -0.00173499      -0.00652739
C        4.96391474       1.41759604       3.62965796      -0.00025903       0.00303685      -0.00485941
N        3.88269026       3.53145413       3.87451061      -0.00552993       0.00217758      -0.01098896
C        1.22554078       7.84720111       4.08668747      -0.00082905       0.00011459       0.00652491
C        0.01838237       9.95382379       3.70925084      -0.00158958       0.00271169       0.00473266
C        7.43273125       1.37777311       3.53175812      -0.00595210      -0.00273007      -0.00281264
C        6.22463963       3.51766586       3.45712758       0.00594718       0.00533635      -0.01027002
C        4.99644124       5.66489064       3.72183470       0.00244126      -0.00456166      -0.00783925
C        3.72840097       7.73610272       3.95369903      -0.00924563      -0.00363627       0.01099404
C        2.48573900       9.90426687       3.76094096       0.00211067       0.00016481       0.00198205
C        9.88455212       1.37094332       3.61083177       0.00360168       0.00227203      -0.00363489
C        8.65873971       3.52292071       3.44027094      -0.00022165      -0.01051009      -0.00251973
C        7.43411699       5.68137527       3.46672162      -0.00772596      -0.00126598      -0.00525880
C        6.20183426       7.82117260       3.66903137      -0.00200926       0.00739232       0.00504880
C        4.95522128       9.92685071       3.76059571      -0.00421741      -0.00453621      -0.00016268
Pd       2.58630209       4.86433550       4.67552547       0.00023414       0.00078113      -0.00151260
O        1.47687481       6.07558592       5.92740434       0.00859768       0.00689831      -0.00399495
