51
Lattice="12.336457 0.0 0.0 -6.168228499999997 10.683685154694365 0.0 0.0 0.0 15.0" Properties=species:S:1:pos:R:3:initial_magmoms:R:1:forces:R:3 energy=-443.21600146111456 free_energy=-443.21600146111456 stress="-0.005525763723222813 0.0006137848436529263 -9.696839855612798e-06 0.0006137848436529263 0.002111411501024235 1.7490265503566832e-05 -9.696839855612798e-06 1.7490265503566832e-05 -1.9354420337491123e-05" pbc="T T T"
C       -0.00068245       0.03972953       3.84909970       0.00000000      -0.00347363      -0.00212005       0.00023683
C       -1.24365176       2.14482254       3.95024825       0.00000000      -0.00123922       0.00078285       0.00424255
C       -2.47117831       4.28835003       4.08820361       0.00000000      -0.00156189       0.00426925      -0.00164689
C       -3.69768563       6.43997259       4.05722071       0.00000000       0.00464744       0.00071729       0.00054035
C       -4.93655842       8.58688897       3.91920158       0.00000000      -0.00204406       0.00198462      -0.00144816
C        2.45803048       0.06640615       3.80604486       0.00000000       0.00049109       0.00058484       0.00404489
C        1.20205092       2.23207836       3.62036729       0.00000000      -0.00272526       0.00041429      -0.00788153
C       -0.03610254       4.27310098       3.82210448       0.00000000       0.00369614      -0.00086428       0.00588724
C       -1.25559281       6.44043126       4.05418040       0.00000000       0.00726115      -0.00409333       0.00116473
C       -2.48154908       8.58899227       4.01300519       0.00000000      -0.00265914      -0.00838308      -0.00278546
C        4.92936900       0.02049861       3.82788903       0.00000000       0.00364369       0.00215592       0.00435591
C        3.71619675       2.08947298       3.28926340       0.00000000      -0.00146098       0.01109268      -0.00161174
N        1.08143662       6.43744671       3.60665042       0.00000000      -0.00430276      -0.00206238       0.00534536
C       -0.01759801       8.55020704       3.91504897       0.00000000      -0.00640678      -0.00618482       0.00433880
C        7.39758372      -0.00921830       3.86697403       0.00000000       0.00449687       0.00572210       0.00783090
C        6.18859075       2.13366624       3.65158671       0.00000000      -0.00254892      -0.00215668      -0.01362653
C        5.15011122       4.30067803       3.11685364       0.00000000      -0.00084870      -0.00195466      -0.00399234
B        3.79635137       6.42489112       3.24502626       0.00000000      -0.00090488      -0.00772988      -0.00516598
C        2.44894826       8.52322471       3.71317328       0.00000000      -0.00185087       0.00421244      -0.00273131
C        9.85884722      -0.00586859       3.88424048       0.00000000       0.00919195       0.00724540      -0.00969605
C        8.63317680       2.13740312       3.96127303       0.00000000       0.00003694      -0.00164899       0.00244012
C        7.43683617       4.28671599       3.87563176       0.00000000      -0.00844971      -0.00388830       0.00517502
C        6.22192974       6.43583488       3.70721771       0.00000000       0.00297122       0.00385275      -0.00830257
C        4.94043523       8.56840930       3.73418408       0.00000000      -0.00112784       0.00374189      -0.00360360
C       -0.00550381       1.46834029       3.82295833       0.00000000      -0.00408427      -0.00402805      -0.00104477
C       -1.25355832       3.56583969       4.00301183       0.00000000       0.00104953       0.00310861       0.00734343
C       -2.47498141       5.71713583       4.10701721       0.00000000       0.00745038       0.00487938       0.01183352
C       -3.70768219       7.87156753       4.01796749       0.00000000      -0.00241404      -0.00391262      -0.00349536
C       -4.93559480      10.01917376       3.87124250       0.00000000      -0.00131010      -0.00120646       0.00149149
C        2.46496181       1.49320036       3.56732404       0.00000000      -0.00030448       0.00445520       0.00172052
N        1.09065444       3.58410320       3.54345974       0.00000000       0.00471495       0.00024596       0.01135772
C       -0.04798213       5.72830767       3.86309364       0.00000000       0.00312171      -0.00521195       0.00468823
C       -1.25016633       7.86571382       4.02047364       0.00000000      -0.00334895      -0.00765657       0.00400885
C       -2.48184933      10.01806162       3.89176582       0.00000000       0.00307653      -0.00357804       0.00403022
C        4.94384123       1.43505827       3.60319127       0.00000000      -0.00369236       0.00759304      -0.00092844
S        3.87523343       3.47844804       2.25018466       0.00000000      -0.00097226       0.00368646      -0.00323509
C        1.19501481       7.79845537       3.74815635       0.00000000      -0.00699783      -0.00192691      -0.00136115
C       -0.00601587       9.97396338       3.88444931       0.00000000       0.00353838      -0.00279179       0.00040340
C        7.39953673       1.42313735       3.85326356       0.00000000      -0.00057594       0.00166601       0.00216726
C        6.24451422       3.55455034       3.56526193       0.00000000      -0.00545962      -0.00618009      -0.00475474
C        5.08590976       5.68160412       3.32273002       0.00000000       0.00554686      -0.00197797      -0.00984110
C        3.69756359       7.87516489       3.58230953       0.00000000      -0.00154860      -0.00017344      -0.00875336
C        2.45362064       9.95100359       3.84296961       0.00000000       0.00878733       0.00977298       0.00338162
C        9.86071246       1.42073695       3.96318301       0.00000000       0.00239896       0.00427810       0.00042068
C        8.64318215       3.56493814       4.02008609       0.00000000      -0.00322338      -0.00038512      -0.00433420
C        7.43191724       5.71703474       3.91456533       0.00000000       0.00025615       0.00111945      -0.00513608
C        6.17751521       7.86226570       3.79464138       0.00000000      -0.00201641       0.00625653      -0.00608544
C        4.93529622       9.99160470       3.84197432       0.00000000       0.00019195       0.00300348       0.00264240
Pd       2.40489484       5.11869580       2.85829502       0.00000000      -0.00523969      -0.00184419       0.00469746
O        1.77569504       4.69510896       6.08333554       1.00000000      -0.00466684      -0.00670099       0.01168734
O        2.78595674       4.40228529       5.43048630       1.00000000       0.01089019      -0.00818090      -0.00601493
