50
Lattice="12.336457 0.0 0.0 -6.168228499999997 10.683685154694365 0.0 0.0 0.0 15.0" Properties=species:S:1:pos:R:3:forces:R:3 energy=-440.52774392020495 free_energy=-440.52774392020495 stress="-0.008060931349801284 0.0018781334863247924 -1.3281208318294281e-05 0.0018781334863247924 0.0030592759412336134 1.0779954882812868e-05 -1.3281208318294281e-05 1.0779954882812868e-05 4.669087289079588e-06" pbc="T T T"
C       -0.01639035       0.00742382       3.81907253      -0.00121902       0.00501570      -0.00081987
C       -1.26106040       2.10911093       4.03534019       0.00729012       0.00240720      -0.00102784
C       -2.50559687       4.26164309       4.08427607       0.00482371       0.00037033      -0.00298731
C       -3.73627989       6.41229625       3.90414332       0.00572034      -0.00717827       0.00413620
C       -4.96074588       8.55859599       3.71879681      -0.00489785      -0.00011659       0.00379659
C        2.44389661       0.06509484       3.81645432       0.01409934       0.00198220      -0.00317899
C        1.19814346       2.19751522       3.88180846       0.00321693       0.00861847      -0.00170943
C       -0.08184589       4.23968572       4.04395171       0.00011985      -0.00098979       0.00290647
C       -1.30524633       6.42144496       4.04565480       0.00015300       0.00368238      -0.00096493
C       -2.51474206       8.57239320       3.91823096      -0.00002514      -0.01472921      -0.00493109
C        4.91296127       0.00202892       3.85759484       0.00627309      -0.00105562      -0.00101680
C        3.72731448       2.18393167       3.65876449      -0.00328522      -0.00226253      -0.00634178
C        1.07961463       6.39223502       3.77040096      -0.01182552       0.00549984       0.01415289
C       -0.04293462       8.52749303       3.88558891       0.00053773       0.00148925       0.00919222
C        7.39348286      -0.04827885       3.89850890      -0.00771776      -0.00580763      -0.00953752
C        6.18771515       2.09240791       3.77729803      -0.00163365      -0.00031885      -0.00134385
C        5.06056507       4.17730501       3.26946226      -0.00518449       0.00656438       0.00088350
P        3.66071555       6.37668711       2.31652437      -0.00391148      -0.00050151       0.00306200
C        2.45053890       8.49422426       3.63204313      -0.00120846       0.00661504       0.00948528
C        9.85265144      -0.04116332       3.86168357      -0.00739741      -0.00046354       0.00914025
C        8.62663412       2.10009495       3.98765323       0.00180568      -0.00642159      -0.00078268
C        7.42297945       4.24980616       3.79321394      -0.00156625       0.00145691      -0.00831622
C        6.19774426       6.38554175       3.42298657       0.00216506       0.00033273       0.01505537
C        4.92429244       8.54120168       3.50169935      -0.00341971       0.00123487       0.00376151
C       -0.02002734       1.43211394       3.93337862       0.00417919       0.00725471      -0.00629137
C       -1.29020896       3.52964632       4.10814593       0.00162397      -0.00266001       0.00035146
C       -2.51687347       5.69593706       4.05013357       0.00960982      -0.00029449      -0.00243592
C       -3.73598180       7.84714551       3.85563271      -0.00513926      -0.01036193      -0.00895123
C       -4.95022869       9.99866963       3.78138781       0.00575665       0.00759118      -0.00275988
C        2.45634965       1.50385542       3.78659968      -0.00043494       0.00922814      -0.00921943
N        1.08088282       3.56110273       3.92342051      -0.00068448       0.00601043      -0.00453735
C       -0.08206511       5.69068416       3.99670571      -0.00729974      -0.00423621      -0.00339254
C       -1.28602300       7.84526862       3.96920861       0.00553251      -0.00303227      -0.00134712
C       -2.50227752      10.00232503       3.86119069       0.01136646      -0.01008947       0.00032485
C        4.93820014       1.41808179       3.76544539       0.00097476      -0.00099145      -0.00966181
N        3.87431287       3.52299678       3.40250868       0.00045610      -0.00435542       0.00252124
C        1.18909868       7.78040969       3.75190709      -0.00030431       0.00533885       0.00761996
C       -0.02432559       9.94734499       3.88566353      -0.00206100      -0.00273700      -0.00029057
C        7.40352442       1.37646778       3.91297925      -0.00165774      -0.00871759      -0.00651479
C        6.23928835       3.49713357       3.60567584      -0.00503600       0.00318280      -0.00210237
C        5.08348142       5.60096764       3.05934955       0.00042536       0.00690169      -0.00199163
C        3.67626862       7.86750356       3.29995275      -0.00444153       0.00670079       0.00051850
C        2.45365911       9.91497239       3.82617483      -0.00798385       0.00345954       0.00413525
C        9.85091999       1.38339744       3.99254053       0.00507864      -0.00166248      -0.00244397
C        8.62465319       3.53334419       3.99291583       0.00045733      -0.00036665      -0.00278071
C        7.40406630       5.68106013       3.72954723       0.00568675      -0.00101315      -0.00456929
C        6.16470071       7.83096035       3.51520049      -0.00426456      -0.00253253       0.00933768
C        4.92159344       9.95430516       3.74435873      -0.00674568       0.00113793       0.00533044
Pd       2.52014420       4.98907435       3.70116553      -0.00087539      -0.00590825      -0.00051953
O        3.09139507       5.43591676       5.42145429       0.00286805      -0.00327136       0.00705615
