50
Lattice="12.336457 0.0 0.0 -6.168228499999997 10.683685154694365 0.0 0.0 0.0 15.0" Properties=species:S:1:pos:R:3:forces:R:3 energy=-440.3184130967378 free_energy=-440.3184130967378 stress="-0.00161216998345763 0.0023179580589135183 1.0753652939497222e-06 0.0023179580589135183 -0.003451921109877883 -1.3020062000993289e-05 1.0753652939497222e-06 -1.3020062000993289e-05 2.9243668192377485e-06" pbc="T T T"
C       -0.01430473      -0.00818568       3.90988067       0.00048422      -0.00599197      -0.00299778
C       -1.23615001       2.13418470       3.94362770      -0.00072271      -0.00137540       0.00356839
C       -2.47080267       4.26607258       3.92124213       0.00353754      -0.00193971      -0.00047014
C       -3.71825207       6.40024036       3.90802233       0.00287949      -0.00352163       0.00613249
C       -4.95956723       8.52985587       3.89455845      -0.00014338      -0.00146644       0.00248218
C        2.44870401      -0.02500528       3.87999287       0.00290579      -0.00375210       0.00012076
C        1.23569145       2.13505681       3.94555174      -0.00136497       0.00405718      -0.00460341
C        0.00238827       4.28387858       3.79400653      -0.00633081       0.00491161       0.00033218
C       -1.26995566       6.40317231       3.61523302       0.00170670       0.00586246      -0.00449768
C       -2.48127303       8.52816426       3.74225139      -0.00456805      -0.00015137       0.00233742
C        4.91554878      -0.01598790       3.75754870      -0.00137510      -0.00119583       0.00214921
C        3.68604095       2.09594744       3.87616002       0.00209854       0.00063965       0.00283821
C        2.50545881       4.23532730       4.07567398      -0.00035255      -0.00124116      -0.00603878
S        1.08914762       6.34573236       2.36221397      -0.00232553      -0.01477528       0.00742978
C       -0.03713350       8.55702839       3.40773400      -0.00144468       0.00211013      -0.00670754
C        7.38317318       0.00159797       3.67643804      -0.00176865      -0.00208127       0.00863036
C        6.16105346       2.11015031       3.86650483       0.00318271      -0.00534353      -0.00874282
C        4.93547974       4.21157151       3.83692222       0.00454612       0.00667465      -0.00188701
S        3.87482376       6.35131843       2.48785019      -0.00008152      -0.00384201       0.00708035
C        2.42805173       8.59026619       3.29798551       0.00305687      -0.00007399      -0.00016094
C        9.85599403       0.00016057       3.78574431      -0.00011785       0.00413548      -0.00101253
C        8.63021971       2.12679770       3.89832156       0.00048142      -0.00217352      -0.00385590
C        7.39960647       4.25619362       3.94561804       0.00539293      -0.00440203       0.00673616
C        6.16144375       6.40401248       3.89631398      -0.00283568       0.00607053      -0.00151112
C        4.91334787       8.53245848       3.75634822      -0.00525495      -0.00213167       0.00949362
C       -0.00186613       1.42223719       3.93789070      -0.00045790      -0.00256151       0.00305183
C       -1.23062686       3.56235360       3.91742407      -0.00064382      -0.00105444       0.00270273
C       -2.48696200       5.68819732       3.85037866       0.00731984      -0.00091699       0.00276445
C       -3.72233055       7.82002354       3.85863842      -0.00210743      -0.00272243      -0.00049189
C       -4.95605444       9.95446314       3.90265929       0.00278913      -0.00408205      -0.00752247
C        2.45120010       1.40167308       3.90933600       0.00029872      -0.00073130       0.00706568
C        1.27141053       3.59137834       3.92926833      -0.00621359       0.00797452      -0.00115018
C       -0.09187007       5.64282639       3.40287180       0.00116322       0.00520066       0.00023989
C       -1.25761756       7.82337777       3.55017012      -0.00335985       0.00424629      -0.00701751
C       -2.48672593       9.95417476       3.78948270       0.00082487      -0.00275469       0.00497044
C        4.92235487       1.40179844       3.83608519       0.00116577      -0.00217938      -0.00012223
C        3.69028352       3.52888568       3.90011189       0.00716142       0.00340706      -0.00094052
C        1.19195129       7.93081047       3.08185263       0.00499469       0.00039989      -0.00120121
C       -0.02108812       9.97452413       3.62138563      -0.00390331       0.00122959      -0.00791821
C        7.39369804       1.41358869       3.82979012       0.00195501      -0.00437682       0.00080074
C        6.16858745       3.53336484       3.89977585       0.00425240      -0.00262249      -0.00550985
C        4.93717054       5.64847550       3.74183259      -0.00993809       0.01218761      -0.01103606
C        3.65909619       7.83324349       3.49283126       0.00051921      -0.00120224      -0.00704686
C        2.45140545       9.98637215       3.59249357       0.00052349       0.00430993       0.00305670
C        9.86490519       1.42024975       3.89116428      -0.00058953       0.00224141       0.00211364
C        8.63253481       3.54902059       3.94625528       0.00525091      -0.00445547       0.00105783
C        7.38512101       5.68377356       3.95426404      -0.00149643      -0.00104156       0.00332428
C        6.12984807       7.81296571       3.85720755      -0.00197357       0.00318626      -0.00138675
C        4.91562473       9.96005765       3.83028346      -0.00276655      -0.00219458      -0.00420351
Pd       3.06949434       6.18686081       4.70546141      -0.00635449       0.00950993       0.00755360
