52
Lattice="12.336457 0.0 0.0 -6.168228499999997 10.683685154694365 0.0 0.0 0.0 15.0" Properties=species:S:1:pos:R:3:initial_magmoms:R:1:forces:R:3 energy=-450.4987985615083 free_energy=-450.4987985615083 stress="-0.0007928034596877091 0.0018676403413064508 5.8814101907970614e-06 0.0018676403413064508 -0.0029947836687917043 -9.542233992288398e-06 5.8814101907970614e-06 -9.542233992288398e-06 -8.876723852779038e-06" pbc="T T T"
C        0.01811430      -0.07386327       3.73079758       0.00000000       0.00675038      -0.00790803       0.00637991
C       -1.20043514       2.06761449       3.79375256       0.00000000       0.00153137      -0.00239325       0.00093939
C       -2.43473119       4.19863551       3.83260609       0.00000000      -0.00201994       0.00041946      -0.00862077
C       -3.68599505       6.32883801       3.83292793       0.00000000      -0.00272159       0.00050828      -0.00555170
C       -4.93946635       8.45390156       3.75040483       0.00000000      -0.00317137      -0.00268467       0.00334887
C        2.47928324      -0.09373800       3.82802750       0.00000000       0.00233383       0.00286245      -0.01015145
C        1.26704135       2.06147960       3.84716308       0.00000000      -0.00868199       0.00648965      -0.00105062
C        0.04400357       4.21457943       3.65993905       0.00000000      -0.00049135      -0.00477247       0.00282791
C       -1.23403861       6.33671907       3.53531808       0.00000000       0.00692356      -0.00680963       0.00651777
C       -2.45177787       8.46072401       3.69124083       0.00000000      -0.00086997      -0.00215438      -0.00399885
C        4.95055400      -0.08230844       3.80385708       0.00000000       0.00264048       0.00382992      -0.00111723
C        3.71893497       2.03853783       4.00698157       0.00000000      -0.00384291      -0.00666081       0.00009771
C        2.49507128       4.16742351       4.20733337       0.00000000      -0.00051232      -0.00209653       0.00193300
S        1.06935465       6.33481504       2.19577806       0.00000000      -0.00027922       0.00363809      -0.00280440
C        0.00017442       8.49066054       3.40057866       0.00000000       0.00026461       0.00073988      -0.00036961
C        7.41614436      -0.05801221       3.67158501       0.00000000      -0.00119277      -0.00419199       0.00616725
C        6.19950232       2.04019027       3.98668344       0.00000000       0.00618250       0.00241328       0.00472587
C        4.96755034       4.15398727       4.11860915       0.00000000      -0.00492619       0.00588487      -0.00035416
S        3.51477156       6.15192460       3.36642041       0.00000000       0.00302280      -0.00066436      -0.00075488
C        2.46051962       8.53410664       3.25101465       0.00000000       0.00048586       0.00343364      -0.00009437
C        9.89339047      -0.05820154       3.64201346       0.00000000      -0.00028188       0.00587038      -0.00384476
C        8.66658691       2.06175588       3.86504123       0.00000000      -0.00044169      -0.00046419       0.00556593
C        7.43559248       4.18786246       3.99779389       0.00000000      -0.00042235      -0.00175670       0.00686412
C        6.18007366       6.31965649       3.85783462       0.00000000       0.00583510       0.00215679      -0.00206013
C        4.93685240       8.46869285       3.55388148       0.00000000      -0.00622201      -0.00070872       0.00568624
C        0.02829664       1.35312075       3.77946415       0.00000000      -0.00015980      -0.00580638       0.00116849
C       -1.19551503       3.49497566       3.77718353       0.00000000      -0.00127473      -0.00269810       0.00153216
C       -2.44979834       5.61996739       3.77124315       0.00000000      -0.00042522       0.00159352       0.00120121
C       -3.69430708       7.74843511       3.76334245       0.00000000      -0.00425607      -0.00014463       0.00711322
C       -4.92555364       9.88421330       3.76271623       0.00000000       0.00728488      -0.00571752       0.00329722
C        2.48435829       1.33192561       3.90727192       0.00000000      -0.01060400       0.00266086       0.00070721
C        1.28737657       3.50514798       3.84865459       0.00000000      -0.00034047       0.00464112      -0.00597327
C       -0.04500152       5.58739405       3.29681060       0.00000000       0.00560688      -0.00961874      -0.00184884
C       -1.22513511       7.75863633       3.50865271       0.00000000       0.00291760      -0.00548738       0.00307635
C       -2.45376892       9.88571124       3.77613920       0.00000000       0.00331843       0.00125235       0.00742688
C        4.96016348       1.33122130       3.94917082       0.00000000       0.00441127       0.00251324      -0.00023399
C        3.72917733       3.45620672       4.10335390       0.00000000      -0.00213845      -0.00470711      -0.00812004
C        1.21431933       7.86049369       3.04944829       0.00000000       0.00199590       0.00399723       0.00164926
C        0.01284632       9.90804112       3.64423327       0.00000000      -0.00169170       0.00023021      -0.00368765
C        7.43007488       1.34829019       3.85918591       0.00000000       0.00316371      -0.00455276       0.00564066
C        6.21386260       3.45807654       4.07534811       0.00000000      -0.00286428       0.00436605       0.00529852
C        5.00107705       5.54376953       3.93184071       0.00000000       0.00145555       0.00860439       0.00685367
C        3.68973085       7.84581972       3.34999206       0.00000000      -0.00255060      -0.00312207      -0.00949096
C        2.48037461       9.93624749       3.51842828       0.00000000       0.00003324       0.00327182      -0.00082224
C        9.90035810       1.35828110       3.77539932       0.00000000      -0.00002159       0.00428661      -0.00330591
C        8.67080349       3.48226011       3.92294204       0.00000000      -0.00151840      -0.00068774      -0.00036647
C        7.42487983       5.61123126       3.92957275       0.00000000       0.00185656      -0.00267166      -0.00898128
C        6.15906923       7.73999594       3.70874735       0.00000000      -0.00364213       0.00082636      -0.00260490
C        4.95224884       9.90768462       3.62921672       0.00000000       0.00029746       0.00113515      -0.00453018
Pd       2.37342730       5.76010506       5.32817477       0.00000000       0.00239928       0.00871661      -0.02638384
O        3.35796539       8.33700358       6.14200961       1.00000000      -0.00798911       0.00363599      -0.00182120
O        2.27207476       7.68978694       6.22227176       1.00000000       0.00484286      -0.00149841       0.02292488
