50
Lattice="12.336457 0.0 0.0 -6.168228499999997 10.683685154694365 0.0 0.0 0.0 15.0" Properties=species:S:1:pos:R:3:forces:R:3 energy=-440.4555960294602 free_energy=-440.4555960294602 stress="-0.008147792846392008 -0.0016375414792458415 -5.599810266680622e-06 -0.0016375414792458415 0.004810180876225366 -3.0806514922259657e-06 -5.599810266680622e-06 -3.0806514922259657e-06 7.181952489989827e-06" pbc="T T T"
C       -0.02160558       0.02474088       3.89301748      -0.00622169       0.00088817      -0.00543592
C       -1.28479803       2.12011425       3.99854067      -0.00328906       0.00258649       0.00923907
C       -2.51700783       4.27252310       4.08848637      -0.00073635       0.00343816      -0.00791925
C       -3.70918272       6.43620475       4.00183419       0.00028631      -0.00174939      -0.01586857
C       -4.92941979       8.59587083       3.90144344      -0.00171366      -0.00151246       0.00396792
C        2.44663001       0.07038303       3.85112511       0.01097880      -0.00228511       0.00497030
C        1.16928692       2.21234585       3.78293818      -0.00299172       0.00377680       0.00367186
C       -0.09269067       4.25524603       4.02930139       0.00571474       0.00192777       0.00609489
C       -1.28935891       6.43250467       4.14459447       0.00059202       0.00530067      -0.00020445
C       -2.48797077       8.59074542       4.01970509      -0.00568845       0.00028456       0.00432419
C        4.91611713       0.02062036       3.77312765       0.01246538      -0.00956913      -0.00586027
C        3.67019949       2.11401756       3.31121194      -0.00243986      -0.00849526       0.00326019
N        1.07405054       6.39777662       3.92793466       0.00294768       0.00318933      -0.00080315
C       -0.02838840       8.53463751       3.95515010      -0.00155968      -0.00088431       0.00416276
C        7.38292214      -0.03392375       3.79755713      -0.00462117       0.00705818      -0.00208461
C        6.16952748       2.12985027       3.51197580      -0.00499084       0.00480827       0.01389572
C        5.11940574       4.34296989       2.98660367      -0.00012121       0.00627451       0.00157279
C        3.87639853       6.44090330       3.31405476      -0.00159876      -0.00435907       0.00064769
C        2.44087529       8.46612286       3.76858193       0.00175970       0.00543738       0.00062247
C        9.83554607      -0.03813537       3.86791665      -0.00693023      -0.00926936      -0.01130799
C        8.60094478       2.11789024       3.87280127       0.01103016      -0.00680517      -0.00309711
C        7.41718498       4.28389051       3.71171346      -0.00275351      -0.00004966       0.00913590
C        6.25482811       6.46760573       3.55244200      -0.00411948       0.00081589      -0.01235491
C        4.94372134       8.55111529       3.72742617      -0.00396410      -0.00603548      -0.01242570
C       -0.04017741       1.44822405       3.91029583      -0.00358685       0.00516497       0.01330440
C       -1.30522028       3.54193593       4.08912319       0.00197866       0.00679326      -0.00132413
C       -2.50524719       5.70446416       4.11971279       0.00091199       0.00377309       0.00005359
C       -3.71001655       7.87226170       3.99552674      -0.00410382      -0.00345301       0.00431248
C       -4.94296469      10.02252084       3.90470704       0.00260924       0.00184868       0.00230755
C        2.43951174       1.49691991       3.65441774      -0.00118168      -0.00390134       0.00533976
N        1.05420547       3.57231348       3.79464483       0.00970045       0.00563265       0.01240032
C       -0.08492833       5.71464462       4.07490299       0.00128269       0.00510727      -0.00580764
C       -1.26385642       7.85880458       4.06787178      -0.00888508       0.00535668      -0.00436745
C       -2.49015807      10.01974054       3.89306592       0.01230757      -0.00418233      -0.00317528
C        4.91793803       1.43341747       3.51534623      -0.00103311      -0.00775911       0.00365633
P        3.68401700       3.58208062       2.28179717       0.00362611       0.00847125       0.00840409
C        1.18638857       7.76178163       3.88608569      -0.00139622       0.00426010      -0.00596862
C       -0.02248932       9.96099999       3.84172947       0.00620078      -0.00550864       0.00015139
C        7.37698121       1.40419022       3.73023487       0.00018776       0.00702780       0.00874044
C        6.22244575       3.56841109       3.38358368      -0.00455240       0.00508967       0.00402198
C        5.08673166       5.76419810       3.18476700      -0.00501416      -0.00084232       0.00986449
C        3.71156684       7.79116659       3.60833764      -0.00048507      -0.00498327      -0.00775769
C        2.43932710       9.90077292       3.82158468      -0.00971084       0.00118697      -0.00648225
C        9.82479685       1.39301783       3.93924747       0.00712845      -0.01121024      -0.00674863
C        8.60414632       3.55339630       3.92284529       0.00338464      -0.00383206      -0.00825111
C        7.43291439       5.72012562       3.76842343      -0.00258660       0.00198259      -0.01252909
C        6.19369480       7.87508104       3.73944073      -0.00165774      -0.00151124      -0.00289959
C        4.91783689       9.96429168       3.85046093      -0.00861843      -0.00740295      -0.00333763
Pd       2.54619550       4.99162696       3.65346893       0.00672001      -0.00831394      -0.00206217
O        3.06335349       4.50951708       5.37920062       0.00473864       0.00643369       0.00995065
