49
Lattice="12.336457 0.0 0.0 -6.168228499999997 10.683685154694365 0.0 0.0 0.0 15.0" Properties=species:S:1:pos:R:3:forces:R:3 energy=-432.91298142064255 free_energy=-432.91298142064255 stress="-0.006396530513907853 -0.00023915318470026648 -7.415059962725603e-06 -0.00023915318470026648 0.003644323789108748 4.6096660549129245e-06 -7.415059962725603e-06 4.6096660549129245e-06 2.4764872151511334e-06" pbc="T T T"
C        0.00609673       0.01028627       3.73360094      -0.00072432       0.00202768       0.00551656
C       -1.24594578       2.12357892       3.48123634      -0.00047175       0.00464295      -0.00273879
C       -2.50472485       4.27531775       3.61204991       0.00884956       0.00230072      -0.00206997
C       -3.71011882       6.42386543       3.83764925      -0.00109606       0.00146962      -0.01622675
C       -4.92402188       8.57108549       3.90736258      -0.00494296      -0.00385442      -0.00137754
C        2.47521974       0.03680471       3.78359701      -0.00131581      -0.00082029       0.00220457
C        1.24557966       2.08785272       3.32015572      -0.00378233      -0.00562275       0.00302240
C       -0.15532262       4.32157789       3.06708272       0.00434819       0.00628228       0.00042170
C       -1.30564470       6.44508561       3.52827289       0.00382913       0.00232267      -0.00616467
C       -2.47265166       8.57584840       3.79849002      -0.00231363      -0.00135069       0.00284887
C        4.94937612       0.00854063       3.83653789       0.00488032      -0.00058587       0.00029490
C        3.72031615       2.19709715       3.79988020       0.00208918       0.00720230       0.00381764
C        1.11176835       6.36959393       3.58286997      -0.01533637       0.00246169      -0.00491584
C        0.00189230       8.52435828       3.74971943       0.00023006       0.00248761      -0.00311617
C        7.42241765      -0.03878719       3.84340387       0.00439173       0.00435219      -0.00917405
C        6.19100491       2.13053048       3.92705582       0.00161227      -0.00674615      -0.00595252
C        4.96241451       4.30405165       4.07246424       0.00399781       0.00274467      -0.00820842
O        3.85366529       6.46294413       4.24965475       0.00259061      -0.00809531      -0.00051216
C        2.50340442       8.46202129       3.87575968       0.00292809      -0.00133897       0.00776248
C        9.87330617      -0.03289455       3.78256349       0.00110661      -0.00297405       0.00289167
C        8.64190692       2.11819642       3.77842254       0.00256407      -0.00229892       0.00558618
C        7.41050048       4.27285113       3.93487969      -0.00403529      -0.00322252       0.00688458
C        6.20541169       6.43394560       4.06387705      -0.00316521       0.00093820      -0.00441402
C        4.95942286       8.54762660       3.96044704       0.00373148      -0.00034637       0.00201573
C       -0.00665287       1.42438054       3.50385948      -0.00520939       0.00105491       0.00420679
C       -1.28992230       3.55256614       3.37256149       0.00710221       0.00452174      -0.00394994
C       -2.50605936       5.70644835       3.64992938       0.00679425       0.00236389      -0.00899898
C       -3.69646692       7.85565196       3.85539091      -0.00475182      -0.00144491       0.00140222
C       -4.92293563      10.00147566       3.81412436      -0.00315527      -0.00358347      -0.00416598
C        2.47382568       1.46902865       3.65145845       0.00223136       0.00307740       0.00250440
S        1.21917952       3.52435200       2.32679192      -0.01067646      -0.00393314       0.00422067
C       -0.09706080       5.72563587       3.31168632      -0.00467919       0.00237460      -0.00308089
C       -1.24911925       7.85413219       3.69612315       0.00151565      -0.00004577       0.00648483
C       -2.46174300       9.99805406       3.82388707       0.00178529       0.00012565       0.00561593
C        4.95736094       1.43553669       3.87244788      -0.00030365      -0.00035685      -0.00186312
C        3.77917627       3.57944194       3.93232253      -0.00511190       0.00802456      -0.00105261
C        1.23722844       7.74792117       3.75066394      -0.00226043      -0.00180922      -0.00235493
C        0.01195563       9.94963973       3.82541450       0.00648998       0.00359603      -0.00172655
C        7.42273902       1.39500513       3.86445773       0.00242604      -0.00078712      -0.00298353
C        6.19670469       3.55826469       4.00340027      -0.00098624      -0.00757090      -0.00607091
C        5.01906818       5.72580911       4.15039599       0.00345007       0.00052105      -0.00011414
C        3.75653534       7.83045068       4.00569460       0.00606897      -0.00240565       0.00663682
C        2.48671339       9.90493476       3.83848840       0.00109804      -0.00034430       0.01049049
C        9.87496645       1.40569166       3.68019675       0.00229643      -0.00124036       0.00348607
C        8.63129013       3.54992550       3.78485761       0.00393532      -0.00110787       0.00165165
C        7.41602404       5.69986204       3.95680382      -0.00267211       0.00028848       0.00445582
C        6.19684181       7.85783539       3.99768049      -0.00313578      -0.00119990       0.00255802
C        4.94262148       9.96747168       3.82397503       0.00166870       0.00131802       0.00583612
Pd       2.26984879       4.82765477       3.93507446      -0.01388545      -0.00341312      -0.00158466
