52
Lattice="12.336457 0.0 0.0 -6.168228499999997 10.683685154694365 0.0 0.0 0.0 15.0" Properties=species:S:1:pos:R:3:forces:R:3 energy=-450.27704457502773 free_energy=-450.27704457502773 stress="-0.008501738243137174 0.0032441980649653757 -3.6788138557202544e-06 0.0032441980649653757 0.002344272811396853 -2.7983931738137385e-05 -3.6788138557202544e-06 -2.7983931738137385e-05 1.3106066153155127e-05" pbc="T T T"
C        0.01807492      -0.00908349       3.75250334      -0.00000898       0.00266626       0.00791748
C       -1.21621296       2.11245320       3.50403259       0.00174204      -0.00128990       0.00614642
C       -2.47213752       4.26149249       3.59353174      -0.00037439       0.00349741      -0.00211127
C       -3.70159484       6.40741002       3.81649324      -0.00092167      -0.00129302       0.00406441
C       -4.91926093       8.55401687       3.90784646       0.00433154       0.00294675      -0.00059591
C        2.48481502       0.02462845       3.89291033       0.00361800      -0.00045609       0.00417214
C        1.28321694       2.10905152       3.47940528       0.00130623      -0.00219390       0.00319881
C       -0.10000874       4.33279843       3.13670183      -0.00364183      -0.00443402      -0.00018189
C       -1.30988173       6.45030554       3.49453908      -0.00189823      -0.00164709       0.00470760
C       -2.47582684       8.56370800       3.82692089       0.00124287      -0.00026812       0.00367139
C        4.95557419      -0.00919813       3.90770219      -0.00038322      -0.00179283      -0.00020852
C        3.76200488       2.16168542       3.96241021      -0.00313041      -0.00045759      -0.00210350
N        1.05705101       6.41461600       3.53079045       0.00285173       0.00006999       0.01194895
C       -0.01536942       8.53051759       3.72015260      -0.00379977       0.00010870       0.00091845
C        7.43311074      -0.05763064       3.82695597       0.00535863      -0.00460019       0.00814524
C        6.22378623       2.09135158       3.96371509      -0.00437458       0.00093484       0.00747555
C        5.02126082       4.21367548       4.07303777      -0.00219107       0.00061494      -0.00114866
C        3.82124279       6.35973035       4.01084535      -0.00783470      -0.00184803       0.00044877
C        2.46457006       8.45092600       3.80386420       0.00201770      -0.00019708      -0.00005320
C        9.88708522      -0.05480206       3.75103593       0.00016955      -0.00080655       0.00027289
C        8.67213761       2.09534938       3.76204461       0.00268098       0.00314476       0.00271723
C        7.44781857       4.24411280       3.91198725      -0.00038920      -0.00342201      -0.00150099
C        6.21837621       6.39900238       3.99129465       0.00070597      -0.00416698       0.00261456
C        4.95389558       8.50804471       3.89435799      -0.00072300       0.00217580      -0.00308742
C        0.02711920       1.41523361       3.55989475       0.00218131      -0.00011467       0.00084955
C       -1.24928359       3.55083709       3.38900064      -0.00421756      -0.00278347      -0.00505790
C       -2.49670981       5.69379402       3.62967060      -0.00215474       0.00203123       0.00081496
C       -3.69999158       7.83848696       3.86081638       0.00205385      -0.00021159      -0.00013072
C       -4.91785095       9.98089762       3.86242991       0.00118687       0.00514983      -0.00369664
C        2.49660501       1.45359638       3.80793900       0.00163693      -0.00239044      -0.00330738
P        1.42503758       3.64554243       2.58409747      -0.00406877       0.00482102      -0.00470359
C       -0.10559968       5.76155200       3.28834005      -0.00007547      -0.00054253       0.00088965
C       -1.26087615       7.85211920       3.68244580      -0.00391382      -0.00243297      -0.00193772
C       -2.45957420       9.98578793       3.90346032       0.00182575      -0.00117125      -0.00235654
C        4.98140551       1.40889021       3.97073349      -0.00483932       0.00018556      -0.00201116
N        3.86302046       3.51575813       4.09238969      -0.00116230      -0.00399084       0.00100726
C        1.19832026       7.76618922       3.67975495      -0.00087961       0.00277227       0.00037675
C        0.01684008       9.94189808       3.83300311       0.00123888       0.00019581       0.00056844
C        7.44875305       1.37226500       3.86197830       0.00007993       0.00062521       0.00427100
C        6.24259589       3.50880576       4.00646335      -0.00227927      -0.00105651      -0.00120445
C        4.99891300       5.66373981       4.04882864      -0.00569870      -0.00058626      -0.00496669
C        3.71342124       7.74157224       3.90347445      -0.00080552      -0.00005943      -0.00524809
C        2.48618846       9.88518886       3.79363335       0.00484031      -0.00268700      -0.00415193
C        9.89984633       1.38243282       3.66600422       0.00158008      -0.00389323      -0.00593071
C        8.66728458       3.52976736       3.76494443       0.00141011       0.00394776      -0.00628336
C        7.42995265       5.67722263       3.92316354       0.00331940      -0.00491558       0.00073982
C        6.19024403       7.82303465       3.94154154       0.00240466       0.00015487      -0.00259921
C        4.95455126       9.93467412       3.79631226       0.00041501       0.00205517      -0.01072865
Pd       2.36167721       4.97654815       4.20319818       0.00811417      -0.00058763       0.00496244
O        1.80166377       5.51972773       6.10994362       0.00205861       0.00143240      -0.00431089
O        2.59399603       4.71388614       7.00004722       0.00318036       0.01332788       0.00635016
H        2.74592644       5.35218559       7.72823184      -0.00378529       0.00343827      -0.00963293
