50
Lattice="12.336457 0.0 0.0 -6.168228499999997 10.683685154694365 0.0 0.0 0.0 15.0" Properties=species:S:1:pos:R:3:forces:R:3 energy=-439.8301314556438 free_energy=-439.8301314556438 stress="-0.008560264413995709 0.0026749261883211068 -2.7336005913484716e-06 0.0026749261883211068 0.002716732300461533 9.716839609783664e-06 -2.7336005913484716e-06 9.716839609783664e-06 -9.80997346365481e-06" pbc="T T T"
C       -0.02166119       0.00026060       3.85045669       0.00173606      -0.00631743       0.00371886
C       -1.26202308       2.10887582       4.01244962       0.00697198       0.00393727      -0.00853856
C       -2.49877655       4.25700970       3.97618738      -0.00350371       0.00214981       0.00453241
C       -3.73198341       6.40606791       3.79763650       0.00439216      -0.00087889       0.00999060
C       -4.96953623       8.54994560       3.69451449      -0.00232562       0.00199198       0.00688541
C        2.44268719       0.04351741       3.83646793       0.00660798      -0.00104658      -0.00414078
C        1.21259977       2.18647402       3.94618382       0.00060831      -0.00294191      -0.00125494
C       -0.07073883       4.27160018       4.06350237      -0.00202552      -0.00778126       0.00627033
C       -1.30909240       6.42694331       4.00992603       0.00599699      -0.00001051      -0.00857280
C       -2.51279530       8.56374063       3.88066388      -0.01194791      -0.00398455      -0.00744102
C        4.92113928      -0.00742962       3.84481950      -0.00107378      -0.00275553       0.00058216
C        3.71912856       2.16445023       3.71135403      -0.00428926      -0.00070523       0.00186225
N        1.07290710       6.40720726       3.92268974       0.00037036       0.00192935       0.00004130
C       -0.03761449       8.51808520       3.91097458      -0.00396571      -0.00047679       0.00126180
C        7.39447918      -0.05290182       3.89111800      -0.00420448      -0.00202119       0.00139449
C        6.19318328       2.08791013       3.70955491      -0.00313486      -0.00417100      -0.00652044
C        5.04088887       4.20653078       3.25582688       0.00010496       0.00286913      -0.00128112
S        3.67162188       6.42297712       2.34371350      -0.00641336      -0.00326051      -0.00895436
C        2.44107097       8.47329531       3.70661052       0.01110742       0.00491207      -0.00424361
C        9.84957438      -0.05069545       3.88284101      -0.00159685       0.01263199       0.00078444
C        8.63126828       2.09447790       3.90028787       0.00023739      -0.00245237       0.00442168
C        7.43094423       4.24069678       3.65288629       0.00132832       0.00014244       0.01083521
C        6.19389412       6.39186858       3.35748206       0.00341352       0.00671895       0.00272266
C        4.91280189       8.52441890       3.53800156       0.00015487       0.00259339      -0.00090251
C       -0.02602733       1.42516459       3.96025508       0.00347167      -0.00447441      -0.00317390
C       -1.28503532       3.53603092       4.05549701      -0.00505625      -0.00022919      -0.00489277
C       -2.51580419       5.68998685       3.94890132       0.00663472       0.00206281       0.00964536
C       -3.73772844       7.83891417       3.79073769      -0.00937837      -0.00390717       0.00354020
C       -4.95691023       9.98688952       3.79612192       0.00666302      -0.00004931      -0.00885280
C        2.45533410       1.47725556       3.84377121      -0.00270658      -0.00097673      -0.00698939
C        1.11653866       3.58348263       4.01249809       0.00363441       0.00056175      -0.00461457
C       -0.08809457       5.72640727       4.03054174       0.00354719      -0.00741778       0.00676380
C       -1.28721654       7.84288126       3.94912616      -0.00745867       0.00135397      -0.00592383
C       -2.49864858       9.99161132       3.85186814       0.00147839      -0.00454655      -0.00069038
C        4.95232224       1.40612884       3.74751744      -0.00489450      -0.00277288      -0.00659240
C        3.86203338       3.53281816       3.52472025       0.00088200      -0.00184184      -0.01682713
C        1.17583492       7.76067793       3.83952169       0.00804676       0.00537294       0.01014541
C       -0.01780424       9.94014658       3.88414780      -0.00312686      -0.00316680       0.00251152
C        7.41099300       1.37068247       3.84689118      -0.00253273      -0.00420074       0.00038852
C        6.23864059       3.49614384       3.51700215       0.00196647      -0.00105682      -0.00033349
C        5.07502004       5.62560502       3.01411275       0.00136355       0.00615034      -0.00285466
C        3.66325115       7.85779901       3.34296898       0.00685325      -0.01018946       0.00345450
C        2.44989224       9.90103195       3.86099310       0.00167607       0.00826319       0.00272992
C        9.84922673       1.37765846       3.95990016       0.00653525       0.01027435      -0.00659619
C        8.63350937       3.52748783       3.86050095      -0.00215146      -0.00314437       0.01264023
C        7.41028753       5.67468366       3.61114229       0.00358588       0.00293742       0.01162640
C        6.15219064       7.82622560       3.49527373       0.00057236       0.00724636       0.00237732
C        4.91677053       9.94292841       3.78278852      -0.00614778       0.00257174       0.00418208
Pd       2.56104864       4.97274936       3.96467903      -0.01426093       0.00921946      -0.00991969
O        3.22768058       5.58512335       5.59079743       0.00225388      -0.00911289       0.00480251
