49
Lattice="12.336457 0.0 0.0 -6.168228499999997 10.683685154694365 0.0 0.0 0.0 15.0" Properties=species:S:1:pos:R:3:forces:R:3 energy=-438.41696993803373 free_energy=-438.41696993803373 stress="-0.00856099977872871 0.0018713925879946874 -2.1633684898178597e-06 0.0018713925879946874 0.0040391619583934535 4.731592239630042e-06 -2.1633684898178597e-06 4.731592239630042e-06 -4.700604010158572e-07" pbc="T T T"
C        0.00477033       0.02126690       3.75214504       0.00469346      -0.00195010       0.00026857
C       -1.24558400       2.11923953       3.69818300      -0.00700264      -0.00286192      -0.00232149
C       -2.48998203       4.26839237       3.57331674       0.00079552       0.00072306       0.00661096
C       -3.71352576       6.42626411       3.55012810       0.00463753      -0.00379944       0.00349841
C       -4.92831280       8.58105294       3.65519321       0.00231704      -0.00291867      -0.00137095
C        2.47669331       0.06978862       3.76476331      -0.00381587       0.00146238       0.00246565
C        1.23799560       2.22210902       3.87932480      -0.00316523      -0.00205359       0.01042400
C       -0.07259733       4.27285159       3.81968884       0.00040217       0.00277317      -0.00389167
C       -1.29181074       6.43628011       3.68434406      -0.00102453       0.00765444      -0.00353865
C       -2.48852379       8.58065379       3.67796003       0.00252886       0.00072130       0.00393433
C        4.93711276       0.00393935       3.74941875      -0.01296969       0.00114632      -0.00364548
C        3.75878478       2.14255434       3.83382159       0.00242075       0.00024281       0.00764614
C        1.08996775       6.40153973       4.06669387      -0.00121184      -0.00283594      -0.00604127
C       -0.02624276       8.53550468       3.81858384       0.00926937      -0.01007310      -0.00119379
C        7.41454524      -0.04477238       3.75621788      -0.00972543      -0.00323876       0.00977962
C        6.19932632       2.10514716       3.64963024       0.00259050       0.00106073      -0.00896880
C        5.02762195       4.24441760       3.67904905      -0.00364471       0.00431559      -0.00722498
C        3.79881707       6.36603723       3.94798585       0.01055782      -0.00472773       0.00024694
C        2.46699247       8.47482840       3.91213169       0.00742865       0.00231563      -0.00101818
C        9.86740091      -0.03893887       3.75396637       0.00721748      -0.00002820       0.00169075
C        8.64278095       2.10743159       3.62228236       0.00242242      -0.00009352      -0.00421190
C        7.41783474       4.26580622       3.52621234      -0.00641640       0.00175132       0.01130811
C        6.19133719       6.41294385       3.59721079       0.00248181       0.01170481      -0.00173890
C        4.95074598       8.52986092       3.76178628      -0.00913616       0.00014863       0.00622785
C        0.00183874       1.44904332       3.77783402      -0.00539822      -0.00199969       0.00409955
C       -1.27901023       3.53991750       3.66110989      -0.00043573      -0.00110623      -0.00043423
C       -2.49903702       5.70526010       3.57544777       0.00411825       0.00028593       0.01743787
C       -3.71020961       7.86050665       3.61434576       0.00613319      -0.00420942      -0.00463364
C       -4.92352134      10.01296052       3.72789860       0.00454004      -0.00467199       0.00370019
C        2.50147956       1.50944883       3.84966105      -0.00041844       0.00022264       0.00632471
C        1.12444614       3.60454165       4.00784579      -0.00138118      -0.00107438       0.01010290
C       -0.09027574       5.70583782       3.84271909      -0.00372425       0.00491875      -0.00673476
C       -1.26421611       7.85554954       3.72253236       0.00534736       0.00369414      -0.00224660
C       -2.47584354      10.01125117       3.73423597      -0.00916900       0.00056334      -0.00073727
C        4.95938020       1.42487229       3.73904183       0.00089213       0.00205969      -0.00738401
O        3.87464133       3.53050199       3.94878789       0.00321674       0.00028058       0.00408770
C        1.20877795       7.78983478       3.94218707       0.01394933      -0.00512146      -0.00832391
C       -0.00052392       9.95167064       3.77391486      -0.01365056      -0.00944471       0.00053920
C        7.41523861       1.38651300       3.66490191       0.00219405      -0.00096089      -0.00040167
C        6.20691433       3.52802202       3.57711415      -0.00703833       0.00242655      -0.00799706
C        4.96968723       5.66202922       3.70968617       0.00883571       0.00549431       0.00050866
C        3.71445144       7.76083361       3.87825114      -0.00180345      -0.00664636       0.00067905
C        2.47203753       9.90800946       3.80865708       0.00228516       0.00459722      -0.01258300
C        9.86349291       1.38757299       3.68134283      -0.00156888      -0.00233325       0.00071322
C        8.63422058       3.54234178       3.55245246      -0.00169484       0.00161154      -0.01037479
C        7.40404563       5.69593519       3.53014993      -0.00231503       0.00381230      -0.00102540
C        6.18029803       7.84053192       3.66180673      -0.00726119       0.00954313      -0.00478310
C        4.94199262       9.95572347       3.75729477       0.00445944      -0.00111702       0.00041903
Pd       2.42093985       5.05564086       4.48546243      -0.00176320      -0.00226391       0.00011206
