52
Lattice="12.336457 0.0 0.0 -6.168228499999997 10.683685154694365 0.0 0.0 0.0 15.0" Properties=species:S:1:pos:R:3:forces:R:3 energy=-449.9318437323303 free_energy=-449.9318437323303 stress="-0.007317323824949156 -0.0024898466301484044 -1.3803834518963137e-05 -0.0024898466301484044 0.0035784519422307655 -5.101891996065621e-06 -1.3803834518963137e-05 -5.101891996065621e-06 -5.542974726531593e-06" pbc="T T T"
C       -0.05883545       0.08296014       3.91536319       0.00402101       0.01766409      -0.00354509
C       -1.32389698       2.18268668       3.96282877      -0.00175472       0.00231112      -0.00266834
C       -2.55404084       4.33231096       3.90604708       0.00914598      -0.00528237       0.00110670
C       -3.74678801       6.49415310       3.80818573      -0.00348851       0.00285498       0.00770773
C       -4.97072456       8.64987860       3.83279393       0.00108921      -0.00054802      -0.00100236
C        2.41540489       0.10728630       3.88265889      -0.00289429       0.00694889       0.00578064
C        1.16301243       2.26091291       3.95105816      -0.00336029       0.00205414       0.00527045
C       -0.12186624       4.32239789       4.10724475       0.00452114      -0.00355471       0.00663215
C       -1.33180222       6.49270840       4.01464274      -0.00312671       0.00294143      -0.00384491
C       -2.52639977       8.63899885       3.91928082       0.00301496       0.00305844      -0.01254951
C        4.88077429       0.07367911       3.78574704      -0.00043201      -0.00828337       0.00463747
C        3.62352175       2.16443718       3.43790831       0.00265949      -0.00478452       0.00118208
C        1.07186198       6.44808465       4.17385110      -0.00895812      -0.00006445       0.00900331
C       -0.06030348       8.59431787       3.97141019      -0.00111640       0.00193437       0.00422991
C        7.34502779       0.03189039       3.81550362      -0.00223561      -0.00543057       0.00411324
C        6.10897927       2.19884645       3.53472910       0.00064412      -0.00166523      -0.00899625
C        4.99152443       4.41532199       3.18438112      -0.00560720       0.00453673      -0.00181965
N        3.82313562       6.47761766       3.72861283       0.00467095      -0.01137722      -0.01295685
C        2.42847354       8.53439406       3.93081079      -0.00193220      -0.00774988      -0.00466495
C        9.79885645       0.03050008       3.87975844      -0.00037449       0.00838043       0.00263020
C        8.56145491       2.18300430       3.78686782      -0.00362241      -0.00227938       0.00516709
C        7.36315917       4.34768576       3.61171779      -0.00188717      -0.00054387       0.00715971
C        6.18524829       6.52991334       3.53678326       0.00191694      -0.00469487       0.00419684
C        4.90464723       8.61211353       3.78932631       0.00357858       0.00274911       0.00514433
C       -0.07409564       1.50638196       3.96540214      -0.00285229       0.01223052      -0.00226419
C       -1.34581289       3.60090094       4.00212161       0.00968381      -0.00417434       0.00373142
C       -2.54215078       5.76686137       3.91654388      -0.00236539      -0.00013232      -0.00280957
C       -3.74713433       7.92510529       3.85764933       0.00289323       0.00268447      -0.00170316
C       -4.98353267      10.07240364       3.90372096      -0.00018995       0.00489218      -0.00647380
C        2.41306648       1.53682384       3.79568034      -0.00100447       0.00715703       0.00849937
C        1.07806020       3.63950001       4.13435593      -0.00377304      -0.00527098       0.00152573
C       -0.12161628       5.75966569       4.11348224      -0.00339494      -0.00230205      -0.00402289
C       -1.30035715       7.91264512       3.97768062       0.00138869       0.00422642      -0.00678461
C       -2.52287828      10.06481051       3.87190101      -0.00379854       0.00087120       0.00074917
C        4.87613896       1.49577077       3.57624675       0.00388113      -0.00860621       0.00185941
S        3.54745446       3.67826806       2.58681907      -0.00321222      -0.00015865       0.00895317
C        1.17972996       7.83494109       4.03190630      -0.00660077      -0.00061030      -0.00459761
C       -0.05624705      10.01887451       3.85784865      -0.00174151      -0.00492327      -0.00116959
C        7.32923006       1.47070382       3.70898297      -0.00132619      -0.00643236      -0.00029504
C        6.13448963       3.63608243       3.42752784      -0.00479906       0.00367305      -0.00776455
C        4.97277431       5.83207584       3.38843594       0.00680699      -0.00558690       0.00277215
C        3.69117639       7.83201803       3.81522678       0.00241268      -0.01186194      -0.01020608
C        2.40993534       9.97146789       3.87665126       0.00010060      -0.00218107      -0.00753457
C        9.78357814       1.45871053       3.88534233      -0.00232427       0.00645471      -0.00460254
C        8.56564267       3.61660936       3.77245629       0.00355183      -0.00237052       0.00073027
C        7.38199856       5.77921624       3.63600018      -0.00145621      -0.00059370       0.00998939
C        6.14616232       7.93803394       3.71857245       0.00097984      -0.00439055       0.00046516
C        4.87820463      10.02863060       3.87602016       0.00483612       0.01398330      -0.00817168
Pd       2.47911997       5.06298459       4.43888314      -0.00140903       0.00692309      -0.00404047
O        3.95552659       4.68805511       5.83261730      -0.00332537      -0.00004250       0.01820269
O        3.95413812       3.33369951       6.25234606       0.00401643      -0.00775087      -0.01558197
H        3.15513983       3.31065971       6.82148894       0.00854963       0.00511731       0.00863044
