51
Lattice="12.336457 0.0 0.0 -6.168228499999997 10.683685154694365 0.0 0.0 0.0 15.0" Properties=species:S:1:pos:R:3:initial_magmoms:R:1:forces:R:3 energy=-448.66505270018496 free_energy=-448.66505270018496 stress="-0.00464987379266461 0.0017679004314418714 -3.6322987743835237e-06 0.0017679004314418714 0.006473765206465531 -6.572034389904271e-07 -3.6322987743835237e-06 -6.572034389904271e-07 -7.833883116623924e-06" pbc="T T T"
C       -0.04455544       0.08418984       3.77562560       0.00000000       0.00407748       0.00539634       0.00238593
C       -1.29188751       2.18352704       3.75394936       0.00000000      -0.00707926      -0.00142798       0.00718878
C       -2.53873031       4.32795735       3.61647808       0.00000000       0.00593666      -0.00095287      -0.00144598
C       -3.76783603       6.48231511       3.55328306       0.00000000      -0.00168335       0.00143572      -0.00069270
C       -4.98326308       8.63676074       3.64765291       0.00000000       0.00285508      -0.00553277      -0.00062579
C        2.42154048       0.12989320       3.71695743       0.00000000       0.00261122      -0.01075482      -0.00042187
C        1.20071832       2.29458561       3.91723144       0.00000000       0.00284720       0.00069297      -0.00162702
C       -0.10480053       4.32922994       3.91183996       0.00000000      -0.00389758      -0.00188521      -0.00484957
C       -1.33639429       6.49104856       3.70529972       0.00000000      -0.00370387       0.00554611       0.00047557
C       -2.53979151       8.63565992       3.64996643       0.00000000       0.00008494       0.00917097       0.00339717
C        4.88744624       0.05788319       3.66291603       0.00000000      -0.00285415       0.01129014      -0.00066225
C        3.70316952       2.20433639       3.63008226       0.00000000      -0.00392791      -0.00082888      -0.01153628
C        1.04144598       6.46304092       4.14313066       0.00000000       0.00207762      -0.00291213       0.00814087
C       -0.07381152       8.58961138       3.79717680       0.00000000      -0.00561421       0.00066471      -0.00060754
C        7.36321302       0.01538433       3.72408948       0.00000000      -0.00656240       0.00006654       0.00224974
C        6.14326391       2.16510245       3.54042860       0.00000000       0.00433811      -0.00114787       0.00219572
C        4.94076745       4.29091926       3.49204040       0.00000000      -0.00069338      -0.00113884      -0.00033167
C        3.74473169       6.41228190       3.98841003       0.00000000       0.00221447      -0.00699668      -0.00907913
C        2.41809879       8.53402395       3.93546524       0.00000000       0.00260236       0.00511273      -0.00004353
C        9.81723080       0.02407293       3.77764086       0.00000000       0.00572753       0.00251953      -0.00279640
C        8.59172770       2.16912681       3.62355629       0.00000000       0.00284537      -0.00031351       0.00269930
C        7.35993175       4.32511991       3.50252932       0.00000000       0.00125487      -0.00539271       0.00149215
C        6.12172593       6.46939734       3.56026393       0.00000000      -0.00084540      -0.00029986      -0.00278983
C        4.89502939       8.58752143       3.77597715       0.00000000       0.00038568      -0.00653481      -0.00502639
C       -0.03770125       1.51782637       3.82429779       0.00000000      -0.00251674       0.00677879       0.00812016
C       -1.32124672       3.60434276       3.72927028       0.00000000      -0.00077787      -0.00460967      -0.00247119
C       -2.54878548       5.76292863       3.60209521       0.00000000      -0.00146787       0.00247158       0.00363837
C       -3.76445857       7.91631818       3.60418203       0.00000000       0.00486326       0.00281776      -0.00878706
C       -4.97789572      10.06978872       3.72247543       0.00000000       0.00175502      -0.00654105      -0.00146128
C        2.45113576       1.56726418       3.77298518       0.00000000      -0.00089238      -0.01030167      -0.00415826
C        1.08808610       3.67517511       4.14106811       0.00000000      -0.00388786       0.00176789       0.00064357
C       -0.12970441       5.76766799       3.90482013       0.00000000      -0.00079764       0.00102475      -0.00861399
C       -1.31248842       7.91027204       3.70701314       0.00000000      -0.00767191       0.00626625       0.00584010
C       -2.52784156      10.06555461       3.67491623       0.00000000       0.00510143       0.00447138      -0.00266199
C        4.90388150       1.47995623       3.59925077       0.00000000      -0.00031502       0.00921021       0.00452863
O        3.76657548       3.57462486       3.49282675       0.00000000      -0.00438658       0.00223280       0.00361989
C        1.15851988       7.84346334       3.95981704       0.00000000       0.00012408       0.00356168       0.01738040
C       -0.05000490      10.00684912       3.72295437       0.00000000      -0.01110716       0.00157426       0.00314864
C        7.36243632       1.44742928       3.61861197       0.00000000       0.00296654      -0.00145287       0.00909286
C        6.14021203       3.59303094       3.47761695       0.00000000      -0.00155417      -0.00338621      -0.00212544
C        4.88909833       5.72047761       3.63148229       0.00000000       0.00280914      -0.00289834       0.00573675
C        3.66291395       7.81171001       3.90449324       0.00000000      -0.00011892      -0.00579151       0.00227946
C        2.42148162       9.96859866       3.81331918       0.00000000       0.00178719       0.00772384      -0.00852628
C        9.81471039       1.45168219       3.71126241       0.00000000      -0.00134681       0.00056577       0.00734090
C        8.58171824       3.60433380       3.56456603       0.00000000       0.00720975      -0.00172231      -0.00867599
C        7.34513681       5.75593537       3.51142453       0.00000000      -0.00305686      -0.00280539       0.00383378
C        6.12263717       7.89745075       3.65481116       0.00000000       0.00107834      -0.00311424      -0.00482205
C        4.89107578      10.01805914       3.78396082       0.00000000       0.00520008      -0.00221024      -0.00634557
Pd       2.37493345       5.17326757       4.79881617       0.00000000       0.00098260      -0.00344131      -0.01762297
O        3.66483341       2.90784606       6.08733688       1.00000000       0.00193887      -0.00463456       0.00397519
O        3.73960710       4.17072275       6.15908210       1.00000000       0.00108438       0.00666557       0.00940409
