49
Lattice="12.336457 0.0 0.0 -6.168228499999997 10.683685154694365 0.0 0.0 0.0 15.0" Properties=species:S:1:pos:R:3:forces:R:3 energy=-435.8608015112154 free_energy=-435.8608015112154 stress="-0.009095838689160538 -0.002177480845612852 5.115116785189543e-06 -0.002177480845612852 0.0015926810349449442 2.0893611324339195e-07 5.115116785189543e-06 2.0893611324339195e-07 8.771773649508216e-07" pbc="T T T"
C       -0.00593934       0.01382898       3.85152046       0.00596004      -0.00375454       0.00483799
C       -1.26913137       2.11186515       3.93271979       0.00032856      -0.00760505      -0.01149900
C       -2.49962909       4.25993142       3.93428063       0.01367952       0.00383080      -0.00511617
C       -3.69204024       6.42431459       3.84227500      -0.00868968      -0.00238964       0.00247482
C       -4.91637103       8.58062433       3.81212617      -0.00519771       0.00039908      -0.00328451
C        2.46888986       0.03501209       3.81734763       0.01016343       0.00187621      -0.00289057
C        1.21579300       2.18607253       3.84791139      -0.01634948       0.00857490       0.00630300
C       -0.06762940       4.25294155       4.05780134      -0.00778922       0.00037092       0.01627865
C       -1.28040995       6.42467759       4.01869350       0.00255078       0.00948666      -0.00620232
C       -2.47335152       8.56990705       3.89150233       0.00697686      -0.00632359      -0.00040158
C        4.93483149      -0.00062364       3.71469427       0.00472968      -0.00212339      -0.00063352
C        3.67968811       2.09083340       3.36398059       0.00387472      -0.01025688       0.00577750
C        1.12784065       6.38285991       4.04416034      -0.00393539      -0.00380521      -0.00779722
C       -0.00914896       8.52583744       3.89651643       0.00671363       0.00427015      -0.00199914
C        7.40095231      -0.03969134       3.73333541      -0.01126841      -0.00982459       0.00731918
C        6.16773420       2.12596433       3.48878437       0.00471427       0.00385169      -0.00407453
C        5.06180794       4.34730257       3.15880988      -0.00564791       0.00350252       0.00377277
N        3.87187067       6.41474703       3.60343573       0.00977073       0.00600778      -0.00277084
C        2.48147963       8.46939698       3.81503986       0.00080643      -0.00157394       0.00216990
C        9.85413678      -0.03829412       3.80846582      -0.00186442       0.00301896      -0.00242059
C        8.61772333       2.11139996       3.76225886      -0.00829779       0.00417500       0.01043669
C        7.42126114       4.27712844       3.63661405      -0.00389311      -0.00127689      -0.01112607
C        6.24789974       6.45886726       3.55461491      -0.00279402      -0.00753551      -0.00477625
C        4.95975073       8.54489123       3.72564095      -0.00093920      -0.00660443      -0.00242529
C       -0.02370604       1.43401420       3.90066538      -0.00326753      -0.00353235      -0.01476815
C       -1.29134569       3.52828797       4.00215183       0.00512895      -0.00983392      -0.00487835
C       -2.48897505       5.69595347       3.94963603       0.00218426       0.00917006      -0.00329312
C       -3.69325196       7.85558147       3.85839195      -0.00410032      -0.00000761       0.00567959
C       -4.92987321      10.00311307       3.84903261       0.00921991       0.00405477       0.00049078
C        2.46527530       1.46481914       3.70646033      -0.00875058       0.00495404      -0.00008089
C        1.13493973       3.56502200       3.98888639      -0.01461328       0.01198162       0.00381104
C       -0.06676807       5.69198267       4.06808544      -0.00346162       0.00088911       0.00523114
C       -1.24818171       7.84404464       3.94755504       0.01060043       0.00605199       0.00449441
C       -2.46974838       9.99418434       3.81448494       0.01032896      -0.00614238      -0.00025623
C        4.93523573       1.42065444       3.50823122       0.00938559      -0.00606759      -0.00053218
S        3.63075616       3.60553525       2.51070432       0.01131058       0.00801243       0.00121590
C        1.23272811       7.76502995       3.92106417       0.00128825       0.00222500       0.00251107
C       -0.00174114       9.94653365       3.77705491      -0.00705262      -0.00340846       0.01206296
C        7.38760337       1.39857426       3.65526643      -0.00636146      -0.00692237       0.00827417
C        6.19947736       3.56378619       3.41644655      -0.00700502       0.00629642       0.00806687
C        5.04310528       5.75943115       3.36341875       0.00406125       0.00269099      -0.01068196
C        3.74298760       7.77348023       3.71459002       0.00086599      -0.00187194      -0.00139192
C        2.46519713       9.90419147       3.78286444      -0.00552776      -0.00112493       0.01108398
C        9.83894876       1.38819734       3.84539640      -0.00546881       0.00431900      -0.00117262
C        8.62157644       3.54430931       3.78899488       0.00521063       0.00827277      -0.00485645
C        7.43854590       5.70732572       3.67504308      -0.00745330      -0.00883966      -0.00693832
C        6.20179666       7.86813106       3.69951430      -0.00398767      -0.01099321      -0.00073667
C        4.93228114       9.96061971       3.80760685       0.00257852      -0.00348973      -0.00522117
Pd       2.52252121       4.96595170       4.09064363       0.01128434       0.00702492      -0.00006682
