51
Lattice="12.336457 0.0 0.0 -6.168228499999997 10.683685154694365 0.0 0.0 0.0 15.0" Properties=species:S:1:pos:R:3:forces:R:3 energy=-444.5361759363938 free_energy=-444.5361759363938 stress="-0.0021117513033102465 3.582452442142792e-05 -1.3315226776448892e-05 3.582452442142792e-05 -0.0034778975987707224 -3.454167042440362e-05 -1.3315226776448892e-05 -3.454167042440362e-05 -1.1060245177607433e-05" pbc="T T T"
C       -0.02451324      -0.02373388       3.86965018       0.00086940       0.00417974       0.00497326
C       -1.25747319       2.11271931       3.99897597      -0.00296025       0.00329955      -0.00776767
C       -2.49431929       4.25312308       3.98459544       0.00343316      -0.00399476       0.00682086
C       -3.72768400       6.39000874       3.87717060       0.00128594      -0.00228788       0.01107197
C       -4.96918701       8.51722538       3.78563673      -0.00462496      -0.00326097      -0.00424878
C        2.44335407      -0.03539276       3.89126902       0.00064692      -0.00434982      -0.00186749
C        1.21621433       2.10362983       3.97556338      -0.00283616      -0.00030893       0.00222771
C       -0.02252944       4.24753104       3.92314347       0.00564528       0.01329076       0.00119209
C       -1.27059023       6.38956583       3.74150867       0.00173153       0.00130430       0.00103609
C       -2.48222163       8.51802750       3.79205363      -0.00051329      -0.00390939       0.00372621
C        4.90845778      -0.01999481       3.83227400       0.00188030       0.00229473      -0.00122740
C        3.67032232       2.10733229       3.90614462       0.00208546       0.00457256       0.00355400
C        2.45467736       4.20436783       4.12854939       0.00023297      -0.00786179      -0.01128146
S        1.16756524       6.28340276       2.62072832      -0.00114721      -0.00843001      -0.00126548
C       -0.02729618       8.53996471       3.55098921      -0.00260603      -0.00390272      -0.00007083
C        7.37486531      -0.00369812       3.76137708      -0.00140358       0.00255520      -0.00611812
C        6.13983020       2.11860042       3.90832013      -0.00005047       0.00652733      -0.00042261
C        4.90739710       4.25611906       3.75120562      -0.00183724       0.00737136       0.00079064
S        3.82263408       6.36453078       2.37964376       0.00613522      -0.01713980       0.00306938
C        2.44646222       8.58961266       3.29715180      -0.00215560      -0.00377905       0.00656100
C        9.84823071      -0.00498816       3.78154487       0.00256387      -0.00294839       0.00375078
C        8.60974911       2.11995740       3.95574515      -0.00093012      -0.00423941       0.00079310
C        7.37628558       4.25380275       3.91675392      -0.00253933      -0.00201969      -0.00645553
C        6.15670593       6.39207322       3.65080562      -0.00588187      -0.00201348       0.00871865
C        4.91571235       8.53771873       3.53128264      -0.00120671      -0.00083486      -0.00357214
C       -0.02267042       1.39842040       3.96035627      -0.00406301       0.00439099       0.00027123
C       -1.26080874       3.53819285       4.00860194       0.00811135       0.00556529      -0.00196880
C       -2.49814263       5.67519584       3.90567040       0.00425706      -0.00312074       0.00770903
C       -3.72553930       7.80968097       3.82507743      -0.00242537      -0.00148763       0.00558991
C       -4.96081407       9.94392911       3.85371665      -0.00230559      -0.00194417      -0.00344550
C        2.44402170       1.39185480       3.93598568       0.00059336      -0.00032465       0.00700965
C        1.22826999       3.54193048       3.98755471      -0.00120835       0.00137547       0.00436228
C       -0.08405480       5.62573721       3.61158964       0.00378553       0.01065961      -0.00562870
C       -1.25101942       7.80937809       3.67304469      -0.00326607      -0.00364120      -0.00876045
C       -2.48959788       9.94509269       3.83754744       0.00262868      -0.00321143      -0.00506993
C        4.90647174       1.40365713       3.88369382       0.00196334       0.00561991      -0.00065603
C        3.66348600       3.54690438       3.88865250       0.00474210       0.00496545       0.00878022
C        1.20396411       7.90993310       3.24630046      -0.00574236       0.00040093      -0.01359715
C       -0.02565773       9.96600416       3.72575521      -0.00087881      -0.00040898      -0.00721659
C        7.37445019       1.41256028       3.89540618      -0.00235032       0.00182970       0.00317669
C        6.13926672       3.54417319       3.87872145      -0.00510745       0.00604157       0.00162803
C        4.96666615       5.64209486       3.45140038      -0.00518983       0.00138728      -0.00528469
C        3.68958287       7.89042292       3.21883059      -0.00104278      -0.00859254       0.00178205
C        2.44441428       9.98750934       3.62148062      -0.00007838       0.00254624      -0.00473772
C        9.84562118       1.40811836       3.93819339      -0.00079153      -0.00298364      -0.00523744
C        8.60781955       3.54206401       3.98337788      -0.00066825      -0.00498603      -0.00403462
C        7.37529942       5.67820839       3.84668169      -0.00290280      -0.00128872       0.00311342
C        6.13658708       7.80986903       3.63702754      -0.00375087      -0.00424405      -0.00623472
C        4.91152938       9.95701114       3.74197320       0.00446512       0.00035603       0.00423329
Pd       2.58205326       6.07928194       4.86280183       0.00820542       0.00787451       0.00468049
O        4.00392536       6.69283647       5.88459587       0.00720259       0.00910623       0.00554782
