52
Lattice="12.336457 0.0 0.0 -6.168228499999997 10.683685154694365 0.0 0.0 0.0 15.0" Properties=species:S:1:pos:R:3:forces:R:3 energy=-450.6492639090911 free_energy=-450.6492639090911 stress="-0.007483049613072011 0.0017530330701094722 -4.862097330766138e-06 0.0017530330701094722 0.002033389693380398 1.0404277168061706e-05 -4.862097330766138e-06 1.0404277168061706e-05 2.778385073055822e-07" pbc="T T T"
C        0.04550099       0.06447372       3.82567986       0.00350543       0.00245554      -0.00385224
C       -1.19716191       2.17696788       3.89979092       0.00267758       0.00884929      -0.01531288
C       -2.43102406       4.32401344       3.83654984      -0.00323650      -0.00694423      -0.01212541
C       -3.66018621       6.47066171       3.72910019      -0.00116768      -0.00917906      -0.00218060
C       -4.89696627       8.61794290       3.69526356      -0.00302857      -0.00602295       0.00640071
C        2.50776588       0.11596436       3.83583289      -0.00171632       0.00672245      -0.00281861
C        1.26128435       2.25304651       3.90003757       0.00040495      -0.00373165       0.00133725
C        0.00062262       4.29927490       3.90295355      -0.00232585      -0.00262410       0.00270532
C       -1.22024039       6.47618637       3.88648732       0.00083673      -0.00877487      -0.00061132
C       -2.44522906       8.62469413       3.84820739       0.00007087       0.00805150       0.00695732
C        4.97543431       0.06134233       3.86461923      -0.00028730       0.00813938       0.00217312
C        3.78097667       2.24534299       3.75602324       0.00461297      -0.00274448       0.00490372
C        1.21054213       6.43841977       3.97110677       0.01025781      -0.00068549      -0.00849706
C        0.02244651       8.58933788       3.94184826       0.00918563       0.00218056       0.00341571
C        7.45078602       0.02654024       3.91628375      -0.00690856       0.00671090       0.00284732
C        6.24398090       2.15969341       3.72410259      -0.00117308       0.00077915       0.00141615
C        5.07238724       4.25338374       3.39192556       0.00745432      -0.00128143       0.00577627
P        3.52239909       6.34777477       2.75851124      -0.00956500       0.00847272       0.00551143
C        2.50738518       8.57101391       3.84996260       0.00157019       0.00072190      -0.00022239
C        9.91500570       0.02961692       3.88282759       0.00045056      -0.00619167       0.00064903
C        8.68994519       2.16933129       3.84581126      -0.00091370       0.00392315       0.00624358
C        7.48434301       4.31213276       3.62979317      -0.00782389       0.00257408       0.01238213
C        6.23863681       6.45404310       3.44681671       0.00155338       0.00071664      -0.00121877
C        4.97775381       8.59258120       3.62749761      -0.00088786      -0.00996546       0.00682518
C        0.04358910       1.49155777       3.88701072      -0.00028842       0.00481049      -0.00427284
C       -1.22018373       3.59475587       3.88109134      -0.00159607       0.00535178      -0.00800730
C       -2.43445786       5.75559787       3.82386741      -0.00059153      -0.01162933      -0.00908663
C       -3.66633943       7.90455138       3.75374519       0.00049639      -0.00540470       0.00115052
C       -4.88743236      10.05394636       3.78892196       0.00125095      -0.00156974      -0.00255652
C        2.51828102       1.55311414       3.84572653       0.00158708       0.00134744      -0.00164387
N        1.15088012       3.61383091       3.99132969      -0.00589326      -0.00874904      -0.00835035
C        0.01021792       5.74623410       3.91837394       0.00512209      -0.00467518       0.00303748
C       -1.21469341       7.89972535       3.90528001       0.00473250       0.00014890      -0.01285914
C       -2.43648043      10.05541144       3.85514087      -0.00060032       0.01372209      -0.00288439
C        4.99382635       1.48154180       3.77738435       0.00164973       0.00243684      -0.00292213
N        3.90421189       3.61138446       3.64291257       0.00473622      -0.00261442       0.00621470
C        1.26074008       7.84675119       3.92728687       0.00983281       0.00070539       0.01376717
C        0.03787842      10.01211730       3.91610116      -0.00188458       0.00604452      -0.00230990
C        7.46260113       1.44710636       3.84165561      -0.00306419       0.00435699      -0.00892166
C        6.28636193       3.56171735       3.54413030       0.00271070      -0.00148594       0.01516159
C        5.07632723       5.67607927       3.25354766       0.00741113       0.00133564       0.00702987
C        3.72312501       7.90561821       3.57445238       0.00014143      -0.00323342       0.00097429
C        2.51300987       9.99678109       3.91585557      -0.00688191      -0.00118685      -0.00042897
C        9.91419567       1.45524756       3.89480343       0.00374372       0.00175222      -0.00420635
C        8.69418843       3.59751922       3.78045829      -0.00641290       0.00187499      -0.00384001
C        7.46945902       5.74300217       3.59613974      -0.00484083      -0.00030226       0.00411077
C        6.21718606       7.89217905       3.55867323      -0.00299557      -0.00252941      -0.00315917
C        4.98093244      10.01506790       3.79463676       0.00377779      -0.00545427      -0.01153317
Pd       2.61154964       5.06870475       4.41442937      -0.01662927       0.00831633       0.00594025
O        2.74836536       4.00610004       6.17994871      -0.00382343      -0.00626928       0.00153732
O        1.43670543       3.91472177       6.74459881      -0.00421762       0.01217194       0.00303633
H        1.59479376       4.32856620       7.62018282       0.00898122      -0.01142358       0.00231716
