52
Lattice="12.336457 0.0 0.0 -6.168228499999997 10.683685154694365 0.0 0.0 0.0 15.0" Properties=species:S:1:pos:R:3:forces:R:3 energy=-450.42723063672963 free_energy=-450.42723063672963 stress="-0.010082484511601018 -0.0017760060981528395 -2.7798994056538395e-05 -0.0017760060981528395 0.0018017333036465756 -2.300488844123437e-05 -2.7798994056538395e-05 -2.300488844123437e-05 9.519742295265922e-06" pbc="T T T"
C        0.04295257      -0.04879180       3.90652915      -0.00105979       0.00069923      -0.00084348
C       -1.21170408       2.05833790       3.89180330      -0.00173280      -0.00221625       0.00052098
C       -2.43079814       4.21123493       3.82020767       0.00171451      -0.00755020       0.00199303
C       -3.63167170       6.36994752       3.78893949      -0.00068269       0.00154852      -0.00282988
C       -4.86389643       8.52385631       3.85102364      -0.00130043       0.00035600      -0.00292863
C        2.51283776      -0.01365164       3.88593343      -0.00223019      -0.00590350      -0.00101681
C        1.24250567       2.13149890       3.89963544       0.00248148       0.00277247      -0.00047484
C       -0.00223044       4.19482499       3.89517402       0.00232229      -0.00155145      -0.00841868
C       -1.21119240       6.36628576       3.86607000       0.00343199      -0.00325316       0.00795579
C       -2.41896895       8.51713028       3.87555018      -0.00077572      -0.00225792       0.00273853
C        4.98126576      -0.04334577       3.76447447      -0.00517792      -0.00070561      -0.00191662
C        3.72601439       2.07337579       3.53114537       0.00493797       0.00498765       0.00673654
N        1.15031881       6.35632394       3.97830963       0.00044999      -0.00364575       0.00222350
C        0.03716984       8.47735662       3.86897549       0.00218674       0.00383087      -0.00291029
C        7.45034962      -0.09070457       3.77822566       0.00116478       0.00190807       0.00521097
C        6.22785446       2.06828612       3.54783514      -0.00152597      -0.00072417       0.00494557
C        5.10484136       4.27608733       3.30290208      -0.00452358       0.00433427       0.00114010
C        3.89713000       6.33591545       3.72842210      -0.00342576       0.00004491      -0.00060790
C        2.50694210       8.41680864       3.86722019       0.00003177      -0.00027292       0.00501422
C        9.90378746      -0.09838129       3.85590266      -0.00006349       0.00517236       0.00492201
C        8.67648789       2.05625248       3.75458195      -0.00780746      -0.00253639      -0.00607515
C        7.48536795       4.21947865       3.61473781       0.00282591      -0.00299166      -0.00153934
C        6.30451502       6.40197706       3.60026684       0.00089182       0.00092889       0.00093018
C        5.00322460       8.47975598       3.81553466      -0.00112622      -0.00012585       0.00192227
C        0.02488876       1.37439209       3.91860152       0.00144843       0.00155494       0.00152415
C       -1.22014547       3.48340303       3.87341550       0.00194504      -0.00551500      -0.00228315
C       -2.42258917       5.64041289       3.83037092      -0.00086430      -0.00310891       0.00546499
C       -3.64012100       7.80102764       3.84670913      -0.00197650       0.00241740      -0.00440089
C       -4.87917792       9.94512997       3.90659571      -0.00346542      -0.00283310      -0.00028861
C        2.50467397       1.41458995       3.80148361       0.00489246      -0.00076750      -0.00357697
N        1.15633126       3.49120829       3.97791602      -0.00941555       0.00385924      -0.00521087
C        0.00322018       5.65463297       3.88424288       0.00930818      -0.00137784      -0.00032599
C       -1.19466150       7.79100606       3.87760174       0.00244256      -0.00081527       0.00636691
C       -2.42098498       9.94609380       3.85479670      -0.00434312      -0.00534133       0.00105017
C        4.97798276       1.38032618       3.59909999       0.00227946      -0.00135497       0.00831861
P        3.58774899       3.65310353       2.72130867      -0.00163150      -0.00036193      -0.00942146
C        1.25509440       7.70997726       3.89703857       0.00207071      -0.00293931      -0.00320255
C        0.04423953       9.90273950       3.80426887      -0.00120174       0.00605187       0.00136160
C        7.44688973       1.34241207       3.68928538      -0.00512217      -0.00065666       0.00449963
C        6.26583593       3.49884840       3.45521095       0.00016944       0.00049774      -0.00251032
C        5.09928379       5.68826460       3.46023774      -0.00356114       0.00503006      -0.00363234
C        3.76838899       7.72205382       3.81469388      -0.00246890      -0.00075418       0.00059124
C        2.50550859       9.84728296       3.83927999       0.00259827       0.00247602      -0.00233712
C        9.89810556       1.33328976       3.84433816      -0.00675040       0.00242664       0.00139456
C        8.68560391       3.49080375       3.73581943       0.00061174      -0.00566742      -0.00376682
C        7.49873867       5.65365244       3.65872967       0.00150329      -0.00111074       0.00056565
C        6.25246272       7.80600109       3.76293665      -0.00029931       0.00174866      -0.00331589
C        4.98136909       9.89659470       3.87240476      -0.00044325       0.00122048       0.00524413
Pd       2.67167102       4.93439721       4.37848234       0.00998992      -0.00103297      -0.00084611
O        1.90058971       5.00021974       6.28693805       0.00247205       0.00271138       0.00598682
O        1.81358171       6.35966281       6.70984523      -0.00566453      -0.00245133      -0.01406346
H        1.84341777       6.23888636       7.68319903       0.01446905       0.01324563       0.00012203
