49
Lattice="12.336457 0.0 0.0 -6.168228499999997 10.683685154694365 0.0 0.0 0.0 15.0" Properties=species:S:1:pos:R:3:forces:R:3 energy=-435.9079345150745 free_energy=-435.9079345150745 stress="-0.008796964787373221 0.0022380867487321134 4.09166580272246e-06 0.0022380867487321134 0.0013756001333818952 -5.166252417048817e-06 4.09166580272246e-06 -5.166252417048817e-06 -5.820538710696099e-08" pbc="T T T"
C       -0.00689649       0.01306019       3.79728600       0.00450563       0.00598663       0.00216889
C       -1.24538093       2.12581396       3.92930877       0.00309563      -0.00975199       0.00639263
C       -2.47777069       4.27235173       3.88426709       0.00577526      -0.00348297      -0.00576436
C       -3.70756048       6.42040632       3.72426189       0.00408947      -0.00257285       0.00237137
C       -4.94967551       8.56499027       3.64080901      -0.00190780      -0.00196710       0.00529149
C        2.45971030       0.05121952       3.80565036      -0.01459587       0.00377592       0.00863009
C        1.22621111       2.19166966       3.93670612       0.00850144       0.00003986      -0.00353814
C       -0.04657488       4.28172159       4.02383520      -0.00077266       0.00230723       0.00334357
C       -1.28194062       6.43852741       3.93863148      -0.00580790       0.00113230       0.00081965
C       -2.49276404       8.57410941       3.82664124      -0.00111175       0.00357097      -0.00703812
C        4.93484852       0.00814040       3.83616609       0.00418861      -0.00337886       0.00604756
C        3.72617041       2.18181502       3.76665009       0.00807878       0.00092205      -0.00461212
N        1.10726502       6.42340232       4.03002102      -0.00558129      -0.00067137      -0.00088194
C       -0.02123439       8.53493078       3.91543344      -0.00244657      -0.00377060      -0.00746028
C        7.40606217      -0.03107852       3.88880223       0.01291829      -0.00616379      -0.00683445
C        6.20199867       2.10465510       3.71930680      -0.00372146       0.00203246       0.00084156
C        5.03476813       4.22659872       3.36462421      -0.00005773      -0.00248715      -0.00256573
S        3.61103360       6.36339856       2.53936521      -0.00087318      -0.00584599      -0.00693392
C        2.45480193       8.49848533       3.75952537      -0.00924902       0.00279590      -0.00113417
C        9.86382895      -0.02944656       3.84619936       0.01421081      -0.00064632       0.00250700
C        8.64604532       2.11254275       3.84678844      -0.01651836       0.00757857       0.00734567
C        7.44306233       4.25707821       3.62738090      -0.00411242       0.00302918      -0.01158569
C        6.20647199       6.40877936       3.36213869       0.00741847      -0.00486860       0.00790139
C        4.92719553       8.53893934       3.53353798      -0.00035694       0.00299712      -0.00010385
C       -0.01491228       1.43450680       3.90467141       0.00956025       0.00195798      -0.00231288
C       -1.26802304       3.54952254       3.96393308       0.00499977      -0.00844214       0.00444988
C       -2.48916247       5.70457731       3.85993821      -0.00040555      -0.00420534      -0.00184719
C       -3.71696223       7.85205689       3.72494438       0.00052004       0.00036498       0.00371309
C       -4.93916193       9.99930180       3.74537961      -0.01137637      -0.00011261       0.00834006
C        2.46933547       1.48572636       3.85210797       0.00795759       0.00323663       0.00346478
C        1.13649985       3.58381277       4.03803334      -0.00434832      -0.00099079      -0.00985777
C       -0.05803030       5.73292251       4.01333653      -0.00728214       0.00414362       0.01092405
C       -1.26612710       7.85395565       3.90630970      -0.00303662      -0.00160565      -0.01016874
C       -2.48164496      10.00226928       3.82004641      -0.00955145       0.00645697       0.00693908
C        4.96307961       1.42336373       3.76566848       0.00440480      -0.00372000      -0.00056156
C        3.84522861       3.56769526       3.65108441      -0.00400873       0.00214627      -0.00437602
C        1.19736944       7.78083712       3.89395637      -0.00968222       0.00118502       0.00592152
C       -0.00392285       9.95798203       3.88452562       0.01128849      -0.00502104      -0.01121809
C        7.42375254       1.38950718       3.82864628      -0.00950160      -0.00178425      -0.00293196
C        6.24611526       3.51173463       3.54727533      -0.00325079      -0.00006622      -0.00240809
C        5.06465518       5.63116239       3.12763401       0.00914847      -0.00286475       0.00432282
C        3.67170665       7.86838367       3.41829768      -0.00996622       0.00718956       0.00408570
C        2.46303792       9.92964070       3.86572413       0.01457933      -0.00061796      -0.00395767
C        9.86480490       1.39776234       3.89175910      -0.01012642      -0.00102540       0.00277307
C        8.65092455       3.54356042       3.79674557      -0.00591562       0.01026638      -0.00274766
C        7.42905719       5.68901209       3.57315461       0.00912251      -0.00247735      -0.00783414
C        6.16661684       7.84197193       3.47087838       0.00274900      -0.00389563       0.00775179
C        4.92960144       9.96188092       3.74362653       0.01559328       0.00052197       0.00575703
Pd       2.57387907       4.95329193       4.12370543      -0.00714095       0.00879914      -0.00342922
