51
Lattice="12.336457 0.0 0.0 -6.168228499999997 10.683685154694365 0.0 0.0 0.0 15.0" Properties=species:S:1:pos:R:3:initial_magmoms:R:1:forces:R:3 energy=-443.53758280994407 free_energy=-443.53758280994407 stress="-0.004186963723125043 -0.0036716358673078617 2.699977468911378e-06 -0.0036716358673078617 0.0046778527508217005 4.2247366034393364e-07 2.699977468911378e-06 4.2247366034393364e-07 8.02461958473595e-06" pbc="T T T"
C       -0.07178507      -0.03996319       3.83638892       0.00000000       0.00154207      -0.00776402       0.00898436
C       -1.34259814       2.06048224       3.91860950       0.00000000       0.01455699       0.00527654      -0.00554554
C       -2.56810641       4.20945427       3.85489856       0.00000000      -0.00296484      -0.00245860      -0.00169235
C       -3.75593883       6.36921228       3.74440220       0.00000000      -0.00132607      -0.00114518       0.00152308
C       -4.98441618       8.52187148       3.73499424       0.00000000      -0.00668482       0.00151102       0.00801629
C        2.40530307      -0.02699469       3.86253405       0.00000000      -0.00148985       0.00286236       0.00131083
C        1.14199167       2.12548485       3.97918850       0.00000000      -0.00140497       0.00276994      -0.00014515
C       -0.13820163       4.19909147       4.11790808       0.00000000       0.00243614       0.00261399      -0.00371505
C       -1.32949079       6.36222141       3.95953417       0.00000000       0.00093173      -0.00470587      -0.00181725
C       -2.52817237       8.50763463       3.85402022       0.00000000       0.00026024       0.00558443       0.00027711
C        4.87431436      -0.05844997       3.73576318       0.00000000       0.00557527       0.00238151      -0.00481414
C        3.60170605       2.04810257       3.47705923       0.00000000      -0.00221639      -0.01070657       0.00485651
C        1.09464013       6.30288273       4.18362755       0.00000000      -0.01273550       0.00852024      -0.00327088
C       -0.04612782       8.45184233       3.88460310       0.00000000       0.00149957       0.00225232      -0.00100618
C        7.33563002      -0.09195002       3.70946787       0.00000000      -0.00193377      -0.00452964      -0.00521681
C        6.08776649       2.08672278       3.48464068       0.00000000      -0.00007271       0.00039023       0.00079012
C        4.96867208       4.32478573       3.12259556       0.00000000       0.00197322      -0.00061720      -0.00290187
O        3.77356148       6.41996991       3.25755012       0.00000000       0.00105611       0.00702092      -0.00046291
C        2.44058616       8.40219716       3.73913477       0.00000000       0.00274722      -0.00675867      -0.00029569
C        9.78590026      -0.08938727       3.74803383       0.00000000      -0.00525789       0.00271382       0.00833147
C        8.54363933       2.06453043       3.71164085       0.00000000      -0.00147076       0.00039216      -0.01577686
C        7.34269301       4.23214065       3.54412644       0.00000000      -0.00189970      -0.00376340       0.01865905
C        6.16468054       6.40918341       3.42400461       0.00000000       0.00314729      -0.00548799      -0.00564480
C        4.89148512       8.49816599       3.59937053       0.00000000       0.00421265       0.00222207       0.00309405
C       -0.09427692       1.38089037       3.93908642       0.00000000       0.00882315      -0.00438680      -0.00980627
C       -1.36100386       3.47767545       3.97299245       0.00000000       0.00387941       0.00480010       0.00358447
C       -2.54853888       5.64189046       3.86127735       0.00000000      -0.00158554      -0.00416827      -0.00037532
C       -3.75244675       7.79888587       3.78474031       0.00000000      -0.00525868       0.00409141       0.00315268
C       -4.99512824       9.94500880       3.83612653       0.00000000       0.00036990       0.00021210       0.00049150
C        2.39396150       1.40646614       3.82875475       0.00000000      -0.00668123      -0.00040292       0.00024356
C        1.05633116       3.50301286       4.19836418       0.00000000       0.00270108       0.00475958       0.00341792
C       -0.11360468       5.63414877       4.10041941       0.00000000      -0.00174443      -0.00194755      -0.00668315
C       -1.29714269       7.78045996       3.90735947       0.00000000       0.00345418      -0.00099254       0.00501257
C       -2.52884518       9.93338454       3.82833999       0.00000000       0.00269672       0.00872103      -0.00854903
C        4.86119865       1.37212200       3.55133726       0.00000000       0.00060575      -0.00282260      -0.00077245
S        3.46553497       3.59686554       2.70372351       0.00000000      -0.00153402       0.00772577      -0.00051186
C        1.19365717       7.68379770       3.93359560       0.00000000      -0.00177403       0.00053716      -0.00273420
C       -0.05912359       9.88480245       3.77044236       0.00000000       0.00131235       0.00014281      -0.00166285
C        7.31297267       1.35273113       3.62901041       0.00000000      -0.00307729      -0.00280569      -0.01204269
C        6.11104226       3.52728785       3.36712855       0.00000000      -0.00002876      -0.00092483       0.00580968
C        4.98697354       5.73025323       3.18373914       0.00000000      -0.00059357       0.00146122      -0.00246729
C        3.69413110       7.77134794       3.54582008       0.00000000       0.00526304       0.00328192       0.00399588
C        2.40197706       9.84790963       3.72561258       0.00000000      -0.00362898      -0.00841044       0.00960558
C        9.76671025       1.34049146       3.80122152       0.00000000       0.00637199       0.00909729      -0.01009065
C        8.54927381       3.49754569       3.70818262       0.00000000      -0.00298713      -0.00237669      -0.00012330
C        7.36680299       5.65888515       3.56600869       0.00000000       0.00302047      -0.00660058      -0.00291723
C        6.13894337       7.82208198       3.57387746       0.00000000      -0.00078809      -0.00477995       0.00775843
C        4.86700593       9.91389169       3.73505344       0.00000000      -0.00308509      -0.00003539       0.00583560
Pd       2.42931875       4.85798463       4.63356788       0.00000000      -0.00685913      -0.00101011       0.01684265
O        4.25363467       6.76389068       5.86033514       1.00000000       0.00068694       0.00904133       0.00210894
O        4.08339693       5.51299232       5.89678166       1.00000000      -0.00004027      -0.01078175      -0.01266053
