50
Lattice="12.336457 0.0 0.0 -6.168228499999997 10.683685154694365 0.0 0.0 0.0 15.0" Properties=species:S:1:pos:R:3:forces:R:3 energy=-434.11582257129453 free_energy=-434.11582257129453 stress="-0.0037982135020106374 -0.0035474848277777626 2.1590621206675064e-05 -0.0035474848277777626 0.005010748638033549 1.4458086447284421e-05 2.1590621206675064e-05 1.4458086447284421e-05 -2.7365953385923793e-06" pbc="T T T"
C       -0.00287493      -0.03589791       3.87150206      -0.00335164       0.00287186       0.00192019
C       -1.25938650       2.09094827       3.83168641       0.00396143       0.00914403      -0.00419877
C       -2.45729137       4.23938621       3.75414697       0.00632634      -0.00105395       0.00108119
C       -3.65702308       6.38914867       3.75399291       0.00559487       0.00238692      -0.00396849
C       -4.90199726       8.53987750       3.82333471      -0.00898754      -0.00746257       0.00341125
C        2.46535526       0.00134397       3.90239375      -0.00513926      -0.00533928      -0.00053252
C        1.17323355       2.10639826       3.96106477      -0.00001876       0.00345393      -0.00306469
C       -0.04787353       4.23689061       3.86682500      -0.00051497      -0.00075547      -0.00318179
C       -1.20777697       6.36397326       3.80704552       0.00219906      -0.00367825      -0.01239090
C       -2.43933955       8.52133719       3.83943452       0.00307704       0.01121623       0.00662599
C        4.93445552      -0.02156326       3.76062308       0.00202342       0.00050151      -0.00030415
C        3.66034320       2.10509222       3.62610566      -0.00264109      -0.00488248       0.00790426
O        1.18127988       6.35748295       3.73724627      -0.00723167       0.00960692      -0.00538299
C        0.01756711       8.48575502       3.77117405      -0.00248143       0.00414591       0.00625727
C        7.40279178      -0.06426731       3.71537662      -0.00579371      -0.00518670       0.00331863
C        6.16045363       2.11055023       3.57411380       0.00365638      -0.00208730      -0.00085822
C        5.04842869       4.33564384       3.36815151      -0.00217851       0.00385434      -0.00473829
N        3.85263232       6.36671093       3.75226665       0.01261293      -0.00477510       0.00932425
C        2.45789107       8.41963745       3.74583873      -0.00276081      -0.00282793       0.00250784
C        9.85168456      -0.07221482       3.77859444       0.00265107      -0.00601824       0.01640555
C        8.62449735       2.08948343       3.70068754       0.00734594       0.00095927      -0.00082819
C        7.43866140       4.25295308       3.60761187       0.00725637       0.00801045      -0.01052531
C        6.25983082       6.43205925       3.59811894       0.00513918       0.00179659      -0.00284632
C        4.94792160       8.49880797       3.75855402      -0.00536718      -0.01149631      -0.00518658
C       -0.01975521       1.39537842       3.89932716      -0.00050575       0.00750065       0.00513966
C       -1.24051674       3.51938500       3.80855678       0.00121002       0.00323602      -0.00590940
C       -2.43723854       5.65736255       3.77880923       0.00435970      -0.00368158      -0.00650650
C       -3.67082276       7.81671515       3.81506709       0.00248564       0.00424574      -0.00075901
C       -4.92534503       9.96335750       3.89118367      -0.00785156      -0.00547235      -0.00498589
C        2.43136963       1.44033083       3.88136905      -0.00157570      -0.00491196       0.00409741
O        1.08809102       3.48374865       4.15869355      -0.00619017      -0.00320888      -0.00074865
C       -0.01469784       5.63933815       3.79862571       0.00336276      -0.00061418       0.00378792
C       -1.21605319       7.79293803       3.81287186       0.00062119       0.00159365      -0.00565326
C       -2.46172722       9.96079568       3.84623179       0.00080078       0.00890609       0.00779133
C        4.91225916       1.42143911       3.64344409       0.00167107      -0.00676880      -0.00152707
S        3.48162837       3.74048675       3.05341632      -0.00822326       0.01624731       0.00168502
C        1.21661749       7.75203167       3.73238667      -0.00513686       0.00490138       0.00974740
C        0.00472336       9.92644886       3.74944220      -0.00583093      -0.00080685      -0.00133022
C        7.38716296       1.38081866       3.65952765       0.00314804      -0.00435696       0.00288056
C        6.19726440       3.54422479       3.49558430       0.00407503       0.00454499      -0.00562629
C        5.03579850       5.74478081       3.50297171       0.00980284       0.00244178      -0.00424317
C        3.73410844       7.72725841       3.74764896      -0.00250374      -0.00713143      -0.00186292
C        2.45870767       9.86739210       3.74515409      -0.00433574      -0.00414515       0.01196090
C        9.85560791       1.36923900       3.77316425       0.00853101       0.00132585       0.00211693
C        8.64565194       3.52079791       3.68986237       0.00835888       0.00392084      -0.00417967
C        7.45886784       5.67933882       3.64697945       0.00413720       0.00862985      -0.00620603
C        6.21185309       7.83492810       3.73437109      -0.00745567      -0.00730634       0.00397745
C        4.92926641       9.92082625       3.81189400       0.00115696      -0.01076833      -0.00321079
Pd       2.77480912       4.92333148       4.97434581      -0.00582752      -0.01014729      -0.00356723
O        2.30010986       6.27963371       6.03241499      -0.01366168      -0.00055843       0.00238236
