52
Lattice="12.336457 0.0 0.0 -6.168228499999997 10.683685154694365 0.0 0.0 0.0 15.0" Properties=species:S:1:pos:R:3:forces:R:3 energy=-447.697635293793 free_energy=-447.697635293793 stress="-0.003127654633413818 -0.003501319989490283 -1.3536984885727309e-05 -0.003501319989490283 0.004214371658151241 1.3857156615274172e-06 -1.3536984885727309e-05 1.3857156615274172e-06 -2.3657015724091453e-05" pbc="T T T"
C       -0.05427116      -0.08609324       3.90585841      -0.00269082      -0.00651862      -0.00408045
C       -1.31307552       2.02688030       3.93192587      -0.00229956      -0.00282055      -0.00129869
C       -2.53209020       4.17580003       3.86733514      -0.01260302      -0.00021476      -0.00288009
C       -3.73267416       6.32738835       3.79941605      -0.00229309       0.00230225      -0.00019985
C       -4.96856329       8.47591432       3.82562775       0.00485597       0.00419639      -0.00126119
C        2.41784925      -0.06738378       3.92720412       0.00125338       0.00472973       0.00610801
C        1.14241955       2.07575852       4.01849773      -0.00143911      -0.00552033       0.00726979
C       -0.09511507       4.15623245       4.09580210       0.00179703      -0.00518225      -0.00811588
C       -1.29005674       6.31748026       3.96640725      -0.00299764       0.01391315      -0.00260094
C       -2.50405019       8.46664883       3.90224745      -0.00628155      -0.00672204      -0.00204115
C        4.89170109      -0.09107546       3.78595432      -0.00217328      -0.01024138       0.00302301
C        3.62049210       2.03177835       3.60320062       0.00520939       0.00456548       0.01114058
N        1.10726959       6.29631793       4.18143257      -0.00326191      -0.00908372       0.00456739
C       -0.02755715       8.41898511       3.90223802       0.00891217       0.00677616      -0.00380049
C        7.35703691      -0.12634705       3.75787340       0.00952341      -0.00143167       0.00629798
C        6.11187394       2.05159917       3.56430917       0.00897074       0.00420165       0.00128432
C        4.96127630       4.28406399       3.26092823      -0.00549249      -0.00109037      -0.00315905
O        3.79100967       6.37939237       3.39753926      -0.00498580      -0.00107723       0.00723926
C        2.44734856       8.36326768       3.78537795      -0.00163206      -0.00114446      -0.00665607
C        9.80457814      -0.12884784       3.80897824       0.00002522       0.01052096      -0.00126275
C        8.56957287       2.02921055       3.74761337      -0.00581132       0.00010521       0.00235125
C        7.36376699       4.19224797       3.60877990      -0.00137510       0.00671255       0.00596420
C        6.17995745       6.37021846       3.51254542       0.00239030      -0.00971500      -0.00641464
C        4.90459259       8.45948463       3.69564121       0.00515728      -0.00516453      -0.00466427
C       -0.07699925       1.33605451       3.96791650      -0.00393459      -0.00864313       0.00562580
C       -1.31658532       3.45162012       3.96491891      -0.00609908      -0.00163326      -0.00854302
C       -2.51326531       5.60105533       3.88486314      -0.00403825       0.00588234      -0.00483952
C       -3.73292416       7.75568675       3.85121611      -0.00453220      -0.00254773       0.00060937
C       -4.97807984       9.89986098       3.91354225       0.00360574       0.00595648      -0.00900716
C        2.40262169       1.36264806       3.88798076       0.00120988       0.00406790       0.00390394
N        1.05737544       3.43697665       4.19520167       0.01254918      -0.00110455       0.00311740
C       -0.05808993       5.61408765       4.08536485      -0.00847707      -0.00212172      -0.00532566
C       -1.27243663       7.73811668       3.93112525       0.00406566       0.01450885       0.00234383
C       -2.50993510       9.89545756       3.88182920      -0.00668446      -0.01077481       0.00426803
C        4.87773496       1.33898543       3.63331092       0.00653301      -0.00250205       0.00991893
P        3.41556775       3.59533784       2.82105337      -0.00947293       0.00234815      -0.00460924
C        1.19266270       7.64789665       3.95255677       0.00075365      -0.00607875       0.00677421
C       -0.04043928       9.85351234       3.80807805       0.00776134       0.00250359       0.00281897
C        7.33975606       1.31676902       3.68242232       0.00470473      -0.00397356      -0.00302320
C        6.13001321       3.49108126       3.45470358       0.00259267       0.00984145       0.00251714
C        4.99291266       5.69448968       3.28960861      -0.00476281      -0.00274466      -0.01661464
C        3.70889523       7.74060180       3.60478877      -0.00127273       0.00033734       0.00226634
C        2.41773272       9.80617023       3.78324011       0.00645514       0.00199397      -0.00984274
C        9.79617864       1.30779797       3.83462852      -0.00468240       0.00866266       0.01063735
C        8.57682665       3.46249104       3.74227791      -0.01245412      -0.00246394       0.00715715
C        7.38624293       5.61926731       3.64011851       0.00378338       0.00027759      -0.00096574
C        6.15463023       7.77601528       3.67607011       0.01038486      -0.00682461      -0.00978749
C        4.88205562       9.87433738       3.81815746      -0.00399225      -0.00184915      -0.00250439
Pd       2.55620149       4.66405692       4.79586904       0.00425511       0.00261912      -0.00261000
O        3.98636050       5.57580012       5.95130964       0.00609714       0.00197777      -0.00799107
O        3.52988574       6.88803172       6.26340772       0.00844851       0.00435213      -0.00108902
H        3.17012391       6.75166106       7.16568511      -0.00555523      -0.00416408       0.01798413
