50
Lattice="12.336457 0.0 0.0 -6.168228499999997 10.683685154694365 0.0 0.0 0.0 15.0" Properties=species:S:1:pos:R:3:forces:R:3 energy=-437.46563137055284 free_energy=-437.46563137055284 stress="-0.004716350666211639 -0.003071141943144658 4.292480288077997e-06 -0.003071141943144658 0.005786985170064851 1.4151472877432945e-05 4.292480288077997e-06 1.4151472877432945e-05 1.8274780549240548e-06" pbc="T T T"
C       -0.02403216       0.01678793       3.94734466      -0.00777417       0.00070612       0.00057861
C       -1.29163708       2.11761394       4.04616943      -0.00170091       0.00262174      -0.00901678
C       -2.52260971       4.27001193       4.04417971       0.00281853       0.00439249      -0.00385985
C       -3.70943078       6.42958462       3.93893101       0.00266819      -0.00428665       0.00026965
C       -4.93607991       8.58465289       3.89537288      -0.00462606      -0.00179816       0.00496401
C        2.45055999       0.05803432       3.87837016      -0.00872014      -0.00510188       0.00050615
C        1.16787491       2.18976842       3.91665764       0.00546423      -0.00233999      -0.00419543
C       -0.09192860       4.24848927       4.11289356       0.00037098       0.00286099       0.00375949
C       -1.27846680       6.42310866       4.07798811       0.00257074       0.00395928      -0.00114972
C       -2.47882506       8.57795058       3.95558257       0.00110624      -0.00393464       0.00225703
C        4.92011698       0.01260491       3.73051193       0.00124673      -0.00131993       0.00068100
C        3.65244394       2.11837221       3.34676139       0.00470862       0.01172162      -0.00983217
N        1.10344126       6.38139757       3.94651936       0.00597526      -0.00504725      -0.00385635
C       -0.00682168       8.51768585       3.87498975       0.00374448      -0.00412680       0.00131174
C        7.38685739      -0.03576573       3.73619840       0.00849776      -0.00510031      -0.00224967
C        6.15288532       2.14638276       3.48967711      -0.00391000      -0.00213335       0.00478235
C        5.07117819       4.38960210       3.00085279      -0.00341084      -0.00131579       0.00807445
O        3.88645030       6.49932323       3.17986695      -0.01061866      -0.00148720      -0.00356839
C        2.47763751       8.44286742       3.73414715      -0.00648679       0.00997360       0.00532901
C        9.83080258      -0.04018924       3.86290234       0.01396859       0.00122391      -0.00315156
C        8.59405429       2.12061668       3.83090353      -0.00563097      -0.00019290       0.00480724
C        7.39715697       4.28849520       3.66977014      -0.00508495       0.00027580       0.01237868
C        6.23362297       6.47126106       3.53971639       0.00471713       0.00474998      -0.00625071
C        4.93791627       8.55028263       3.75510392      -0.00492713      -0.00002786      -0.00217882
C       -0.04686735       1.43734540       4.00122441      -0.00200872       0.00035214      -0.00682972
C       -1.31108879       3.54008118       4.11444319      -0.00265124       0.00122015       0.00128882
C       -2.49996180       5.69996978       4.05209494       0.00610370       0.00282734      -0.00434922
C       -3.70484629       7.86306613       3.94594701      -0.00009445      -0.00504568       0.00128997
C       -4.94202102      10.01525576       3.93431413      -0.01318523      -0.00164337      -0.00149362
C        2.43720161       1.48958722       3.73042952       0.00700988       0.00069558      -0.00160695
N        1.05301497       3.53998376       3.99931008       0.00549095       0.00413898      -0.00322489
C       -0.06548752       5.70654408       4.07903231       0.00265595       0.00107779       0.00197625
C       -1.25066703       7.84509454       3.98252815       0.00328653      -0.00053188       0.00624031
C       -2.48332397      10.00818543       3.86151410      -0.00358986      -0.00232129       0.00311899
C        4.90909607       1.43431969       3.50837942      -0.00078859       0.00166288      -0.00769311
P        3.64036818       3.58000723       2.29604459       0.00972201       0.00737422      -0.00202208
C        1.20898842       7.74316963       3.84138227      -0.00048058      -0.00143663       0.00138069
C       -0.01453260       9.95164161       3.77111361       0.00615668      -0.00539235      -0.00072884
C        7.36940518       1.41013809       3.68140023      -0.00478435      -0.00586290       0.00910831
C        6.19185242       3.59012974       3.37226072      -0.00126438      -0.00347836       0.00363099
C        5.10547102       5.79491648       3.12839900       0.00220459       0.00024775      -0.00547603
C        3.74767707       7.83923403       3.61517838      -0.01083851       0.00663010       0.00128064
C        2.44749076       9.89450336       3.77778091       0.01327177       0.00846832       0.00313625
C        9.81800772       1.39710984       3.93546411       0.00103490       0.00048561      -0.00935141
C        8.59608345       3.55449310       3.86941041      -0.00147010       0.00439019       0.00573786
C        7.42379746       5.71553974       3.73289259      -0.00069704       0.00053379       0.00557314
C        6.19162397       7.87527421       3.74481616      -0.00282263       0.00311664      -0.00307764
C        4.91139558       9.96861497       3.88096869       0.00403831      -0.00479449       0.00166910
Pd       2.58771679       4.90633586       3.80841989      -0.00793922      -0.00853962       0.00256771
O        3.16306942       4.53728365       5.51072234      -0.00332723      -0.00844776      -0.00253547
