52
Lattice="12.336457 0.0 0.0 -6.168228499999997 10.683685154694365 0.0 0.0 0.0 15.0" Properties=species:S:1:pos:R:3:forces:R:3 energy=-443.63268948985836 free_energy=-443.63268948985836 stress="-0.003730791182615413 -7.597496749188526e-05 -1.5335954124015853e-05 -7.597496749188526e-05 0.003347639321943999 3.621217845769209e-05 -1.5335954124015853e-05 3.621217845769209e-05 5.481989669050219e-06" pbc="T T T"
C        0.02456815       0.00517053       3.97930627      -0.00657855       0.00491363      -0.00255306
C       -1.22533966       2.10825916       4.13900588      -0.00765129       0.00723837       0.00876407
C       -2.45817122       4.25955053       4.28829918       0.00286848      -0.00024856      -0.00157135
C       -3.67895020       6.41584782       4.23331408       0.00754233      -0.01246724       0.00221088
C       -4.91430979       8.55645544       3.99946492       0.00524186      -0.00507415      -0.00561547
C        2.48926374       0.05749366       3.91054191      -0.00269957       0.00132098       0.00535637
C        1.21544662       2.17844758       3.75697217      -0.00244469       0.00041618       0.01024270
C       -0.08630134       4.22115210       3.71839815      -0.00066801      -0.00017991       0.00511655
C       -1.25010995       6.39578591       3.90821609       0.00231659       0.00562052      -0.01187847
C       -2.44330660       8.55548002       3.99514173      -0.00377349       0.00439174      -0.00422228
C        4.95352887       0.00557397       3.97851631       0.00436546      -0.00508812       0.00378771
C        3.76091784       2.17982962       3.77170215       0.00513098      -0.00505988      -0.00407117
S        0.97269936       6.41092045       2.42570408      -0.00431729       0.00450986       0.00243695
C        0.01228789       8.54158488       3.71620516      -0.00544736       0.00008566       0.00110897
C        7.42872522      -0.03243261       4.01908065      -0.00046486      -0.00103168      -0.01012193
C        6.20175927       2.10881448       4.15670905       0.00406800       0.00321064      -0.00320065
C        5.06019511       4.22384918       3.74912921      -0.00011348       0.00124918      -0.00728433
S        4.01441188       6.41000898       2.43359333       0.00042552       0.00281313       0.00170197
C        2.48955086       8.54056873       3.47406149       0.00102996       0.00007671       0.00158755
C        9.88493954      -0.03232266       4.01887257       0.00243596      -0.00349543      -0.00220858
C        8.65670641       2.10523612       4.28527986       0.00254886       0.00006168       0.00193416
C        7.43549406       4.26002077       4.30160002       0.00192309       0.00356784       0.00340116
C        6.22799393       6.39744003       3.92510006      -0.00542843      -0.00009107      -0.01134837
C        4.96615976       8.54210312       3.72394734       0.00217785      -0.00650414       0.00780493
C        0.01088797       1.42709282       3.98277601      -0.01066789       0.00727531      -0.00122632
C       -1.25283035       3.52642822       4.13099055      -0.00133720       0.00438022       0.00741030
C       -2.45799369       5.68903929       4.21475536       0.01102989      -0.00488048      -0.00773407
C       -3.67888590       7.84162553       4.09223612       0.00535768      -0.01064686      -0.00492572
C       -4.90566238       9.99673749       3.95329771      -0.00432513       0.00090141       0.00984470
C        2.48851801       1.49017511       3.79113594       0.00049654      -0.00147740      -0.01243246
N        1.06363052       3.51664802       3.50562576      -0.00129569      -0.00031680       0.00872277
C       -0.15988636       5.61846337       3.48965293       0.00107242       0.00070805      -0.00081559
C       -1.22431925       7.83115649       3.85747147      -0.00649059       0.00620947      -0.01028210
C       -2.45209502       9.99631275       3.95232158      -0.00093122       0.00376355       0.00404154
C        4.96611449       1.42792222       3.99400662       0.00609253      -0.00446476       0.00612018
N        3.91061658       3.52051218       3.53316978       0.00136269      -0.00325699      -0.00003401
C        1.21593822       7.90470446       3.31403801      -0.00295794       0.00792027      -0.00129801
C        0.02088025       9.96217943       3.93195858       0.00075906      -0.00643279       0.00798199
C        7.42948015       1.38852025       4.19846749       0.00131041      -0.00163633       0.00971454
C        6.22797827       3.52760342       4.15738323       0.00179696       0.00557087      -0.00103350
C        5.13627731       5.61940990       3.51206792      -0.00938024       0.00205172      -0.00360061
C        3.76370535       7.90473366       3.31986750       0.00520404       0.00469151      -0.01167145
C        2.48872648       9.93866060       3.87460641       0.00088275       0.00000890      -0.00285016
C        9.88382070       1.38876523       4.19263934      -0.00033984      -0.00202336       0.00386945
C        8.65697315       3.53618881       4.35733136       0.00329515       0.00151345       0.00942440
C        7.43634185       5.68944151       4.22551683      -0.00374834       0.00124340      -0.00031556
C        6.20304064       7.83247585       3.86669323       0.00265972      -0.00341165      -0.00409483
C        4.95687048       9.96231567       3.93747066       0.00051418      -0.00404394      -0.00909924
Pd       2.49203116       4.75058561       2.82116250      -0.00309795       0.01008533       0.01121045
O        2.50432491       5.46418573       5.16236352      -0.00558889       0.00005334       0.00761223
O        2.41643595       4.29675320       5.93414745       0.00013977       0.00192566      -0.00214729
H        2.16492409       4.66188032       6.81358040       0.00569926      -0.01594706      -0.00376993
