50
Lattice="12.336457 0.0 0.0 -6.168228499999997 10.683685154694365 0.0 0.0 0.0 15.0" Properties=species:S:1:pos:R:3:forces:R:3 energy=-445.572665574568 free_energy=-445.572665574568 stress="-0.0013369648122641558 0.0037340199854429216 4.067558159067913e-06 0.0037340199854429216 -0.005718675255374728 2.7474109915463806e-06 4.067558159067913e-06 2.7474109915463806e-06 1.450470819060759e-06" pbc="T T T"
C       -0.02310464      -0.01261865       3.83059067       0.01389026      -0.00123298      -0.00279393
C       -1.22900832       2.14712915       3.86891976       0.00962454      -0.00385844       0.01205842
C       -2.45434561       4.27003603       3.87098390      -0.00545901       0.00758831       0.00187649
C       -3.72155053       6.39452008       3.83428521       0.00419385       0.00293902      -0.00807944
C       -4.96574629       8.52734567       3.81352305      -0.00184942      -0.00231154       0.00302312
C        2.43728245      -0.02715431       3.76032999      -0.00773433       0.01026011       0.00334371
C        1.23025263       2.11933717       3.86420169      -0.00359059       0.00603350      -0.00474948
C        0.04957221       4.29991765       3.98172788      -0.00194493      -0.00402562      -0.00693487
C       -1.24808873       6.41270665       3.86355834       0.00432386       0.00014848       0.01013002
C       -2.50378990       8.53180010       3.76449426      -0.00055187      -0.00902533       0.00276211
C        4.90524520      -0.01846200       3.65141833      -0.00472984      -0.00290227       0.00051189
C        3.68175624       2.07299558       3.65197171      -0.00074888       0.00110728       0.00876100
N        2.53384075       4.11227419       4.02750828      -0.00031143      -0.00487194      -0.00578397
N        1.13053762       6.54409784       4.02565267      -0.01331969       0.00066279       0.00823647
C       -0.06313785       8.56032847       3.66503763       0.00702800      -0.00129828      -0.00549677
C        7.37689944      -0.00004057       3.65334264      -0.00428466       0.00082241       0.00214942
C        6.15659086       2.11282929       3.64686824       0.00007424       0.00328907      -0.00350431
C        4.91871098       4.20211923       3.57695366       0.00476250      -0.00280853       0.00249429
P        3.90079564       6.52648215       2.36636716       0.00428890       0.00757306       0.00341469
C        2.39892973       8.56728296       3.58781685       0.00091142      -0.00209200      -0.00664999
C        9.85268001       0.00449771       3.75166702       0.00165876       0.00012856      -0.00796248
C        8.63229393       2.13379601       3.76054487      -0.00315594      -0.00598056      -0.00218029
C        7.39852156       4.25477321       3.74852787       0.00258214       0.00116647      -0.00236966
C        6.15141651       6.39662141       3.73379008      -0.00032882      -0.00206328      -0.00522594
C        4.91564613       8.53611581       3.73409201      -0.00149982       0.00825380       0.00041045
C       -0.00979251       1.41906471       3.86319548       0.00964707      -0.00531506      -0.00017892
C       -1.19792551       3.58003280       3.91417678      -0.00299385       0.00116552       0.00294906
C       -2.47504358       5.68980277       3.86453316       0.00287696       0.00950425       0.00335536
C       -3.73383632       7.81616797       3.81541625      -0.00410474      -0.00316880      -0.00329839
C       -4.96617021       9.94963288       3.81169710       0.00457002      -0.00246673       0.00314234
C        2.44495698       1.39261274       3.75667612      -0.00675098       0.01231562       0.00379502
C        1.27981345       3.54892502       3.97073055      -0.00115960      -0.00014826      -0.00684572
C        0.01514758       5.74079971       3.96825694      -0.00455793      -0.00601333       0.00268466
C       -1.27056323       7.82834290       3.76276380       0.00876215      -0.00324458       0.00323318
C       -2.49728120       9.95217971       3.71539625      -0.01126175      -0.00337746       0.00056670
C        4.92183424       1.39508062       3.62777766       0.00085354      -0.00001631       0.01019132
C        3.69131484       3.48140235       3.68431878       0.00055812      -0.00058868      -0.00348040
C        1.16148813       7.86469441       3.69337789       0.00273286      -0.00605494      -0.00099546
C       -0.03029057       9.97315628       3.63748272      -0.00079846      -0.00087330      -0.00067404
C        7.39248751       1.41778881       3.68593660      -0.00560674       0.00009831      -0.00308539
C        6.15715418       3.53425517       3.65115175       0.00572607       0.00203298       0.00086979
C        4.89378722       5.65994961       3.60448382      -0.00975189      -0.00336222       0.00460713
C        3.64824225       7.81545914       3.61013059      -0.00198557      -0.00855783      -0.00323377
C        2.43993870       9.97364610       3.66008263      -0.00289307      -0.00120035      -0.00497034
C        9.86719321       1.42853033       3.79802596       0.00421356      -0.00250646       0.00554370
C        8.63923069       3.55581035       3.79870294      -0.00337412      -0.00341491      -0.00266193
C        7.37929761       5.68037406       3.79474099       0.00690226       0.00124777      -0.00528202
C        6.13071704       7.81116070       3.76921352      -0.00209616       0.00229860      -0.00630926
C        4.90912688       9.95794185       3.79370597       0.00887320       0.00805091       0.00030996
Pd       3.06525177       6.03916419       4.42451125      -0.00221020       0.00609320       0.00232647
