49
Lattice="12.336457 0.0 0.0 -6.168228499999997 10.683685154694365 0.0 0.0 0.0 15.0" Properties=species:S:1:pos:R:3:forces:R:3 energy=-432.88247302068277 free_energy=-432.88247302068277 stress="-0.006162337001989815 0.002140823487374345 -2.822108341026179e-06 0.002140823487374345 0.003431392953128111 -6.477338321946352e-06 -2.822108341026179e-06 -6.477338321946352e-06 1.1960728091066847e-06" pbc="T T T"
C       -0.00303151       0.01303895       3.78656780      -0.00297159       0.01167317       0.01111020
C       -1.23934068       2.12768387       3.98353171      -0.00957928       0.00773022      -0.00087467
C       -2.47377537       4.27507982       3.99226939       0.00928878      -0.00976897       0.00350441
C       -3.70657941       6.41639545       3.79738241       0.01188381      -0.00332613       0.00630092
C       -4.94342252       8.56427126       3.66501849      -0.00564933       0.00148794       0.00298987
C        2.45879180       0.06416173       3.76941094       0.01502646      -0.00445692       0.00091538
C        1.21573681       2.20524339       3.86992411       0.00443054       0.00461930       0.00904397
C       -0.04922804       4.28387715       4.10333682      -0.00362833       0.00288212      -0.00609288
C       -1.26999941       6.42692521       4.03014270      -0.00868896       0.00536063      -0.00859674
C       -2.48498940       8.57013666       3.85336776      -0.00181352      -0.00078426       0.00715412
C        4.92901079       0.01093219       3.81999427      -0.00595733      -0.00451935      -0.00851244
C        3.73528715       2.18577849       3.64703612      -0.00212524       0.00778724      -0.00945979
O        1.10124547       6.44328819       4.12827269      -0.00450612      -0.00198274       0.00674504
C       -0.02207529       8.53767411       3.91848876      -0.00387717      -0.00703412       0.00135063
C        7.40586843      -0.03594307       3.88613930      -0.00260735      -0.00608191       0.00601628
C        6.20125722       2.10578136       3.72144683      -0.00156229      -0.00726836      -0.00395549
C        5.05675770       4.19789365       3.28832305      -0.00408034       0.00232632      -0.00561453
P        3.64103886       6.38532038       2.39078683       0.01014678      -0.00615763       0.01018294
C        2.43638846       8.48485561       3.74003447       0.00764416       0.00520834       0.00357537
C        9.86257031      -0.03371646       3.85885402       0.00901368       0.00885884       0.00411858
C        8.64498474       2.11401800       3.91175141       0.01321679       0.00193347      -0.00668871
C        7.44414879       4.25874933       3.69504820      -0.00820784       0.00426648      -0.00335587
C        6.21186577       6.39868185       3.39821329      -0.00737022       0.00170891      -0.00534395
C        4.92474423       8.53877128       3.53695461      -0.00656448      -0.00465572      -0.00022459
C       -0.00536665       1.43848960       3.89504271      -0.00864089       0.01250759       0.00997498
C       -1.26279369       3.55275557       4.06599828       0.00373225      -0.00004490      -0.01174355
C       -2.48693591       5.69895694       3.95744322       0.01151856      -0.01292459       0.00617256
C       -3.71520216       7.85025615       3.77038639       0.00083720      -0.00225991       0.00300588
C       -4.93623682      10.00262680       3.73534220       0.00531545       0.00611856       0.01057309
C        2.46911833       1.50464858       3.76116891       0.00462705      -0.00125138       0.00103093
N        1.11644624       3.56741312       3.97036830       0.01047028       0.00227701       0.01098273
C       -0.09523431       5.70179055       4.12767335      -0.01358902       0.00226208      -0.00840865
C       -1.26735411       7.85353451       3.94870877      -0.00907637       0.00351103       0.00177688
C       -2.48413329      10.00777916       3.80978935       0.00700872      -0.00988740      -0.00328871
C        4.95277333       1.42762327       3.72747775      -0.00742724      -0.00032695      -0.00600341
N        3.87175965       3.53282627       3.42106075       0.00303861       0.00145946      -0.00890041
C        1.18224802       7.83376232       3.88419835       0.00400256       0.00179757      -0.00824590
C       -0.00575739       9.96424257       3.87412540      -0.01071658      -0.00868166       0.00266442
C        7.41854226       1.39334471       3.85588941       0.01110642      -0.00548505      -0.00741003
C        6.25028090       3.50984999       3.55640492      -0.01175434      -0.00051954      -0.00667188
C        5.07044364       5.61630215       3.10112038      -0.01283187       0.00260052       0.00001706
C        3.67576843       7.85529201       3.40171030      -0.00150895      -0.01855386      -0.00249013
C        2.45760594       9.92138629       3.86087209       0.00818272       0.00834426       0.00386137
C        9.86941995       1.39758599       3.94118539       0.00642577       0.00865005       0.00172813
C        8.64900801       3.54422666       3.88650542       0.00514019      -0.00039758      -0.00449975
C        7.42776830       5.68766160       3.63628377      -0.00344587       0.00841368       0.00162122
C        6.17323117       7.83649423       3.50069879      -0.01293519      -0.00049851      -0.01300377
C        4.93147365       9.96147643       3.74639256      -0.00080570       0.00218663       0.00465876
Pd       2.54326492       4.97932527       3.72657686       0.00986463      -0.00910400       0.00831015
