49
Lattice="12.336457 0.0 0.0 -6.168228499999997 10.683685154694365 0.0 0.0 0.0 15.0" Properties=species:S:1:pos:R:3:forces:R:3 energy=-430.009050936341 free_energy=-430.009050936341 stress="0.0005439737395421593 0.002861682533734866 7.68016511039046e-06 0.002861682533734866 0.004191597463768316 -5.006599326792941e-06 7.68016511039046e-06 -5.006599326792941e-06 -2.596501024486147e-07" pbc="T T T"
C       -0.01616439      -0.01957777       3.71452911      -0.00051451      -0.00511389      -0.00127322
C       -1.24093076       2.11960504       3.74307989      -0.00053712       0.00225343       0.00413411
C       -2.46587016       4.25613824       3.73804110       0.00578953       0.00096335       0.00509723
C       -3.71855391       6.38863734       3.70729211       0.00167455       0.00060913       0.00526593
C       -4.96464759       8.52728216       3.68237850      -0.00164338      -0.00494646       0.00550013
C        2.43919603       0.03569064       3.68435737      -0.01013970       0.00096970      -0.00791747
C        1.18884492       2.14854008       3.68628958       0.00609783      -0.00408786       0.00232264
C       -0.01339373       4.24285212       3.69942292       0.00876511       0.00329676      -0.00359665
C       -1.24346521       6.38252353       3.69658607      -0.00256105      -0.00741971      -0.00557663
C       -2.50605405       8.53406547       3.68503198      -0.00381491       0.00667524       0.00656781
C        4.89558565      -0.01342705       3.71347694       0.00003899       0.00383860      -0.00095329
C        3.71240301       2.13776654       3.69982516       0.00486215      -0.00198118       0.00388871
N        1.17320540       6.41467728       3.71361988       0.00528636      -0.00733566       0.00021612
C       -0.04916908       8.52117811       3.71573526      -0.00282325      -0.00450651      -0.01198523
C        7.37266873      -0.03553505       3.76422828       0.00305426       0.00561460       0.00509657
C        6.16193727       2.09019081       3.76811813      -0.00344958      -0.00372458      -0.00258158
C        4.96813269       4.16335880       3.79944151      -0.00211801       0.00030309       0.00533021
S        3.43149351       6.15317570       3.12515530       0.00281559      -0.00571107       0.01017001
C        2.40006169       8.51382619       3.76460256      -0.00248090       0.00570228       0.00130472
C        9.84922053      -0.03536451       3.78409670       0.00486881       0.00022555      -0.01571261
C        8.62973806       2.10605968       3.77947436      -0.00691288       0.00459929      -0.00318420
C        7.40410299       4.24119383       3.78261488       0.00055981      -0.00026594       0.00708164
C        6.14898213       6.36911071       3.74373284       0.00090383       0.00503535      -0.00083595
C        4.91123743       8.49976506       3.73577936      -0.00100871      -0.00106329      -0.00235723
C       -0.00551918       1.42125160       3.71591739       0.00136343      -0.00223515       0.00140422
C       -1.22379936       3.54805294       3.72983898       0.00791502       0.00484487       0.00281156
C       -2.47390100       5.67510348       3.71138736      -0.00179670      -0.00423950       0.00666718
C       -3.73414526       7.81466004       3.68374869       0.00056010       0.00121860       0.00047552
C       -4.95469971       9.96821912       3.68679558      -0.00540451      -0.00784765      -0.00557731
C        2.44543252       1.48768956       3.68656953       0.00579382       0.00041877      -0.00487036
O        1.15861456       3.53170187       3.66169579       0.00366313      -0.00565106       0.00668348
C        0.02722472       5.68541755       3.69242033       0.00302360       0.00151169      -0.00653521
C       -1.27418341       7.81101190       3.69614318      -0.00585640      -0.00575512       0.00019375
C       -2.50863727       9.97435424       3.68849795      -0.00699844       0.00996209       0.00681192
C        4.90569759       1.41671105       3.72599423       0.00177118      -0.00199912       0.00334807
O        3.76133355       3.51710047       3.72364512      -0.00094729      -0.00135112       0.00376660
C        1.18254944       7.77209121       3.71842475       0.00117826      -0.00474076      -0.00318059
C       -0.03541186       9.94761697       3.73289138       0.00290179       0.00144909      -0.00358658
C        7.38714342       1.38861228       3.77481679      -0.00392063       0.00314634      -0.00161971
C        6.17146212       3.50588683       3.80176479      -0.00284161      -0.00388922       0.00180066
C        4.92237781       5.59421898       3.86609601      -0.00126791       0.00862495       0.00795961
C        3.64119660       7.77021981       3.84451342      -0.00240737       0.00099387      -0.01064374
C        2.43588283       9.92698825       3.78352033       0.00401662       0.00556448      -0.01235820
C        9.86670857       1.39831351       3.77362389      -0.00692178       0.00165827      -0.00509804
C        8.63810851       3.53341596       3.76829799       0.00323957       0.00389032       0.00214114
C        7.38465467       5.66353087       3.74471320       0.00245649       0.00147130       0.00922801
C        6.12875547       7.79160323       3.70637630      -0.00140820       0.00155637      -0.00294973
C        4.91046745       9.93132044       3.74828784       0.00294386      -0.00452720      -0.00766237
Pd       3.65151939       6.36172398       5.36182893      -0.00776888       0.00199468       0.00478834
