53
Lattice="12.336457 0.0 0.0 -6.168228499999997 10.683685154694365 0.0 0.0 0.0 15.0" Properties=species:S:1:pos:R:3:forces:R:3 energy=-460.16976090183425 free_energy=-460.16976090183425 stress="-0.0002323045297408342 0.0040418377610352205 1.519627036720547e-05 0.0040418377610352205 -0.004522605661552851 -3.8167804643940496e-05 1.519627036720547e-05 -3.8167804643940496e-05 -1.843842549872585e-05" pbc="T T T"
C        0.09844920       0.00460450       3.85422150      -0.00138787       0.00296149      -0.00346023
C       -1.10486368       2.16590869       3.87139798      -0.00674296      -0.00174284       0.00676452
C       -2.33180231       4.29084388       3.87312869      -0.00176788      -0.00339839      -0.00191304
C       -3.60188215       6.41373691       3.85551365       0.00351285       0.00045879       0.00121951
C       -4.85025944       8.54294530       3.85147608       0.00445658       0.00109384      -0.00803295
C        2.55780160      -0.00698402       3.78080760      -0.00103689       0.00001238       0.00436412
C        1.35334591       2.14585009       3.82349359       0.00318468       0.00048697       0.00151081
C        0.16977332       4.31896320       3.90584574       0.00386548      -0.00124857       0.00801980
C       -1.12284977       6.43139486       3.84153094      -0.00104296      -0.00078178       0.00568672
C       -2.38371897       8.55103493       3.79744332       0.00218342       0.00457083      -0.00811067
C        5.02745780       0.00173434       3.70896490      -0.00083122      -0.00324942      -0.00835999
C        3.80488145       2.10000267       3.65681586       0.00065491      -0.00424167      -0.00048173
N        2.64939143       4.16208455       3.90991822       0.00804938       0.00137487       0.00233249
N        1.26477985       6.54484690       3.94292014       0.00991170      -0.00433661       0.00336545
C        0.06360292       8.57756870       3.69528173      -0.00064695       0.00024162      -0.00165674
C        7.49958724       0.01858617       3.72114089       0.00409000      -0.00025251      -0.00249829
C        6.28023636       2.13205913       3.70002420       0.00404074      -0.00380612      -0.00308130
C        5.04700707       4.22540194       3.62434196      -0.00168932      -0.00168993       0.00216932
P        3.78267805       6.41337837       2.66676335       0.00372096      -0.01682116       0.00005245
C        2.52654802       8.58550052       3.66271768      -0.00703802       0.00638282      -0.00194776
C        9.97609120       0.02171711       3.81073727      -0.00210033      -0.00055626      -0.00323625
C        8.75612127       2.15255382       3.80251293       0.00128768      -0.00023703       0.00121873
C        7.52175547       4.27474039       3.79202554       0.00139487      -0.00008845       0.00203688
C        6.26278435       6.40900689       3.80787455      -0.00141051       0.00032897       0.00539921
C        5.02674387       8.54721255       3.82001413      -0.00697847       0.00320940       0.01015143
C        0.11423912       1.43860670       3.85676564      -0.00250705       0.00359843       0.00354442
C       -1.07334954       3.60088325       3.89028605      -0.00015671      -0.00079698       0.00348205
C       -2.35291477       5.71076871       3.86372060      -0.00067128      -0.00523879       0.00137265
C       -3.61564698       7.83488504       3.84390331       0.00712381       0.00170927      -0.00123752
C       -4.84581034       9.96665805       3.83835741       0.00007977       0.00093688      -0.00650627
C        2.56859895       1.41310441       3.74804401       0.00094074      -0.00304407       0.00888739
C        1.40530589       3.57622715       3.87928163       0.00817034       0.00025278       0.00195657
C        0.14158598       5.76055289       3.89102826       0.00289809      -0.00025646       0.00286100
C       -1.14913393       7.85070845       3.77917141      -0.00143874       0.00113576      -0.01082937
C       -2.37673076       9.97169546       3.75531815      -0.00178021       0.00231151       0.00627422
C        5.04410908       1.41630542       3.67668094       0.00120570      -0.00328899      -0.00715919
C        3.80771641       3.51348832       3.64972094       0.00402531      -0.00399402      -0.00272248
C        1.28824231       7.87052921       3.68910575      -0.00076715      -0.00138001       0.00672463
C        0.09223174       9.99175927       3.70058266       0.00101522       0.00061382      -0.01154099
C        7.51522428       1.43626167       3.74245465       0.00592778      -0.00186761       0.00860353
C        6.28099663       3.55433402       3.70276415      -0.00022547      -0.00168349      -0.00096755
C        5.01592045       5.66514049       3.73432050      -0.00886662       0.00197653      -0.00620763
C        3.75895158       7.83537712       3.76018096      -0.01256523       0.00957765       0.00313927
C        2.56304717       9.99017663       3.73503836       0.00026716       0.00531846      -0.00893936
C        9.99088350       1.44702170       3.83480949      -0.00513564      -0.00276847       0.00016192
C        8.76281203       3.57504554       3.82834649      -0.00168339      -0.00065177      -0.00342388
C        7.49739297       5.69957619       3.83476769       0.00184169       0.00145146      -0.00155877
C        6.24432534       7.82476341       3.83598909      -0.00099114       0.00157434      -0.00163238
C        5.02982063       9.97190096       3.84633768      -0.00141549       0.00380654      -0.00211244
Pd       3.19473647       6.05049360       4.76734847      -0.00388478      -0.00751970       0.00441800
O        2.17600376       5.26397643       6.41672007       0.00360737       0.00107595      -0.01609731
O        1.12308582       6.16048941       6.75139441      -0.01530972       0.01187189      -0.00055012
H        0.83925522       5.78784975       7.61378748       0.00261579       0.00660786       0.01854711
