52
Lattice="12.336457 0.0 0.0 -6.168228499999997 10.683685154694365 0.0 0.0 0.0 15.0" Properties=species:S:1:pos:R:3:initial_magmoms:R:1:forces:R:3 energy=-455.96364859812485 free_energy=-455.96364859812485 stress="-0.0002237120552402258 0.003873004223708863 -7.949457289071001e-06 0.003873004223708863 -0.004630973357174507 -3.4574940133489498e-06 -7.949457289071001e-06 -3.4574940133489498e-06 2.573363743544523e-05" pbc="T T T"
C        0.04089932       0.00670837       3.78973343       0.00000000       0.00481105      -0.00167072       0.01297288
C       -1.16274160       2.16704508       3.82772773       0.00000000       0.00249762      -0.00151858       0.00006766
C       -2.38869925       4.29300053       3.80921774       0.00000000      -0.01052489      -0.00301201      -0.00364777
C       -3.65800405       6.41545999       3.76164874       0.00000000      -0.00315111       0.00338407       0.01238794
C       -4.90692725       8.54468856       3.76077241       0.00000000       0.00168811       0.00353196      -0.00007226
C        2.50027264      -0.00560972       3.72505241       0.00000000       0.00547643      -0.00004948      -0.00693776
C        1.29642520       2.14620088       3.80655936       0.00000000      -0.00259982       0.00483881       0.00438066
C        0.11329724       4.32284976       3.86420571       0.00000000      -0.00091579       0.00092967       0.00236087
C       -1.17756871       6.43248775       3.73152501       0.00000000      -0.00587270      -0.00358107       0.00750618
C       -2.44084185       8.55251394       3.68446217       0.00000000       0.00138300      -0.00336840       0.00747346
C        4.96960538       0.00293876       3.62765446       0.00000000       0.00771854       0.00719471       0.00129839
C        3.74762050       2.10188939       3.65452346       0.00000000      -0.00852679      -0.00366052       0.00231321
N        2.59150350       4.15811500       3.95426695       0.00000000       0.00520535      -0.00013616      -0.01223501
N        1.20634493       6.55169309       3.86926725       0.00000000      -0.00263622       0.00448387       0.00309827
C        0.00683934       8.57907316       3.57489645       0.00000000       0.00265849       0.00208918      -0.00079435
C        7.44174491       0.02134823       3.63213936       0.00000000       0.00569937      -0.00570581       0.00339091
C        6.22222919       2.13402423       3.65916875       0.00000000       0.00654201      -0.00131461       0.00112617
C        4.98719655       4.22666965       3.62119129       0.00000000       0.00001967      -0.00729490      -0.01102454
P        3.73701407       6.39564535       2.59275430       0.00000000      -0.01105222       0.00647233      -0.00095446
C        2.47005557       8.58935636       3.55149353       0.00000000      -0.00204412       0.00230742       0.00321332
C        9.91800961       0.02407234       3.73484679       0.00000000      -0.00156780       0.00673934      -0.00797664
C        8.69866239       2.15476496       3.74862656       0.00000000      -0.00526615      -0.00149553      -0.00491890
C        7.46460029       4.27695721       3.74129926       0.00000000      -0.00254308       0.00022866       0.00090538
C        6.20619388       6.41225538       3.74134274       0.00000000       0.00706376      -0.00428423       0.00164314
C        4.97047132       8.55164652       3.73055860       0.00000000      -0.00099284      -0.00092650       0.00400029
C        0.05642732       1.43990423       3.81611853       0.00000000       0.00358429      -0.00133727       0.00463747
C       -1.12988745       3.60265924       3.84211783       0.00000000      -0.00321658      -0.00069135      -0.01479092
C       -2.40919579       5.71212991       3.77293589       0.00000000      -0.00889747      -0.00138155       0.00095027
C       -3.67196540       7.83637209       3.73938060       0.00000000      -0.00242981       0.00185718       0.01054883
C       -4.90350525       9.96844450       3.76512043       0.00000000       0.00693145       0.00180242       0.00326552
C        2.51218035       1.41461836       3.73221587       0.00000000      -0.00870729       0.00062272      -0.01058689
C        1.34548096       3.57618018       3.87506238       0.00000000       0.00183279       0.00415925       0.00589868
C        0.08592246       5.76232151       3.81647000       0.00000000      -0.00148371      -0.00005879       0.00001716
C       -1.20561881       7.85256282       3.65410493       0.00000000       0.00341438      -0.00316776       0.01478467
C       -2.43474935       9.97351712       3.67082447       0.00000000       0.00782606      -0.00084449      -0.00506166
C        4.98633417       1.41790959       3.63454137       0.00000000       0.00064162       0.00771809       0.00578032
C        3.74955717       3.51478678       3.67596434       0.00000000      -0.00232686      -0.00729629      -0.00465023
C        1.23246224       7.87139152       3.58191477       0.00000000       0.00230716       0.00014844       0.00281997
C        0.03479807       9.99346187       3.59622052       0.00000000       0.00627256       0.00194127       0.00060414
C        7.45773078       1.43863190       3.68291691       0.00000000       0.00334535      -0.00729384      -0.00622406
C        6.22294329       3.55567196       3.67590233       0.00000000       0.00206654      -0.00259048       0.00301723
C        4.96022507       5.66737312       3.68566168       0.00000000       0.00139321      -0.00547406      -0.00072668
C        3.70306998       7.84578454       3.65000740       0.00000000      -0.00734480      -0.00325020       0.00624478
C        2.50511182       9.99411194       3.63845845       0.00000000       0.00266486       0.00094053      -0.00308049
C        9.93301456       1.44876669       3.77866147       0.00000000      -0.00225616       0.00585354      -0.01129066
C        8.70578198       3.57721722       3.77285885       0.00000000      -0.01020676      -0.00272211       0.00679874
C        7.44090757       5.70223666       3.76605788       0.00000000       0.00462620      -0.00172891      -0.00443429
C        6.18743677       7.82799187       3.75251053       0.00000000       0.00299201      -0.00086699      -0.00515206
C        4.97259544       9.97529081       3.76805131       0.00000000      -0.00095241       0.00269396      -0.00236133
Pd       3.11692743       6.07528565       4.70057764       0.00000000       0.00101386       0.00447919       0.00206464
O        0.91353255       5.53938965       6.41739630       1.00000000       0.04185848      -0.00829142      -0.01675941
O        2.19027077       5.51482423       6.53951037       1.00000000      -0.03801884       0.01059742      -0.00189077
