50
Lattice="12.336457 0.0 0.0 -6.168228499999997 10.683685154694365 0.0 0.0 0.0 15.0" Properties=species:S:1:pos:R:3:forces:R:3 energy=-433.93470147970123 free_energy=-433.93470147970123 stress="-0.005507381799771335 1.0394744652342012e-06 2.7796271626546575e-06 1.0394744652342012e-06 0.00336859528429905 -5.70701390299266e-06 2.7796271626546575e-06 -5.70701390299266e-06 2.62231956444876e-06" pbc="T T T"
C        0.00204675      -0.00419161       3.93171524      -0.00368412      -0.00536429      -0.00279704
C       -1.24952930       2.09473560       4.09685860      -0.00396159       0.00525352      -0.00291449
C       -2.48521509       4.24969506       4.23123730      -0.01153443       0.00513815       0.00714243
C       -3.70152608       6.40635903       4.16561555       0.00237842       0.00663347       0.00164929
C       -4.93733266       8.54695635       3.93050899       0.00151849      -0.00254112       0.00457381
C        2.46690067       0.05269962       3.86877059       0.00004247       0.00113632       0.00809672
C        1.19342213       2.17408195       3.74041611       0.00051540      -0.00031123       0.00424414
C       -0.13004927       4.20560402       3.64262679      -0.00077408       0.00212735       0.00337828
C       -1.27901567       6.38501078       3.82533577      -0.00121876       0.00029402       0.00031908
C       -2.46550503       8.54686616       3.92943683      -0.00243569      -0.00070338       0.00891412
C        4.93177735      -0.00426559       3.93181303       0.00416810      -0.00496251      -0.00467236
C        3.74048426       2.17394285       3.74038646      -0.00120098       0.00123329       0.00589541
S        0.93965181       6.40820664       2.33398381       0.00561425       0.00281931       0.00502063
C       -0.00991444       8.53212265       3.64708263       0.00102451       0.00089138      -0.00161239
C        7.40762827      -0.04655553       3.96601346       0.00584739       0.00099748       0.00350596
C        6.18344620       2.09467262       4.09754024       0.00285661       0.00380463      -0.00502335
C        5.06376937       4.20546095       3.64293005       0.00221552       0.00146242       0.00461931
S        3.99423126       6.40788869       2.33418669      -0.00676897       0.00332437       0.00252557
C        2.46694236       8.52984007       3.40038531       0.00032649      -0.01316868       0.00457162
C        9.86283100      -0.04640969       3.96616263      -0.00778282      -0.00245420       0.00171947
C        8.63517729       2.09132804       4.23927292       0.00058867      -0.00868673       0.00259019
C        7.41917706       4.24953369       4.23158265       0.00783370       0.00701723       0.00661880
C        6.21255861       6.38488761       3.82589309       0.00187799       0.00169088       0.00151536
C        4.94367595       8.53211198       3.64697702      -0.00019718       0.00218652      -0.00021567
C       -0.01144871       1.41818853       3.94754746      -0.00663251      -0.00161093      -0.00521069
C       -1.28403972       3.51344547       4.06886733      -0.01270826       0.00689854      -0.00885946
C       -2.48328737       5.67892791       4.14724809      -0.00273426       0.00515685       0.00871555
C       -3.70143982       7.83268628       4.02372769       0.00012931      -0.00043681      -0.00479321
C       -4.92771590       9.98897205       3.90265245       0.00186903      -0.00300382      -0.00723958
C        2.46693303       1.48811396       3.76649466      -0.00009054       0.00647656       0.00003741
N        1.03593181       3.51230020       3.49324524       0.00458487       0.00012690       0.01128469
C       -0.20487631       5.60266145       3.38664672      -0.00598020      -0.00281148      -0.01104836
C       -1.24838347       7.82245869       3.78336425      -0.00076580       0.00210372      -0.00405689
C       -2.47497098       9.98888717       3.90215328      -0.00160343      -0.00130876      -0.00635331
C        4.94536269       1.41812571       3.94800220       0.00520299      -0.00191919      -0.00625332
N        3.89777852       3.51220356       3.49339335      -0.00259131       0.00056816       0.01077782
C        1.19259199       7.89587388       3.24061093       0.00066591      -0.00645126      -0.00934875
C       -0.00161678       9.94990831       3.87823999       0.00743517       0.00094121      -0.00334583
C        7.40933924       1.37367152       4.14957543       0.00197909      -0.00053985      -0.00394771
C        6.21789033       3.51340863       4.06932393       0.01171395       0.00453866      -0.00898102
C        5.13841979       5.60257191       3.38718394       0.00792962      -0.00318009      -0.01097074
C        3.74125338       7.89607483       3.23978857       0.00091821      -0.00627884      -0.00441867
C        2.46704603       9.92447903       3.81186137      -0.00197119      -0.00575570       0.00021021
C        9.86103940       1.37383770       4.14934618      -0.00154789      -0.00346130      -0.00405160
C        8.63527661       3.52439690       4.30702268      -0.00253032      -0.00778459       0.00128795
C        7.41681582       5.67874608       4.14770389       0.00530123       0.00805036       0.00829466
C        6.18202605       7.82240772       3.78411153      -0.00002285       0.00249519      -0.00543402
C        4.93547858       9.94991327       3.87846091      -0.00704728       0.00111054      -0.00545605
Pd       2.46673858       4.81684995       2.96821916       0.00220230      -0.00148974       0.00637945
O        2.46741804       5.59059298       4.67566478      -0.00095519      -0.00025252       0.00311658
