50
Lattice="12.336457 0.0 0.0 -6.168228499999997 10.683685154694365 0.0 0.0 0.0 15.0" Properties=species:S:1:pos:R:3:forces:R:3 energy=-441.7794671532336 free_energy=-441.7794671532336 stress="-0.0003560360699306693 1.6979985126413886e-06 8.738895270994973e-06 1.6979985126413886e-06 -0.002945145138614856 -1.15107073072532e-05 8.738895270994973e-06 -1.15107073072532e-05 3.7098812928234623e-06" pbc="T T T"
C        0.00223816      -0.02351058       3.89851112      -0.00370521       0.00945992      -0.00159323
C       -1.22483210       2.12277953       3.95237835      -0.00059574      -0.00245702      -0.00500083
C       -2.46341005       4.25262282       3.89542171       0.00638611       0.00326654      -0.00133757
C       -3.70173599       6.38452839       3.83038418      -0.00674141       0.00045601       0.00158810
C       -4.93965008       8.51701423       3.81614855      -0.00594468       0.01228062       0.00587834
C        2.46583939      -0.03470870       3.93835301       0.00470869       0.00594410       0.00555742
C        1.24396655       2.10841628       3.95567902       0.00513897      -0.00421266       0.00034126
C        0.01689881       4.24992420       3.77022377       0.00205402      -0.01091366      -0.00259878
C       -1.23119293       6.37995197       3.65393272       0.00121104       0.00186727       0.00444166
C       -2.46417301       8.51762559       3.81604465       0.00513491       0.00381753       0.00704409
C        4.93052563      -0.02381612       3.89827454       0.00075491       0.00894402      -0.00073687
C        3.68788689       2.10716005       3.95450464       0.00343872       0.00564755       0.00334455
N        2.46704054       4.19369712       4.00055151      -0.00589897       0.00158617      -0.00868778
P        1.20880538       6.38696298       2.37657010       0.01481529       0.00385232       0.00454480
C       -0.01661058       8.54438514       3.62104654       0.00090637       0.00290798      -0.00691031
C        7.39357291       0.00319551       3.81268094      -0.00624424      -0.00801501      -0.00305240
C        6.15712729       2.12279532       3.95265052       0.00111648      -0.00550011      -0.00664746
C        4.91564356       4.24899219       3.76978831      -0.00245466      -0.00454868      -0.00057770
P        3.72431456       6.38874818       2.37420931      -0.00574334      -0.00564636       0.00443662
C        2.46590179       8.64141889       3.31693346       0.00137775      -0.00612589       0.00765129
C        9.87542091       0.00333986       3.81214049       0.00350798      -0.00709405      -0.00188502
C        8.63431213       2.12390000       3.94602328       0.00019344      -0.00452391       0.00907387
C        7.39588503       4.25325309       3.89638026      -0.00579362      -0.00636714      -0.00504986
C        6.16294955       6.37989612       3.65529868       0.00206461       0.00299587       0.00122741
C        4.94972713       8.54522705       3.62013559      -0.00311084      -0.00316009      -0.00389501
C        0.00716532       1.40364751       3.94834435      -0.00116807       0.00544528      -0.00449693
C       -1.21885812       3.54371149       3.90433051       0.00388354      -0.00390669       0.00638837
C       -2.46464536       5.67403968       3.81690261      -0.00139620       0.00418291       0.00438981
C       -3.70174900       7.80847999       3.82616229      -0.00351027       0.00539942      -0.00747787
C       -4.93741884       9.93976413       3.89255828      -0.00284395       0.01497110      -0.00062596
C        2.46557589       1.39189110       3.96905024       0.00793122       0.00222130       0.00083123
C        1.27496473       3.53941534       3.90443828       0.00109230      -0.00989358       0.00210305
C       -0.02579483       5.63454507       3.47478399      -0.00735252      -0.00808633       0.00389846
C       -1.22434877       7.81266214       3.68329169       0.00595379       0.00439909      -0.00436116
C       -2.46680227       9.94030381       3.89306808       0.00542136       0.00708745      -0.00605354
C        4.92518176       1.40321680       3.94724546       0.00305455       0.00574723       0.00000492
C        3.65815840       3.53793785       3.90401392      -0.00541084       0.00192816      -0.00178181
C        1.26019879       7.87016550       3.35249781       0.00202041       0.00021666      -0.00425004
C       -0.00379815       9.95330967       3.79175913      -0.00592256      -0.00049676       0.00180859
C        7.39396587       1.41602641       3.92892513      -0.00194868      -0.00842414      -0.00178313
C        6.15146147       3.54385602       3.90481142      -0.00548410      -0.00752520       0.00403577
C        4.95693363       5.63457375       3.47648153       0.01306726      -0.00378968      -0.00069948
C        3.67274806       7.87100507       3.35241867      -0.00334367      -0.01017315      -0.00219288
C        2.46625217      10.00697597       3.66121433      -0.00093245      -0.00089478      -0.01156411
C        9.87472957       1.41607048       3.92807370       0.00171127      -0.00638125       0.00186375
C        8.63430570       3.54447669       3.93827930       0.00283139       0.00034941       0.00119025
C        7.39710546       5.67462525       3.81732199      -0.00554778      -0.00442326       0.00737592
C        6.15663018       7.81248835       3.68365837      -0.00356831       0.00629026      -0.00414950
C        4.93668474       9.95388050       3.79140740       0.00186534      -0.00373062       0.00005979
Pd       2.47318131       6.45383830       4.38535552      -0.00697960       0.01502581       0.00832991
