50
Lattice="12.336457 0.0 0.0 -6.168228499999997 10.683685154694365 0.0 0.0 0.0 15.0" Properties=species:S:1:pos:R:3:forces:R:3 energy=-434.3077272049349 free_energy=-434.3077272049349 stress="-0.002126471440500701 6.823847120133277e-07 1.75469211365791e-05 6.823847120133277e-07 0.0055748457026553715 -1.3102462354291184e-06 1.75469211365791e-05 -1.3102462354291184e-06 2.4127165835636803e-05" pbc="T T T"
C       -0.03187368       0.01254803       3.94330212       0.00001854       0.00529756       0.00864698
C       -1.27736825       2.12445568       4.10401734       0.00055118       0.00313191       0.00813807
C       -2.51202104       4.26925956       4.12393843      -0.00364021       0.00431519       0.00436839
C       -3.72959032       6.41719431       3.95666592      -0.00044807      -0.00507190       0.01376764
C       -4.97253791       8.55773507       3.83737734       0.00202706      -0.00248844      -0.00499310
C        2.43076765       0.04313576       3.90486280      -0.00469151       0.00522761       0.00530153
C        1.17964887       2.20287218       3.92812716       0.00422487      -0.00312099      -0.00797919
C       -0.06807830       4.25442945       4.17479335       0.00194061      -0.00121708      -0.01475941
C       -1.29124205       6.42081301       4.18583123      -0.00573540      -0.00266759      -0.00456685
C       -2.50940821       8.56418379       4.02909725       0.00437621       0.01048782       0.01470005
C        4.90308184       0.00494733       3.87282019       0.00197579       0.00066829       0.00463926
C        3.66646214       2.08111947       3.37715919      -0.00279806       0.00357289      -0.00001468
N        1.09052296       6.40149061       4.00625208       0.00694473       0.00150559      -0.01106370
C       -0.03495386       8.52324688       4.02660594      -0.00137422      -0.00639214      -0.01783218
C        7.36962164      -0.02766249       3.91534673      -0.00406114       0.00023534      -0.00283568
C        6.15538782       2.12265069       3.59421714      -0.00685491      -0.00781245      -0.00707940
C        5.15625421       4.28073347       2.83511965       0.00591126      -0.00058231       0.00552339
S        3.73632593       6.55108712       2.23518718       0.00529390       0.00906853       0.00225900
C        2.43388936       8.48534870       3.75879103      -0.00230270      -0.00330035      -0.01112128
C        9.83025268      -0.02969116       3.94320813      -0.00145536      -0.01197755      -0.00043270
C        8.59925653       2.11997837       3.95119831       0.00926230       0.00048818       0.01130636
C        7.41187839       4.26753483       3.70130150      -0.00325395      -0.00213126       0.00934820
C        6.22325384       6.42726147       3.38018359       0.00258692       0.00966137      -0.00551258
C        4.91103035       8.54543933       3.62340355      -0.00622656       0.00455243       0.01127349
C       -0.03499814       1.44331898       4.02661409      -0.00085116       0.00526111      -0.01846704
C       -1.29120688       3.54563924       4.18581418      -0.00678530       0.00395477      -0.00474959
C       -2.51204500       5.69719542       4.12396376      -0.00283933      -0.00311678       0.00424149
C       -3.73710773       7.84659983       3.95119741       0.00781109      -0.00188305       0.01113689
C       -4.96692969       9.99415322       3.91534996      -0.00244516       0.00011991      -0.00314029
C        2.43388267       1.48119703       3.75872158      -0.00239833       0.00278921      -0.01135231
N        1.09057314       3.56511584       4.00605903       0.00525841      -0.00334262      -0.01086265
C       -0.06809858       5.71208707       4.17484134       0.00261402       0.00123971      -0.01477928
C       -1.27726878       7.84200850       4.10405475      -0.00103313      -0.00217708       0.00777619
C       -2.50625248       9.99616947       3.94321030      -0.00052287       0.01256028      -0.00071001
C        4.91102221       1.42096666       3.62345396      -0.00649534      -0.00250466       0.01004550
S        3.73636046       3.41541722       2.23490061       0.00613105      -0.01099033       0.00418202
C        1.17965658       7.76371923       3.92824270       0.00443276       0.00143877      -0.00827333
C       -0.03181125       9.95398678       3.94329233      -0.00083941      -0.00586558       0.00864996
C        7.36391854       1.40874094       3.83739382       0.00180044       0.00303252      -0.00541438
C        6.22323910       3.53919931       3.38017887       0.00259560      -0.00916927      -0.00560302
C        5.15630470       5.68572209       2.83505912       0.00568590       0.00043349       0.00617921
C        3.66641662       7.88537828       3.37720485      -0.00161529      -0.00320988       0.00083858
C        2.43085909       9.92336166       3.90492636      -0.00625154      -0.00495211       0.00499305
C        9.82692062       1.40231653       4.02912042       0.00658519      -0.01036293       0.01439967
C        8.60681634       3.54939507       3.95663488       0.00015182       0.00352041       0.01379054
C        7.41190901       5.69906635       3.70135066      -0.00353905       0.00030714       0.00882246
C        6.15538277       7.84375427       3.59427801      -0.00644268       0.00953423      -0.00763393
C        4.90310006       9.96147122       3.87282617       0.00153551       0.00116089       0.00447665
Pd       2.60602504       4.98316152       3.66951673       0.00309204       0.00059753      -0.00273885
O        3.51090862       4.98226375       5.27366987      -0.00790651       0.00017367      -0.01688915
