49
Lattice="12.336457 0.0 0.0 -6.168228499999997 10.683685154694365 0.0 0.0 0.0 15.0" Properties=species:S:1:pos:R:3:forces:R:3 energy=-429.29446694685686 free_energy=-429.29446694685686 stress="-0.0031681204516289096 0.003031119749462645 1.3188235121501405e-06 0.003031119749462645 0.004339699807921274 -4.565781823366573e-06 1.3188235121501405e-06 -4.565781823366573e-06 4.7317214910660223e-07" pbc="T T T"
C        0.00287052       0.00053129       3.74755406       0.00125700       0.00193065       0.00207402
C       -1.22212144       2.14041463       3.49046401      -0.00137435      -0.00172264       0.00293019
C       -2.48099643       4.28013907       3.60160674      -0.00516230      -0.00269681      -0.00834456
C       -3.71774936       6.41458366       3.83170641      -0.00543178       0.00027666      -0.00673324
C       -4.94226110       8.55544199       3.90863367       0.00697619       0.00522545       0.00150715
C        2.47234673       0.03287383       3.89983553       0.00577053      -0.00136614      -0.00923049
C        1.27191010       2.10438874       3.43896619       0.00026533       0.00793136       0.00202164
C       -0.11312330       4.37391111       3.11029877      -0.00261076      -0.00130678       0.00478453
C       -1.30080210       6.45033751       3.56583910      -0.00220057       0.00269000      -0.00062900
C       -2.48154446       8.56141560       3.86337364       0.00316222       0.00518889       0.00042970
C        4.93779977      -0.00156304       3.90020128       0.00187186       0.00128885       0.00145490
C        3.75428878       2.13015507       3.93981151      -0.00564455      -0.00417393       0.00406696
O        1.08473664       6.46705435       3.29880953       0.01380910      -0.00657909       0.00856099
C       -0.01546251       8.53914984       3.75364612      -0.00219013       0.00044054      -0.00225888
C        7.41901331      -0.03979367       3.80304427      -0.00105193      -0.00034974      -0.00077435
C        6.20199042       2.11336354       3.91739774      -0.00153906       0.00590090      -0.00174494
C        5.01371330       4.25602582       4.06546362       0.00112458      -0.00265269       0.00229109
N        3.78902279       6.39404963       4.05017487       0.00474335      -0.00218470      -0.00322944
C        2.44556520       8.45480668       3.75912481      -0.00572273       0.00096496       0.00077153
C        9.87041534      -0.03448786       3.71828633       0.00148273       0.00112149       0.00311415
C        8.65438049       2.11993451       3.72802751      -0.00193317      -0.00042952       0.00398160
C        7.41349381       4.26516943       3.86867134       0.00748658       0.00218386       0.00499184
C        6.18054574       6.40138679       3.96445268      -0.00134066      -0.00082333       0.00469276
C        4.92846089       8.51814946       3.86551284      -0.00235526      -0.00788855       0.00326831
C        0.01965352       1.43145387       3.54953523       0.00178712       0.00400697       0.00309839
C       -1.25515254       3.57712652       3.38879056      -0.00507809      -0.00386829      -0.00331468
C       -2.50435703       5.70175609       3.67030573      -0.00613897      -0.00049537      -0.00410574
C       -3.71567840       7.84245503       3.88141858       0.00455950       0.00314045      -0.00233002
C       -4.93349030       9.98980892       3.86437932       0.00460793       0.00558555       0.00169676
C        2.49920986       1.47367093       3.80852771      -0.00119277      -0.00603788      -0.01468995
S        1.36085709       3.60761046       2.55885764       0.00276331      -0.00665541       0.00270997
C       -0.14054848       5.76057453       3.26340311       0.00041445      -0.00011082      -0.00606743
C       -1.26807964       7.85925539       3.74139513      -0.00105439       0.00517264      -0.00796456
C       -2.47251946       9.99364430       3.91818961       0.00543945       0.00115111      -0.00779280
C        4.95423728       1.42756895       3.93614507      -0.00279395       0.00237927       0.00120843
O        3.83270491       3.50703301       4.22974094      -0.00137302      -0.00386884       0.00736244
C        1.18734097       7.83350154       3.65151707      -0.00152538       0.00135989      -0.00138405
C        0.00663261       9.96056045       3.83778412      -0.00064956      -0.00078802      -0.00154437
C        7.42160017       1.40123537       3.82412971      -0.00318099       0.00158074      -0.00390009
C        6.19497811       3.53864610       3.95377229       0.00685780       0.00528876       0.00176874
C        4.96399856       5.67182783       4.03938454       0.00187394      -0.00410375       0.00534726
C        3.70971336       7.75192132       3.87886108      -0.00668296      -0.00452097       0.00917120
C        2.47074201       9.90427886       3.75914054      -0.00035513       0.00168827      -0.00486074
C        9.88938415       1.40931992       3.64078367      -0.00131032       0.00100819       0.00457320
C        8.64041197       3.54993863       3.73824959       0.00057868      -0.00212211       0.00270006
C        7.39638439       5.68581034       3.89795778      -0.00316853       0.00005236       0.00047657
C        6.16393157       7.82631125       3.92350291       0.00337828      -0.00037655      -0.00218162
C        4.93314766       9.94872281       3.77117773       0.00002395      -0.00511935      -0.00164493
Pd       2.35579786       5.02707873       4.13686733      -0.00717256       0.00268343       0.00367151
