50
Lattice="12.336457 0.0 0.0 -6.168228499999997 10.683685154694365 0.0 0.0 0.0 15.0" Properties=species:S:1:pos:R:3:forces:R:3 energy=-437.29691399361417 free_energy=-437.29691399361417 stress="-0.005715406302289135 0.003039018410253086 -9.554009615368447e-06 0.003039018410253086 0.005206387590066287 -4.488472177487226e-06 -9.554009615368447e-06 -4.488472177487226e-06 -1.1940742848325498e-05" pbc="T T T"
C       -0.01737769       0.02112865       3.80709389      -0.00165164       0.00526002       0.00049167
C       -1.25191464       2.13255480       3.99982108      -0.00290966      -0.00152061       0.00211064
C       -2.49303412       4.27628550       4.01310077       0.00854546      -0.00285576      -0.00084589
C       -3.73135020       6.41740571       3.81381987      -0.00220334       0.00787052       0.01272999
C       -4.96558455       8.56734508       3.67933337      -0.00775315      -0.00485985      -0.00584438
C        2.44338968       0.07830027       3.77094219      -0.01247417      -0.00424565      -0.00091806
C        1.20338430       2.22974153       3.85500200       0.00087788       0.00142945       0.00784839
C       -0.06883446       4.29069328       4.11073627      -0.00315235       0.00173334       0.00268950
C       -1.29815292       6.43020672       4.08860366       0.00107000       0.00198456      -0.00304721
C       -2.50823768       8.57408325       3.89483668       0.00043996       0.01472522       0.00801695
C        4.91491026       0.01094065       3.83574582      -0.00441656      -0.00119072       0.00057068
C        3.73420726       2.17842009       3.56370290       0.00609375      -0.00082155      -0.00500604
O        1.05926097       6.45301591       4.19505260       0.01305782      -0.00782981      -0.00828199
C       -0.04313319       8.53871297       4.00333012      -0.00012844      -0.00457270      -0.01075032
C        7.39126447      -0.03895747       3.92883507       0.00557352      -0.00481000       0.00829764
C        6.19586675       2.09872022       3.67972015       0.00354251      -0.00132604      -0.00875684
C        5.07137575       4.17640451       3.14305410      -0.00521718       0.00809331      -0.01463552
P        3.60642267       6.40583481       2.36338724       0.00203757      -0.00567637       0.00117966
C        2.41748320       8.47822660       3.80571752      -0.00099241      -0.00617316      -0.00101309
C        9.84827504      -0.03513598       3.90088442       0.01096833      -0.00079457       0.00089899
C        8.63318765       2.11199630       3.91966720       0.00169603       0.00816244       0.00620922
C        7.43460598       4.25485733       3.66246780      -0.00369027       0.00419127      -0.00064742
C        6.19477034       6.39549270       3.35797167      -0.00418016      -0.00330432      -0.00518986
C        4.90148906       8.53745805       3.56045918       0.00063821      -0.01033377       0.00089165
C       -0.01435766       1.45137231       3.90494564      -0.00167168       0.00518029       0.00182219
C       -1.27806781       3.55804144       4.08052064       0.00265639      -0.00634950       0.00601141
C       -2.51362266       5.70069656       3.99124783       0.00057978      -0.00126064       0.00157976
C       -3.73847613       7.85304043       3.79342684       0.00007614       0.01174937       0.01168451
C       -4.95253942      10.01034204       3.74985568      -0.01252234      -0.00568307       0.00434071
C        2.45792527       1.52075362       3.72848410       0.00256955      -0.00533592       0.00430852
N        1.09659500       3.59152073       3.95367978      -0.00330369       0.00094857       0.01630006
C       -0.12819768       5.70876290       4.17327353       0.00406886       0.00157015      -0.00188034
C       -1.29145429       7.85678838       4.01882124      -0.00226750       0.00513458       0.00287629
C       -2.50269408      10.01273177       3.82988320      -0.00776758       0.00812645       0.00116418
C        4.94497023       1.42189880       3.69047136       0.00504231      -0.00367535      -0.00913448
N        3.89558910       3.50317537       3.25862003      -0.00330902       0.00480645       0.00277623
C        1.15484108       7.83382175       3.97195484       0.00091661      -0.00785813      -0.01388400
C       -0.02267131       9.96461773       3.92782097      -0.00149113      -0.00292011      -0.00637828
C        7.40753222       1.38943268       3.86042607       0.00562826      -0.00022862      -0.00090364
C        6.25324695       3.49880542       3.46877132      -0.00699238       0.00416491      -0.00465270
C        5.07518866       5.61068548       2.99168725      -0.00591087       0.00542683      -0.00502730
C        3.64967306       7.85101356       3.42799104      -0.00085711      -0.00537698       0.00364728
C        2.44305424       9.91523274       3.91767991       0.00919408      -0.00441002       0.00053276
C        9.85700614       1.39775634       3.96664279      -0.00076129       0.00291907       0.00757584
C        8.63441706       3.54284743       3.88616076       0.00231426       0.00801812       0.00499063
C        7.40904033       5.68685717       3.61804667      -0.00309163       0.00482797      -0.00164938
C        6.15246245       7.83625236       3.50284267      -0.00398995      -0.01101098      -0.01263571
C        4.91604707       9.96135269       3.78096210       0.00760702      -0.00342910      -0.00791802
Pd       2.61126922       4.97783042       3.79746005       0.00978888      -0.00249013       0.00627978
O        3.23160724       4.91851277       5.53803040      -0.00227771       0.00402052       0.00117536
