52
Lattice="12.336457 0.0 0.0 -6.168228499999997 10.683685154694365 0.0 0.0 0.0 15.0" Properties=species:S:1:pos:R:3:forces:R:3 energy=-444.078705865144 free_energy=-444.078705865144 stress="-0.0031853098218144788 0.004245571215476799 -1.2281432726889597e-05 0.004245571215476799 0.00391927237890268 1.635607659365565e-05 -1.2281432726889597e-05 1.635607659365565e-05 8.182112328458364e-06" pbc="T T T"
C       -0.03370570       0.08115951       3.78284742       0.00279496      -0.00516158      -0.00877184
C       -1.25679823       2.22485285       3.58149523       0.00568120      -0.00273820      -0.00250585
C       -2.52686696       4.36237766       3.61741449      -0.00657440       0.00137586       0.00683865
C       -3.76969128       6.49382193       3.77203556       0.00005460       0.00791658      -0.00151006
C       -4.98430146       8.62998882       3.86854353      -0.01457574      -0.00051570       0.00022076
C        2.43798210       0.10596756       3.85870209       0.00070691       0.00038516       0.00359382
C        1.23259421       2.19224911       3.53687946       0.00566855      -0.00450582       0.00425145
C       -0.14201554       4.46162791       3.30098705       0.00162208      -0.00267925       0.01294915
C       -1.33785729       6.53259562       3.60327459       0.00122927      -0.00088141       0.00358331
C       -2.52179378       8.63942490       3.83472345      -0.00224772       0.00602340      -0.00511501
C        4.90701718       0.07131145       3.85994157       0.00444015       0.00229557       0.00197712
C        3.73096077       2.20308477       3.79555459       0.00558042       0.00370038       0.00416290
O        1.08382006       6.51254655       3.58602644      -0.00782853      -0.00311065       0.00756089
C       -0.04866663       8.61516921       3.79748325       0.00653120      -0.00692593      -0.00762045
C        7.38496675       0.04172057       3.83331069      -0.00168466       0.00516681      -0.00228603
C        6.16306449       2.19646222       3.83319552       0.00280819       0.00211168       0.00266913
C        4.93924725       4.32010758       3.86926338       0.00196922       0.00119411      -0.00064589
N        3.74480117       6.47056241       4.21230651      -0.00148113       0.00596846       0.00502585
C        2.41195209       8.53684789       3.88475370       0.00226015      -0.00098186      -0.01177002
C        9.83578822       0.04861663       3.78919347      -0.00109875      -0.00152056       0.00907972
C        8.61654305       2.20159222       3.74191137       0.00459346       0.00265605      -0.00160789
C        7.36328984       4.34489847       3.78989296      -0.00511358      -0.00074531       0.00344552
C        6.11399476       6.47243194       3.86716839      -0.00176347      -0.00865692       0.00564995
C        4.88689641       8.59420001       3.90236501      -0.00141061       0.00241101      -0.00155679
C       -0.01475787       1.52090373       3.62915305       0.00639292      -0.00702133      -0.00365628
C       -1.29166022       3.65818766       3.48390560      -0.00346654      -0.00060979      -0.00390740
C       -2.54945939       5.78303222       3.65708944      -0.00054689       0.00255847       0.00581877
C       -3.75915246       7.91991068       3.83187694      -0.00872109       0.00936825      -0.00247910
C       -4.97199656      10.06487373       3.85145011      -0.00015174      -0.00270638       0.00140348
C        2.46961801       1.53445974       3.76571674       0.00550513      -0.00118705      -0.00190496
S        1.40083020       3.81339438       2.96875831      -0.00084079       0.00988507      -0.00009352
C       -0.15543685       5.84606156       3.42737881      -0.00069752      -0.00192714       0.00394065
C       -1.30598593       7.93986531       3.75551011       0.00021948       0.00030096      -0.00103838
C       -2.50615766      10.06778541       3.87603479       0.00181164       0.00645190       0.00213775
C        4.92565897       1.49939246       3.84065283       0.00407790       0.00268010       0.01013057
O        3.79375105       3.57011961       3.98865718      -0.00002298       0.00381510       0.00633140
C        1.15779025       7.91314398       3.77481634       0.00490130      -0.00738529      -0.01216144
C       -0.02529919      10.03797586       3.84817655       0.00249446      -0.00376309      -0.00765411
C        7.38486516       1.48280799       3.81158975       0.00438928       0.00637745      -0.00480714
C        6.14311790       3.62203897       3.83341181      -0.00205358      -0.00070936       0.00281442
C        4.88383205       5.74965181       3.95753584      -0.00504182      -0.00097917      -0.00488271
C        3.67360016       7.82244381       3.99861816       0.00135455       0.00267139      -0.01484802
C        2.43757111       9.98700485       3.83718857      -0.00402431      -0.00029503       0.00005014
C        9.85404549       1.49182035       3.70241781       0.00504422      -0.00058015       0.00237845
C        8.59500530       3.63082431       3.71930289      -0.00675861       0.00164917      -0.00088595
C        7.33946243       5.76574010       3.80598619       0.00205589      -0.00131405       0.00140199
C        6.11960675       7.89964965       3.88664587      -0.01049112      -0.00806433      -0.00306181
C        4.89627629      10.02901371       3.82344969       0.00060052       0.00112100       0.00025563
Pd       2.17757218       5.39294302       5.07864397      -0.00532941      -0.00872504      -0.00355544
O        3.49379712       4.52949483       6.32597473       0.00251876       0.00416753      -0.00658260
O        3.08763633       3.18445168       6.48120155      -0.01144128       0.00138419       0.01008119
H        3.22264394       3.05077251       7.44630071       0.01605989      -0.00994529      -0.00284398
