49
Lattice="12.336457 0.0 0.0 -6.168228499999997 10.683685154694365 0.0 0.0 0.0 15.0" Properties=species:S:1:pos:R:3:forces:R:3 energy=-429.11257712341273 free_energy=-429.11257712341273 stress="-0.004185974226339778 -0.0037310475256298443 -5.679721091442487e-06 -0.0037310475256298443 0.004138268687451685 -3.504301552269303e-06 -5.679721091442487e-06 -3.504301552269303e-06 2.0862481622498362e-07" pbc="T T T"
C       -0.01365715      -0.00856361       3.86618925      -0.00537373       0.00248160      -0.01190957
C       -1.26917066       2.11925522       3.78816105      -0.00394623      -0.01003673       0.00109348
C       -2.46058110       4.26730032       3.68688426       0.00915681       0.00614259       0.00399098
C       -3.66293748       6.41819326       3.70949942      -0.00295894      -0.00070069       0.00094046
C       -4.91150291       8.56781058       3.81559916      -0.00109932       0.00060174       0.00165207
C        2.45400923       0.03036836       3.85786155       0.00158468      -0.00730155      -0.00741216
C        1.16522910       2.12813977       3.91237428       0.00057096       0.00347375       0.00165550
C       -0.04559707       4.26720078       3.79300782      -0.00589179       0.00384259      -0.00459097
C       -1.21709159       6.39570096       3.72577471       0.00180871       0.00176462       0.00628977
C       -2.45201176       8.55376940       3.78171571       0.00697758      -0.01336526       0.00392207
C        4.92098124       0.01327232       3.71979647       0.00311432       0.00819049       0.00757036
C        3.64781769       2.13966999       3.56702987      -0.00332014       0.00805241      -0.00311662
O        1.16148173       6.40998922       3.70652918       0.00022879      -0.00677870      -0.00282951
C       -0.00063467       8.52773390       3.75330113       0.00013120      -0.01086149      -0.00352370
C        7.39249922      -0.03146043       3.71556519       0.00367350      -0.00319560       0.00109413
C        6.15017660       2.14284825       3.56039760      -0.00087392       0.00655497      -0.00864735
C        5.02302970       4.36415063       3.42931035      -0.00732091       0.00079102       0.00647749
N        3.86094558       6.38836196       3.94873567       0.00267273       0.00210753      -0.01740698
C        2.44709784       8.45382552       3.81176707      -0.00337432       0.00086998       0.01170707
C        9.84127105      -0.04333028       3.79655463       0.00409162       0.00038376      -0.00647540
C        8.61612137       2.11942499       3.67828341       0.00003002      -0.00024204       0.00196229
C        7.42852572       4.28147484       3.60026589      -0.00230949      -0.00072638      -0.00327808
C        6.25124727       6.45761254       3.65509611      -0.00334593       0.00674251      -0.00957977
C        4.94096092       8.52622783       3.82311122      -0.00486028       0.00488963       0.00009505
C       -0.03279361       1.42008963       3.87005023       0.00038711       0.00011840      -0.01264018
C       -1.24540794       3.54673966       3.73535972       0.00099676      -0.00720982       0.01560607
C       -2.44244206       5.68533568       3.70338242       0.00418440       0.00730127       0.00283651
C       -3.68089298       7.84572794       3.77398964       0.00120990      -0.00436578       0.00423213
C       -4.93571853       9.99219492       3.87166119      -0.00513773      -0.00081854      -0.00049701
C        2.42255172       1.47038053       3.82256475      -0.00192138      -0.00303282      -0.00406876
O        1.08976001       3.50677596       4.11808082       0.00014411       0.00766089      -0.01067560
C       -0.02132233       5.67250052       3.73446257      -0.00361603       0.00341259       0.00114999
C       -1.23041363       7.82735876       3.74859560       0.00337841      -0.00910174       0.00726227
C       -2.47445908       9.99317045       3.79729850       0.00905132      -0.00915706       0.00266028
C        4.90016194       1.45462989       3.60427555      -0.00077074       0.01627072       0.00303380
S        3.48287802       3.77463856       2.96893384       0.00340082      -0.00988176       0.01316642
C        1.20165649       7.79866034       3.75682255      -0.00107380      -0.00819416       0.00740901
C       -0.00762486       9.96418630       3.73129155       0.00173729      -0.00614720      -0.00520923
C        7.37816178       1.41195280       3.64826423      -0.00044689      -0.00047207       0.00547253
C        6.18649650       3.57373750       3.50771837      -0.00407762       0.00290957      -0.01095739
C        5.02531095       5.76350341       3.61619525       0.00087716       0.00113699      -0.00055686
C        3.72676838       7.75049829       3.86613496      -0.00298182       0.00028034      -0.00060199
C        2.44748887       9.90111104       3.77568539       0.00742773       0.00120216       0.00188440
C        9.84634598       1.39775925       3.75498625      -0.00270402      -0.00485227       0.00260153
C        8.63894152       3.54972482       3.65311306       0.00579946       0.00427814      -0.00322021
C        7.45091668       5.70758403       3.64588496      -0.00726383       0.00098262       0.00076971
C        6.20126624       7.86101634       3.77656675      -0.00491380       0.00682760      -0.00558208
C        4.91774154       9.94698194       3.83607643      -0.00231787       0.00374661       0.00117042
Pd       2.76381186       4.87331426       4.93451401       0.00926514       0.00342456       0.01507365
