51
Lattice="12.336457 0.0 0.0 -6.168228499999997 10.683685154694365 0.0 0.0 0.0 15.0" Properties=species:S:1:pos:R:3:forces:R:3 energy=-449.5775775932239 free_energy=-449.5775775932239 stress="-0.0011780992686522321 0.004114232070040277 2.075470833514645e-05 0.004114232070040277 -0.005927802936652408 1.4847332074502535e-05 2.075470833514645e-05 1.4847332074502535e-05 -5.412978141697295e-06" pbc="T T T"
C       -0.02051311      -0.01185476       3.83754049      -0.00330662      -0.00296901       0.00284040
C       -1.22548344       2.14824246       3.88791463       0.00208168      -0.00001530      -0.00338277
C       -2.45189649       4.27240168       3.88811410       0.00107685       0.00175651      -0.00336447
C       -3.72010152       6.39597940       3.83762660      -0.00432624      -0.00129037       0.00334131
C       -4.96950103       8.52519894       3.81651688       0.00703148       0.00416198      -0.00976620
C        2.43826953      -0.02636130       3.80089177      -0.00479562       0.00142607      -0.00575715
C        1.23270264       2.12351807       3.86248345       0.00255900       0.00406433       0.00123673
C        0.05226965       4.30204899       3.95598623       0.00153837       0.00085596      -0.00269268
C       -1.24423493       6.41365105       3.86522338       0.00472058       0.00014035       0.00026183
C       -2.50329527       8.53265326       3.80223916      -0.00119001      -0.00466341      -0.00589184
C        4.90657364      -0.01770105       3.70775025       0.00170430       0.00106308       0.00894933
C        3.68489520       2.07438202       3.66878297       0.00083493       0.00095170       0.00495713
N        2.53236559       4.12366996       3.93116087      -0.00512925       0.00994726       0.00222455
N        1.13770546       6.53911341       3.93540552       0.00594572      -0.00916127       0.00152775
C       -0.06069409       8.56191171       3.67246141       0.00130640       0.00037931       0.00468149
C        7.37731108       0.00298497       3.69013299       0.00341956       0.00059034      -0.00081322
C        6.15989529       2.11167186       3.68858217       0.00195052       0.00287884      -0.00098846
C        4.92952687       4.19568390       3.52902731      -0.00103963      -0.00806319       0.00169677
P        3.77045061       6.44991795       2.35215010       0.00160014       0.00063188      -0.00598341
C        2.39861031       8.57905479       3.53266063      -0.00747056       0.00325263       0.00185470
C        9.85560062       0.00648591       3.75729535       0.00250393       0.00449026      -0.00356111
C        8.63546282       2.13512464       3.79725002      -0.00827960      -0.00462581      -0.00115111
C        7.40210316       4.25609622       3.75575739       0.00502756       0.00005326      -0.00321682
C        6.15316652       6.39429567       3.67948525       0.00002673       0.00275719      -0.00012190
C        4.91460943       8.53942957       3.68087429       0.00232351      -0.00139697      -0.00040649
C       -0.00663631       1.42076302       3.87417723       0.00285758      -0.00215944       0.00163951
C       -1.19415288       3.58244477       3.92380723       0.00141245       0.00074744      -0.00749803
C       -2.47249902       5.69169910       3.87517786      -0.00048646       0.00348026       0.00159422
C       -3.73503050       7.81678836       3.83227298       0.00017119      -0.00350025      -0.00491707
C       -4.96575538       9.94851038       3.83182334      -0.00303433       0.00206100      -0.00504389
C        2.44702343       1.39383825       3.77925615       0.00076420       0.00262058       0.00053997
C        1.28227078       3.55442272       3.92659935      -0.00170903       0.00570927       0.00216529
C        0.01972096       5.74108288       3.92924941       0.00412111      -0.00436366       0.00096149
C       -1.26898403       7.83013541       3.78228694       0.00257699      -0.00063553      -0.00005944
C       -2.49673974       9.95287283       3.76659170      -0.00407794      -0.00218949      -0.00356737
C        4.92482781       1.39470193       3.67583803       0.00406061       0.00297269       0.00538831
C        3.69388544       3.48018890       3.63235524      -0.00629970       0.00177881       0.00638316
C        1.16122916       7.86678761       3.63679234      -0.00163969      -0.00601829       0.00593547
C       -0.02935230       9.97556779       3.67774500       0.00467131       0.00217357       0.00540885
C        7.39536602       1.41918830       3.73166553      -0.00532240      -0.00280966       0.00230910
C        6.16238515       3.53183411       3.65936631       0.00579725       0.00054682      -0.00105685
C        4.92270713       5.64445437       3.50577663       0.00312009      -0.00695307       0.00417450
C        3.64984059       7.84862341       3.50834861      -0.00454232       0.00597833       0.00348840
C        2.44022890       9.97870157       3.66184345       0.00329061       0.00489582      -0.00093164
C        9.87037785       1.42952890       3.82498921      -0.00307001       0.00325250      -0.00409840
C        8.64185891       3.55738149       3.82440121       0.00122147      -0.00411329      -0.00388457
C        7.38163451       5.68283970       3.77612900      -0.00285012       0.00010956       0.00150892
C        6.12774535       7.80972062       3.73026144       0.00673811       0.00394905      -0.00629891
C        4.91272445       9.95904991       3.77737386      -0.00138598      -0.00239738       0.00083962
Pd       3.06097385       6.03824976       4.41997140      -0.00081698      -0.00114655       0.00573752
O        3.07208228       6.03689477       6.33775787      -0.01568172      -0.01120471       0.00280746
