51
Lattice="12.336457 0.0 0.0 -6.168228499999997 10.683685154694365 0.0 0.0 0.0 15.0" Properties=species:S:1:pos:R:3:initial_magmoms:R:1:forces:R:3 energy=-439.8601567715437 free_energy=-439.8601567715437 stress="-0.0029843721115258496 -0.0036606523253000537 4.891588474705432e-06 -0.0036606523253000537 0.004886218566052181 -1.322344108912501e-05 4.891588474705432e-06 -1.322344108912501e-05 1.0872913017396747e-06" pbc="T T T"
C       -0.02775886       0.05293742       3.80811193       0.00000000       0.00606433       0.00039468       0.00030985
C       -1.28052107       2.18034654       3.78684074       0.00000000      -0.00133435      -0.00420442       0.00495405
C       -2.48303479       4.32489326       3.76076583       0.00000000       0.00027318      -0.00033776      -0.01253824
C       -3.68394449       6.47363019       3.76455856       0.00000000      -0.00248828      -0.00014064      -0.00121999
C       -4.92844190       8.62488081       3.80781445       0.00000000       0.00194056       0.00121815      -0.00166964
C        2.44065912       0.09121947       3.76197868       0.00000000      -0.00503869      -0.00153303      -0.00025981
C        1.15561419       2.18936946       3.73256440       0.00000000       0.00198257      -0.00057452       0.00330597
C       -0.06131838       4.31812304       3.79723335       0.00000000      -0.00170882       0.00307287      -0.00525400
C       -1.22826667       6.44664335       3.78306449       0.00000000      -0.00364920      -0.00361643       0.00109140
C       -2.46498077       8.60702473       3.79067897       0.00000000       0.00171729       0.00161233      -0.00518068
C        4.91016516       0.06425928       3.69128681       0.00000000       0.00055984       0.00337359       0.00546960
C        3.64813192       2.18053599       3.43352187       0.00000000       0.00201659       0.00099972       0.01087078
O        1.15293600       6.45333471       3.87267518       0.00000000      -0.00023489       0.00099304      -0.00378340
C       -0.00990609       8.57746883       3.80016869       0.00000000       0.00337296      -0.00552650      -0.00610209
C        7.37659047       0.02620349       3.74729264       0.00000000       0.00003461       0.00117071       0.00171219
C        6.13269095       2.19962532       3.56812996       0.00000000       0.00520824       0.00228549      -0.00162807
C        5.00241283       4.41599660       3.44524291       0.00000000      -0.00449892       0.00082332      -0.00056076
N        3.83127878       6.45799428       3.98650804       0.00000000      -0.00304565      -0.00556394       0.01181649
C        2.43259075       8.51342039       3.87091210       0.00000000      -0.00162103       0.00277369      -0.00094869
C        9.82689810       0.01823030       3.81246988       0.00000000       0.00223826       0.00036355      -0.00801142
C        8.59846005       2.17777751       3.72903540       0.00000000      -0.00359034       0.00372872       0.00243249
C        7.40469890       4.33769236       3.66734615       0.00000000      -0.00121824      -0.00548752       0.00635583
C        6.22049984       6.50846891       3.70462789       0.00000000       0.00786732       0.00011557      -0.00303973
C        4.92506441       8.58735697       3.82652804       0.00000000      -0.00057053      -0.00039010       0.00507112
C       -0.03866861       1.48421098       3.78315785       0.00000000       0.00310357      -0.00111366       0.00624694
C       -1.26480832       3.60610408       3.77687148       0.00000000       0.00050814      -0.00221742      -0.00228888
C       -2.46206498       5.74185996       3.76929592       0.00000000      -0.00515840      -0.00077591      -0.00760192
C       -3.69740563       7.90216346       3.79364007       0.00000000       0.00073465       0.00180446      -0.00297168
C       -4.95083558      10.05101108       3.81142991       0.00000000      -0.00042576      -0.00230104       0.00627350
C        2.41143295       1.52420109       3.66502392       0.00000000       0.00069307      -0.00255474      -0.00221836
O        1.10096905       3.56594686       3.91560370       0.00000000      -0.00224024       0.00159012      -0.00458876
C       -0.03872643       5.72419633       3.79585656       0.00000000      -0.00052838       0.00232600      -0.00477890
C       -1.24223113       7.87964708       3.79116615       0.00000000       0.00199586      -0.00496745      -0.00413956
C       -2.48727847      10.04583780       3.75670388       0.00000000      -0.00295372       0.00410519       0.00035654
C        4.88937027       1.50392215       3.55293564       0.00000000       0.00525060       0.00399021       0.00402516
S        3.52661370       3.80499304       2.85859565       0.00000000      -0.00396268      -0.00468702      -0.00446864
C        1.19212733       7.85035345       3.84582422       0.00000000       0.00163210      -0.00158833      -0.00106697
C       -0.02000497      10.01606622       3.74820819       0.00000000       0.00107602      -0.00228180       0.00413241
C        7.35982995       1.47053667       3.68288445       0.00000000       0.00109812       0.00158685      -0.00369839
C        6.16075135       3.63300655       3.55033593       0.00000000      -0.00319548       0.00023247       0.00776862
C        4.99614602       5.81748980       3.66296570       0.00000000       0.00272418       0.00250735       0.00077318
C        3.71410374       7.81493373       3.89666561       0.00000000      -0.00618454      -0.00373630       0.00286592
C        2.43242013       9.96176259       3.81462997       0.00000000       0.00117095       0.00260628      -0.00197531
C        9.83237076       1.45798456       3.78147151       0.00000000      -0.00546845       0.00033156       0.00252980
C        8.61685719       3.60770545       3.72152497       0.00000000       0.00023932       0.00095122       0.00352100
C        7.42682900       5.76304580       3.70853780       0.00000000       0.00346721      -0.00669728      -0.00298488
C        6.18252353       7.91861707       3.79184595       0.00000000       0.00309804       0.00164344      -0.00361899
C        4.90382033      10.00977314       3.82382826       0.00000000       0.00600243       0.00186325      -0.00205242
Pd       2.71125380       5.13161017       5.13852111       0.00000000      -0.00650415       0.00184115       0.01816426
O        2.47307176       3.23480957       6.11823434       1.00000000      -0.00484267       0.00103925      -0.00471056
O        3.74459589       3.47169071       5.96973467       1.00000000       0.00439343       0.00895159      -0.00668637
