50
Lattice="12.336457 0.0 0.0 -6.168228499999997 10.683685154694365 0.0 0.0 0.0 15.0" Properties=species:S:1:pos:R:3:forces:R:3 energy=-434.47284574454403 free_energy=-434.47284574454403 stress="0.0005123415363767751 0.00350902555962352 8.17250895717206e-06 0.00350902555962352 0.005433618697208124 2.0726929080171972e-05 8.17250895717206e-06 2.0726929080171972e-05 2.7364289075574753e-07" pbc="T T T"
C       -0.02095374       0.00140940       3.76348046       0.00376564       0.00237603       0.00120308
C       -1.23829220       2.14107895       3.89230948       0.00418272       0.00115538      -0.00509791
C       -2.46241859       4.27900516       3.83499215      -0.00028520       0.00039553      -0.00418112
C       -3.72085989       6.40896816       3.66674891       0.00169291      -0.00072741       0.00041158
C       -4.98348685       8.54066898       3.62548456      -0.00282701      -0.00133778       0.01013589
C        2.43309688       0.06158465       3.71484891       0.00672367       0.00332845       0.00614339
C        1.19154088       2.17454381       3.81500909      -0.00750873      -0.00667256       0.01005155
C       -0.01902499       4.26890105       3.98250047       0.00111061       0.00103596       0.00033552
C       -1.26191295       6.41277633       3.86480692      -0.00055544      -0.00288073       0.00024228
C       -2.51575942       8.56051143       3.75184675       0.00021425      -0.01016796       0.00272720
C        4.89413353       0.01339429       3.78742856       0.00462215       0.00029647       0.00169393
C        3.72169929       2.16399373       3.64577778      -0.00216147       0.00553588      -0.00391793
N        1.10078833       6.47102558       4.24085880      -0.01241618       0.00719536      -0.00490108
C       -0.05570151       8.54833961       3.89825557       0.00026996      -0.00018205      -0.00277267
C        7.37787677      -0.01373535       3.89579418      -0.00495775       0.00255745       0.00009062
C        6.17466718       2.11099179       3.70394033       0.00424963       0.00158913      -0.00805410
C        5.00976331       4.17546411       3.32940432       0.00123235      -0.00226295       0.00653384
S        3.42391433       6.19681974       3.14827399      -0.00403270       0.00353350       0.00999297
C        2.42172681       8.52124717       3.90273247       0.00075182       0.00243172      -0.00285549
C        9.85252196      -0.01693009       3.87441298      -0.00512681      -0.00067887      -0.00566059
C        8.63504072       2.12750145       3.83913837       0.00505140      -0.00396489       0.00144078
C        7.42134310       4.25847514       3.60993950       0.00167715       0.00350831       0.00329589
C        6.15429988       6.37461113       3.42164783      -0.00046392      -0.00377837      -0.00522827
C        4.88783887       8.51136829       3.63990217       0.00535093       0.00974025       0.01037970
C       -0.00272296       1.44494446       3.83590351      -0.00367684      -0.00441678      -0.00514328
C       -1.22443578       3.56963687       3.92197874       0.00267516       0.00342434      -0.00109483
C       -2.47972233       5.69789825       3.78541548       0.00047943      -0.00062201      -0.00356281
C       -3.74148025       7.83707765       3.67022144      -0.00400989      -0.00440356       0.00819537
C       -4.96157297       9.98890479       3.69716541       0.00482170       0.00240084      -0.00457733
C        2.44824667       1.51731549       3.72115308      -0.00197496       0.00649286       0.00700357
O        1.16177926       3.55903238       3.92657387      -0.00938186      -0.01101993      -0.00290673
C       -0.01210523       5.70759839       4.03031889      -0.00192402       0.00297753      -0.01045161
C       -1.28530048       7.83871447       3.83848354       0.00273280      -0.00581505      -0.00071730
C       -2.51419693      10.00230262       3.74673447       0.00618827      -0.00597721      -0.00580342
C        4.91133358       1.44122214       3.72036518       0.00057141       0.00480750       0.00079535
O        3.78482644       3.53431384       3.46568398      -0.00344153       0.00597936      -0.00633109
C        1.16227267       7.80878703       3.99916573      -0.00105095       0.00338608       0.00055034
C       -0.03769497       9.97481596       3.86203542       0.00085710      -0.00100808      -0.00317932
C        7.39370847       1.40999893       3.82646070       0.00303716       0.00003936      -0.00685449
C        6.20621407       3.51075637       3.52953774       0.00345484       0.00236302       0.00261229
C        4.99801474       5.57640526       3.27597755      -0.00296992      -0.00346712       0.00302395
C        3.62908955       7.84207198       3.66422082       0.00704393       0.00537881       0.01133794
C        2.43998451       9.95463219       3.91868750      -0.00834862       0.00158287      -0.00781621
C        9.87043950       1.42051733       3.88519122       0.00557921      -0.00296398      -0.00238775
C        8.64690782       3.55462220       3.76950318      -0.00028749      -0.00204810       0.00113181
C        7.39972118       5.67900690       3.55112870       0.00299726       0.00190063      -0.00397872
C        6.12255106       7.80543783       3.54064712      -0.00114429      -0.00051184      -0.00451696
C        4.90870575       9.95254611       3.77344609       0.00159775       0.00957949       0.00031163
Pd       2.75551206       5.74428440       5.38930441       0.00084078      -0.00279778       0.01390336
O        4.52699560       5.87541473       5.82171013      -0.00522637      -0.01728709      -0.00155286
