52
Lattice="12.336457 0.0 0.0 -6.168228499999997 10.683685154694365 0.0 0.0 0.0 15.0" Properties=species:S:1:pos:R:3:forces:R:3 energy=-443.91969656019495 free_energy=-443.91969656019495 stress="-0.003895654647685822 -0.0034489106219021026 -4.835305245545338e-06 -0.0034489106219021026 0.004468311041641308 -1.0107110284186079e-05 -4.835305245545338e-06 -1.0107110284186079e-05 3.242149576025444e-05" pbc="T T T"
C       -0.00978888      -0.12741261       3.91839270      -0.00883317       0.00181827      -0.01103307
C       -1.26498124       2.00058604       3.88587739       0.00561747       0.00865177       0.00814898
C       -2.46099138       4.14984491       3.78952805       0.00800667       0.00468470       0.01600102
C       -3.66438824       6.29938695       3.77743550       0.01776777       0.00704593       0.01017855
C       -4.91010057       8.44911374       3.85240385      -0.00147930      -0.01223994       0.01681195
C        2.45686538      -0.09156159       3.96161186      -0.00288083       0.00126932       0.02077603
C        1.16762692       2.01094287       4.02168100       0.00244246       0.00274651       0.01376109
C       -0.05263533       4.14790439       3.94319651       0.00273546       0.01010745      -0.00978916
C       -1.21640387       6.27607907       3.87205152      -0.00585712      -0.00405223       0.00837716
C       -2.44897857       8.43181959       3.90530376       0.00715337       0.00502388       0.01606063
C        4.92624104      -0.10924777       3.85928064       0.01164465      -0.00256830      -0.01907780
C        3.65531274       2.00991341       3.68396247      -0.01476175       0.01523157       0.00180941
O        1.16323798       6.28253362       3.84523939      -0.02625097       0.00868973      -0.01002751
C        0.00629256       8.40379125       3.88455561       0.00227745      -0.01962346      -0.00073649
C        7.39587129      -0.15120205       3.81329838       0.00053324      -0.00546854      -0.00130016
C        6.15538068       2.02232988       3.65121192      -0.01972898      -0.01519426       0.00928377
C        5.03250819       4.24299153       3.44039530       0.01758197       0.00184519      -0.00256948
N        3.85696117       6.28423892       3.83485832      -0.00892429      -0.00607710       0.01437404
C        2.45007820       8.33484150       3.82570430       0.01071294       0.00348582       0.01423787
C        9.84549714      -0.16124853       3.84155729      -0.00142353      -0.00782671       0.01281968
C        8.61970715       2.00057382       3.76210493      -0.00184442       0.00188917       0.00023127
C        7.43190030       4.16234298       3.64562398      -0.00058592       0.01627193       0.00386209
C        6.25311480       6.34141783       3.63061169      -0.00398465       0.00293829       0.01806620
C        4.94262948       8.41011636       3.79089985       0.00262670      -0.00297877       0.00396130
C       -0.02714650       1.30236436       3.95595958       0.00408454       0.00483497      -0.00999438
C       -1.24469216       3.42982616       3.86420031       0.00986307       0.01115511      -0.01451312
C       -2.44349317       5.56816087       3.81099110       0.00736679      -0.00358188       0.01793439
C       -3.67949089       7.72592978       3.85113719       0.01097072       0.00379775      -0.00639246
C       -4.93368763       9.87143760       3.93469397      -0.00855983      -0.00936898      -0.00498815
C        2.42574195       1.34650942       3.94326536      -0.00547925       0.00502372      -0.00901871
O        1.08577327       3.38589596       4.23363184      -0.00795067       0.00374655      -0.01907066
C       -0.02325222       5.55244383       3.88647310      -0.01274270       0.00898211      -0.00571802
C       -1.22582701       7.70601503       3.90004373      -0.00271968      -0.01056392      -0.02927044
C       -2.47006700       9.87039526       3.92478585       0.00944281       0.00877403      -0.00643289
C        4.90745721       1.33142154       3.72636407      -0.02060467      -0.00169069      -0.00915982
S        3.48148495       3.63213668       3.06233926       0.00428137      -0.01875227       0.01002794
C        1.20462862       7.67417450       3.83298686       0.00370915      -0.00003400       0.01213965
C       -0.00367433       9.84186484       3.85936946       0.00996266      -0.01874203      -0.01170267
C        7.38189345       1.29303757       3.74363574      -0.00762832      -0.00796115      -0.02858903
C        6.18922804       3.45409576       3.55814999       0.00445513      -0.00941358       0.00002176
C        5.02456842       5.65396830       3.56822256      -0.00296945       0.00196881       0.00036911
C        3.73027786       7.64059461       3.79893924       0.00439549      -0.00044152       0.00540879
C        2.45139263       9.78051457       3.82964783       0.00179505      -0.00030758      -0.01892170
C        9.85042540       1.27989955       3.83244119       0.00390129      -0.00211097       0.00225657
C        8.64098600       3.43127766       3.72907956       0.00008846       0.01258495       0.00801020
C        7.45197725       5.58895044       3.67225811       0.00889808       0.02163255      -0.01140575
C        6.20474752       7.74409189       3.75973348      -0.00528917      -0.00505561      -0.00312616
C        4.92278798       9.83039027       3.85471814      -0.00514454      -0.00345192       0.00596250
Pd       2.78456950       4.80194939       4.97660136      -0.00417017      -0.00672257      -0.01275150
O        2.26086724       6.22006589       6.26476032      -0.00668410       0.02128458       0.00076547
O        3.39738594       7.02234175       6.62964335       0.01626157      -0.04517988       0.04815785
H        3.25621878       7.10023869       7.60017459      -0.00207883       0.02392322      -0.04422613
