51
Lattice="12.336457 0.0 0.0 -6.168228499999997 10.683685154694365 0.0 0.0 0.0 15.0" Properties=species:S:1:pos:R:3:forces:R:3 energy=-446.0711307755958 free_energy=-446.0711307755958 stress="-0.0008640638351702817 -1.2614162182780604e-05 -1.7859950261329243e-06 -1.2614162182780604e-05 -0.00313734962710849 5.672713052360645e-06 -1.7859950261329243e-06 5.672713052360645e-06 -1.7473908201920117e-06" pbc="T T T"
C        0.00549584      -0.02511496       3.91088695       0.00270924       0.00491606       0.00295301
C       -1.22714449       2.11484221       3.97997442       0.00173730       0.00516699      -0.00063012
C       -2.46468713       4.24922442       3.90514206       0.00132327       0.00713150      -0.00862444
C       -3.70202415       6.38037984       3.80587100       0.00046923      -0.01030955       0.00313941
C       -4.93847505       8.51516101       3.79070061       0.00295551      -0.00730949      -0.00602038
C        2.46632899      -0.03771684       3.93571499       0.00051204       0.00118459      -0.00255880
C        1.24417412       2.10449152       3.93631919       0.00163162      -0.00052465      -0.00405611
C        0.00819223       4.23363667       3.73461478       0.00531797       0.00426509       0.00462338
C       -1.22527979       6.37263780       3.62514693      -0.00592692       0.00564457       0.00369651
C       -2.46532076       8.51515572       3.79090557      -0.00264812      -0.00776156      -0.00577057
C        4.92723596      -0.02515330       3.91116425      -0.00231644       0.00456815       0.00297051
C        3.68852147       2.10446126       3.93631322      -0.00226481      -0.00012260      -0.00426251
N        2.46629484       4.18949674       3.75468168       0.00007463       0.00064125      -0.00271301
P        1.36284934       6.36470328       2.52521124      -0.00307005       0.00182808       0.00087758
C       -0.03304423       8.55964560       3.58243377       0.00288723      -0.00355398       0.00302730
C        7.39643538      -0.00707314       3.89190619      -0.00441332      -0.00410091      -0.00113769
C        6.15976269       2.11490440       3.97987064      -0.00161726       0.00476482      -0.00033904
C        4.92420561       4.23376310       3.73445789      -0.00457272       0.00341659       0.00461107
P        3.57070360       6.36501981       2.52202114       0.00115676       0.00086675       0.00131847
C        2.46656333       8.60713471       3.46296394      -0.00039055      -0.00411455       0.01440792
C        9.87284692      -0.00701080       3.89153637       0.00347499      -0.00458693      -0.00119043
C        8.63453087       2.11812051       4.00694853       0.00021642       0.00216196       0.01031057
C        7.39722195       4.24922626       3.90509541      -0.00278733       0.00791966      -0.00900676
C        6.15770912       6.37272629       3.62493733       0.00628360       0.00602724       0.00365292
C        4.96592784       8.55988721       3.58068059      -0.00305008      -0.00287516       0.00257689
C        0.00654256       1.39957984       3.96175466       0.00141514       0.00710426       0.00149815
C       -1.22367945       3.53421506       3.90918372       0.00167121       0.00637534      -0.00058489
C       -2.46532797       5.66914069       3.79858161      -0.00049376       0.00220866      -0.00207112
C       -3.70193127       7.80537260       3.79817184       0.00021350      -0.01702281      -0.00698966
C       -4.93721573       9.93699186       3.88526620       0.00097578      -0.00242330      -0.00026638
C        2.46635325       1.38758523       3.95825049      -0.00025600       0.00178886       0.00074156
C        1.27471081       3.52567490       3.80324520       0.00204405      -0.00119760      -0.00034327
C       -0.03988221       5.61594565       3.46368928      -0.00472642       0.00456511       0.00478951
C       -1.22771909       7.81202795       3.64628542       0.00164534       0.00100412      -0.00030733
C       -2.46655799       9.93699433       3.88546731      -0.00015441      -0.00288355      -0.00049792
C        4.92615697       1.39956823       3.96173189      -0.00179337       0.00704139       0.00170996
C        3.65790625       3.52564905       3.80318157      -0.00182262      -0.00080701      -0.00044480
C        1.25008368       7.90794443       3.29844258       0.00236841      -0.00791223      -0.00581855
C       -0.00755926       9.95124598       3.81259169      -0.00202431      -0.00089992      -0.00365274
C        7.39609390       1.41001597       3.99131213      -0.00183213      -0.00258039       0.00295687
C        6.15613708       3.53434245       3.90904679      -0.00174639       0.00571993      -0.00058916
C        4.97193547       5.61631929       3.46370445       0.00583187       0.00360257       0.00551729
C        3.68307329       7.90884757       3.29462433      -0.00229981      -0.00793497      -0.00491746
C        2.46646769      10.00011336       3.79018503      -0.00082504      -0.00287557       0.00365383
C        9.87299784       1.41002979       3.99123203       0.00230865      -0.00299432       0.00319359
C        8.63452004       3.54038192       3.96844299      -0.00107691       0.00808028      -0.00353213
C        7.39770644       5.66914109       3.79849444       0.00085261       0.00313044      -0.00176298
C        6.16041539       7.81206061       3.64562732      -0.00183907       0.00172244      -0.00029762
C        4.94036307       9.95131976       3.81178282       0.00192436      -0.00043395      -0.00336488
Pd       2.46870179       6.76464108       4.33238288       0.00158128      -0.01112321      -0.00743314
O        2.47214343       6.38084631       6.08783740       0.00036579      -0.00649849       0.00695757
