51
Lattice="12.336457 0.0 0.0 -6.168228499999997 10.683685154694365 0.0 0.0 0.0 15.0" Properties=species:S:1:pos:R:3:initial_magmoms:R:1:forces:R:3 energy=-434.5246534667185 free_energy=-434.5246534667185 stress="-0.002134839734921467 0.0010152215952493155 -2.8172032299984987e-05 0.0010152215952493155 -0.0036657390698761174 -1.4664785304641801e-05 -2.8172032299984987e-05 -1.4664785304641801e-05 -1.3942263238987897e-05" pbc="T T T"
C       -0.00697768       0.04962062       3.69824543       0.00000000      -0.00651243      -0.00450825       0.00203836
C       -1.21935998       2.20410932       3.68930039       0.00000000      -0.00552231      -0.00319833      -0.00977031
C       -2.43030991       4.33448305       3.71160846       0.00000000       0.00298188       0.01214094       0.00347325
C       -3.67608974       6.46729788       3.64284762       0.00000000       0.00665592       0.00219418       0.00464660
C       -4.94161122       8.59292339       3.59536081       0.00000000       0.00197792       0.00244816       0.00290033
C        2.46185811       0.01989348       3.88885766       0.00000000       0.00826684      -0.01051995       0.00974533
C        1.22634184       2.17658644       3.96494825       0.00000000       0.00427049       0.01334749      -0.00003005
C        0.05293713       4.38307412       3.87032089       0.00000000      -0.01336938      -0.00330394       0.00868763
C       -1.21245369       6.48283811       3.82288644       0.00000000      -0.00080464       0.00559688      -0.00519041
C       -2.45908393       8.59706657       3.79322574       0.00000000       0.00317081      -0.00875550      -0.00158101
C        4.93884111       0.05590993       3.91938813       0.00000000      -0.00374628       0.00953355      -0.01191040
C        3.68348824       2.13323079       4.09237075       0.00000000      -0.00250415      -0.00002396      -0.01053507
O        1.16014258       6.54217011       3.85873955       0.00000000      -0.00363813      -0.00486597       0.00344085
C        0.00266724       8.61085001       3.79396438       0.00000000      -0.00556084      -0.00354436      -0.00816610
C        7.40417486       0.06225391       3.80216746       0.00000000       0.00528851      -0.00889664       0.00267941
C        6.17602112       2.20487955       3.86678212       0.00000000      -0.00651791       0.00241097      -0.00027559
C        4.99209356       4.37746006       3.54683540       0.00000000      -0.00931163      -0.00317635       0.01121649
S        3.64624687       6.43798439       2.39725717       0.00000000       0.00767353       0.01128113       0.00878058
C        2.44057114       8.59321516       3.55586262       0.00000000       0.00658784      -0.00545621       0.00183045
C        9.86387592       0.05508212       3.65980064       0.00000000       0.00635380       0.00187932      -0.00694721
C        8.64432350       2.19791355       3.73350461       0.00000000      -0.00173311      -0.00326258      -0.00148896
C        7.43299610       4.33156433       3.63144875       0.00000000       0.00273352      -0.00504683      -0.00267511
C        6.21732024       6.47626315       3.30260547       0.00000000      -0.00600280       0.00723801       0.00328223
C        4.92440813       8.60290511       3.39818345       0.00000000      -0.00588549       0.00189665      -0.00032682
C       -0.02283226       1.46668742       3.75391033       0.00000000      -0.00261249       0.00073275      -0.00492259
C       -1.20256627       3.62985707       3.71275085       0.00000000      -0.00981208       0.00249209      -0.00876459
C       -2.44690315       5.75551062       3.74372828       0.00000000       0.00805695       0.01020214       0.00643803
C       -3.69657148       7.88755895       3.67401028       0.00000000       0.00332368      -0.00006143       0.00277533
C       -4.94414535      10.00639587       3.73255497       0.00000000      -0.00038518      -0.00220869       0.00572548
C        2.48050921       1.41615777       4.01336567       0.00000000       0.00305590      -0.00659991       0.00929361
P        1.48150939       3.65197836       2.99340956       0.00000000       0.00393299       0.00568298      -0.00092026
C       -0.00229358       5.83001320       3.85063042       0.00000000      -0.00701680      -0.00214085      -0.01260841
C       -1.23060236       7.90303057       3.81395983       0.00000000      -0.00257032      -0.00399435       0.00452592
C       -2.45958642      10.01581124       3.87463417       0.00000000       0.00789343      -0.01054863       0.00850971
C        4.94155031       1.48540623       3.97958496       0.00000000      -0.00433082       0.00896244      -0.00569580
P        3.46136239       3.86425677       4.28739094       0.00000000       0.00303570      -0.00899711      -0.00280707
C        1.19507556       7.91297277       3.69158933       0.00000000      -0.00056286      -0.00173863       0.00155746
C        0.00701294      10.04022302       3.84123544       0.00000000      -0.00544402       0.00045025      -0.00278558
C        7.40454052       1.49322122       3.81015435       0.00000000      -0.00379927      -0.00464326       0.00466216
C        6.19138255       3.62576375       3.70179376       0.00000000      -0.00746536      -0.00066736       0.00208068
C        5.04570641       5.72455270       3.11941854       0.00000000      -0.00114930      -0.00447589      -0.00124683
C        3.67711115       7.95366318       3.22112832       0.00000000       0.00119462      -0.00174033      -0.00868961
C        2.45698482      10.02017022       3.68863757       0.00000000       0.01464041      -0.00497018       0.00583849
C        9.87116524       1.48469069       3.69271906       0.00000000      -0.00212505      -0.00223346      -0.00307502
C        8.65932784       3.61967035       3.69824679       0.00000000       0.00781116      -0.00019472       0.00162665
C        7.43861120       5.75402295       3.52234012       0.00000000       0.00322221       0.00050759      -0.00144294
C        6.17215992       7.89222336       3.38411197       0.00000000      -0.00539870       0.01052402      -0.00230118
C        4.92522797      10.02521158       3.59607917       0.00000000      -0.00436073      -0.00512783      -0.00270627
Pd       0.93684403       3.53591574       5.52906874       0.00000000       0.00184585       0.00220927      -0.01755262
O        1.56577359       2.87170298       8.33076934       1.00000000       0.01137899       0.00478645       0.00597116
O        1.73450858       2.33094664       7.18439721       1.00000000       0.00278915       0.00838427       0.01268964
