50
Lattice="12.336457 0.0 0.0 -6.168228499999997 10.683685154694365 0.0 0.0 0.0 15.0" Properties=species:S:1:pos:R:3:forces:R:3 energy=-431.74133511747607 free_energy=-431.74133511747607 stress="-0.002881909133007321 0.0064570028791424375 -7.855857611888567e-06 0.0064570028791424375 0.0005044856474902247 4.9262265931789185e-06 -7.855857611888567e-06 4.9262265931789185e-06 -1.73619366801434e-05" pbc="T T T"
C       -0.01745958      -0.00406772       3.78890650      -0.00458034       0.00409263       0.00421744
C       -1.21689406       2.15892867       3.98862992      -0.00296266      -0.00456370       0.00124600
C       -2.49948019       4.28487268       3.96655713      -0.00508166       0.00360241      -0.00059580
C       -3.75932444       6.40985539       3.74466683      -0.00704295       0.00377884       0.01296303
C       -4.97988138       8.54238006       3.64007340       0.00649909       0.00095755       0.00068565
C        2.45110549       0.00856783       3.60215010      -0.00066865      -0.00823246      -0.00486901
C        1.27549096       2.10831258       3.84654921      -0.00338939      -0.00515247      -0.00683025
C       -0.10311551       4.40814128       4.28839608       0.00111991      -0.01580805      -0.00151412
C       -1.34000755       6.46374893       4.05517757       0.00193283       0.00658579       0.00737763
C       -2.52351159       8.55585845       3.74389555      -0.00018062       0.00567079      -0.00262319
C        4.91437682      -0.01397531       3.65312862       0.00239559      -0.00432935      -0.00158420
C        3.75678815       2.09382863       3.39460681       0.00123489       0.00415399       0.01664554
O        1.05401539       6.50481837       4.29128873      -0.00104254       0.00418567       0.00481253
C       -0.06701774       8.55454503       3.90382804      -0.00687687       0.00453437       0.00383405
C        7.38923439      -0.02789197       3.82221224       0.00063092      -0.00558621       0.00136957
C        6.19318395       2.09250647       3.55914280       0.00289902      -0.00481600       0.00321327
C        5.00386677       4.15553211       3.21359431       0.00287025       0.00619206      -0.00797175
P        3.60647899       6.48658389       2.49593193      -0.00804371       0.00898563      -0.00666748
C        2.38783303       8.50655687       3.90892511       0.00335578      -0.00307805      -0.00521793
C        9.85626418      -0.01978411       3.90009642      -0.00259518       0.00781488      -0.00492118
C        8.64367587       2.12278782       3.83574239      -0.00171739      -0.00058212       0.00275841
C        7.39880377       4.25189806       3.63314599      -0.00213616      -0.00414976       0.01313444
C        6.14155847       6.38525153       3.47067052       0.00203268      -0.00408591      -0.00712851
C        4.90184320       8.51195462       3.71781437       0.00577824       0.00310080      -0.00483688
C        0.01636905       1.44162325       3.89491592      -0.00422593       0.00535762      -0.00963160
C       -1.25118362       3.59459409       4.09244937      -0.00090479      -0.01078525      -0.00678185
C       -2.54066421       5.70667163       3.93229135      -0.00318765       0.00666979       0.00696047
C       -3.75822237       7.83507377       3.70043713       0.00440317       0.00334956       0.00151477
C       -4.96385806       9.97206517       3.67270831      -0.00445255       0.00081098      -0.00380281
C        2.49726515       1.43263384       3.57009381      -0.00301939      -0.00666370      -0.00472941
S        1.48096616       3.78653707       4.14350925       0.00370576       0.00184484      -0.00383485
C       -0.15253857       5.80930522       4.25562809       0.00443920      -0.00828839       0.01263596
C       -1.31306391       7.86865564       3.90433620      -0.00290162       0.00818570      -0.00013636
C       -2.49750980       9.97723990       3.64136759       0.00360622      -0.00130024       0.00484571
C        4.94603658       1.40275560       3.52058983       0.00443162      -0.00403196       0.00376500
O        3.84266306       3.43710600       3.08569345       0.00043284       0.00203387      -0.01038792
C        1.13508452       7.85803605       3.99595942       0.00037988       0.00526225      -0.00137378
C       -0.02324503       9.96705571       3.78788640      -0.00132138      -0.00251176      -0.00281113
C        7.40779079       1.40008839       3.74073356       0.00277574      -0.00507019       0.00514400
C        6.18988990       3.50644690       3.45454946      -0.00076299      -0.00417270       0.00408323
C        4.91735823       5.60557321       3.31596634       0.00154894       0.00312367      -0.00203590
C        3.64948548       7.74404795       3.77357483      -0.00165470      -0.00910927      -0.00582565
C        2.44104167       9.92763784       3.90040617       0.00393506       0.00073246      -0.00503164
C        9.88373177       1.42032777       3.92439503      -0.00475872       0.00194520      -0.00105340
C        8.62376623       3.54992001       3.81401553      -0.00242104      -0.00003052       0.00305500
C        7.35848607       5.67843090       3.60894955      -0.00105671      -0.00472652       0.00134787
C        6.11551252       7.80553407       3.58977822       0.00802990       0.00062059      -0.00410434
C        4.91219115       9.94175647       3.82991257      -0.00174043       0.00805209      -0.00941358
Pd       3.51755648       5.91168921       4.72582875       0.00514106       0.00281019      -0.00048831
O        2.33565265       4.05110167       5.37892905       0.00514742       0.00262036       0.01059326
