51
Lattice="12.336457 0.0 0.0 -6.168228499999997 10.683685154694365 0.0 0.0 0.0 15.0" Properties=species:S:1:pos:R:3:initial_magmoms:R:1:forces:R:3 energy=-434.8056610228021 free_energy=-434.8056610228021 stress="-0.0005460309330464758 -0.001995170479322927 -3.6227180856622645e-06 -0.001995170479322927 0.00138573571246033 2.238812228656586e-05 -3.6227180856622645e-06 2.238812228656586e-05 -2.089758880333322e-05" pbc="T T T"
C        0.08600644       0.00860179       3.78985276       0.00000000      -0.00644503      -0.00410367       0.00334535
C       -1.17331387       2.12047657       3.56659271       0.00000000      -0.00183960      -0.00143365       0.01356019
C       -2.42991545       4.25272049       3.53882809       0.00000000      -0.00346457      -0.00151954      -0.00611600
C       -3.61856606       6.40009023       3.71684539       0.00000000       0.00530369       0.00694107      -0.00404046
C       -4.83845758       8.54297594       3.81830569       0.00000000      -0.00225793       0.00414606       0.00390342
C        2.56185176      -0.01736569       3.75325296       0.00000000       0.00215485      -0.00384162       0.00552626
C        1.31823734       2.11546592       3.47616596       0.00000000      -0.00287879      -0.00137347       0.00543352
C       -0.10085348       4.22621062       2.83345054       0.00000000       0.00590677       0.00769945      -0.00087875
C       -1.19880223       6.40214283       3.25316253       0.00000000      -0.00070298       0.00602906      -0.00617376
C       -2.36496270       8.52927786       3.64568837       0.00000000      -0.00506668      -0.00436605       0.00836940
C        5.03203468      -0.02849953       3.88567214       0.00000000       0.00377258      -0.00324723      -0.00304681
C        3.75733355       2.05675299       4.19005653       0.00000000       0.00573126       0.00274039       0.00437884
P        1.53532059       6.32794577       2.60167055       0.00000000      -0.00804814      -0.00180361       0.00069341
C        0.11094901       8.51501907       3.58327120       0.00000000      -0.00527058       0.00150140      -0.00495071
C        7.48972697      -0.02531744       3.93819422       0.00000000       0.00609593      -0.00263472       0.00206349
C        6.24251346       2.13591819       4.14090390       0.00000000       0.00496226      -0.00268336       0.00144548
C        5.07286176       4.36510222       4.43996494       0.00000000      -0.00866208      -0.00114242       0.00011426
O        3.89500860       6.48442356       4.33860781       0.00000000      -0.00166178      -0.00632525      -0.00714611
C        2.58580638       8.50349876       3.86668064       0.00000000       0.00862944       0.00351125       0.00523708
C        9.95330176      -0.01213584       3.90728169       0.00000000       0.00151468      -0.00086781       0.00902661
C        8.70444436       2.12542263       3.88240273       0.00000000       0.00286633      -0.00578176       0.00135487
C        7.47847672       4.27414176       3.97827642       0.00000000      -0.00651441       0.00183812       0.00519393
C        6.28322663       6.43426306       4.05999821       0.00000000      -0.00060213      -0.00203998      -0.00182626
C        5.03882181       8.54919920       3.98312061       0.00000000       0.00659295      -0.00065833      -0.00647752
C        0.06579357       1.42668873       3.62989288       0.00000000      -0.00449050      -0.00781600      -0.00196625
C       -1.22744205       3.51484618       3.31354032       0.00000000       0.00417331       0.00123602       0.00708076
C       -2.41457813       5.68378010       3.50228580       0.00000000       0.00159232       0.00306697      -0.01388631
C       -3.60435358       7.82649805       3.71898931       0.00000000      -0.00480315       0.00451500      -0.00115863
C       -4.84340342       9.96825383       3.77055348       0.00000000      -0.00327820       0.00117349      -0.00202655
C        2.55843431       1.40575352       3.79402140       0.00000000       0.00359802      -0.00032826       0.00160182
S        1.27908787       3.35013476       2.17144956       0.00000000      -0.00518423       0.00781520      -0.01004782
C       -0.07270505       5.66456292       2.80284591       0.00000000       0.00253151       0.00959005       0.00816290
C       -1.13968559       7.81515276       3.47014857       0.00000000      -0.00744445      -0.00094713       0.00089993
C       -2.36652954       9.95071698       3.76784805       0.00000000       0.00240299      -0.00594660      -0.00050968
C        5.01895607       1.39563401       4.09949304       0.00000000       0.00492635       0.00000696      -0.00382026
P        3.66180521       3.54779896       5.13977033       0.00000000       0.00254217       0.00106195       0.01048684
C        1.36332608       7.83591991       3.50773726       0.00000000       0.00228898       0.01545625      -0.01169459
C        0.09613711       9.94039278       3.82662449       0.00000000       0.00322392      -0.00029055      -0.00513219
C        7.47404469       1.41305502       4.00802431       0.00000000       0.00550479      -0.00553484      -0.00787473
C        6.24660049       3.58116869       4.19993454       0.00000000      -0.00743833      -0.00138787       0.00436941
C        5.08334585       5.76853449       4.30364031       0.00000000      -0.00046811      -0.00283430       0.00816190
C        3.84282725       7.83279630       4.02830726       0.00000000       0.00987511      -0.00396745      -0.00663579
C        2.56300451       9.93749102       3.93950460       0.00000000       0.00631845       0.00193143       0.00369536
C        9.94214106       1.41555652       3.79789765       0.00000000       0.00005516      -0.00556979       0.00018820
C        8.69592009       3.54972083       3.80822664       0.00000000      -0.00814621      -0.00398770      -0.00845408
C        7.49516563       5.69328007       3.92458467       0.00000000       0.00298688       0.00450938      -0.00875317
C        6.27871396       7.84651361       3.95771508       0.00000000       0.00233242      -0.00128248      -0.00370855
C        5.02146918       9.97618085       3.89420540       0.00000000      -0.00313839      -0.00114360       0.00383491
Pd       1.64279395       4.30930048       4.43034331       0.00000000      -0.00547184       0.00194813       0.00135842
O       -0.39550559       5.38010085       5.91330238       1.00000000      -0.00350013      -0.00075616       0.00290109
O        0.10568080       4.20275058       5.85342292       1.00000000      -0.00110486      -0.00110242       0.00393736
