51
Lattice="12.336457 0.0 0.0 -6.168228499999997 10.683685154694365 0.0 0.0 0.0 15.0" Properties=species:S:1:pos:R:3:initial_magmoms:R:1:forces:R:3 energy=-435.0527653535585 free_energy=-435.0527653535585 stress="-0.0014095312339882007 0.0019524114838792295 4.4955086382706946e-06 0.0019524114838792295 0.0010781074558093814 -2.4964719707634045e-05 4.4955086382706946e-06 -2.4964719707634045e-05 -6.323567904851083e-05" pbc="T T T"
C        0.01441270      -0.09603766       3.70130764       0.00000000      -0.01515882       0.00655287      -0.00446302
C       -1.21802234       2.02785580       3.78005111       0.00000000       0.00571234       0.00341480       0.00213864
C       -2.44967783       4.17168069       3.91353837       0.00000000       0.00060533      -0.00055423       0.01303164
C       -3.69958238       6.31074640       3.90378452       0.00000000       0.00667811       0.00506296      -0.00428389
C       -4.95097118       8.44096332       3.77687264       0.00000000      -0.00457722       0.00549706      -0.00788931
C        2.46485626      -0.04792730       3.79522968       0.00000000       0.00355354      -0.00271285       0.00167657
C        1.21923281       2.06078977       3.74358824       0.00000000      -0.01063738       0.00433491      -0.02260365
C       -0.01226457       4.11409303       3.72751824       0.00000000       0.00039757      -0.00105140      -0.01137583
C       -1.24241027       6.31431480       3.77968891       0.00000000      -0.00775303       0.00922852       0.00871157
C       -2.48210569       8.45494280       3.80326448       0.00000000       0.00502317      -0.00531859      -0.00019936
C        4.92214485      -0.09363168       3.83387722       0.00000000       0.01338003       0.00415516      -0.01429809
C        3.74235470       2.05184714       3.86660359       0.00000000      -0.01567066      -0.00732078      -0.00071291
S        0.98047208       6.32173950       2.34898523       0.00000000       0.02100348       0.00545339      -0.00736289
C       -0.02672850       8.45297361       3.62808204       0.00000000       0.01325513      -0.00196442       0.01815457
C        7.40441528      -0.10010814       3.73754138       0.00000000       0.00342448      -0.00581832       0.00582411
C        6.19060419       2.01040247       3.98727332       0.00000000       0.00020300       0.01168398      -0.00310166
C        5.00428673       4.08856448       3.97010486       0.00000000      -0.00200582       0.00526144      -0.00742350
S        3.52263423       6.08240098       3.25703965       0.00000000      -0.00587254      -0.00030077      -0.01305704
C        2.46711351       8.48524694       3.38583299       0.00000000       0.00356307      -0.02077322       0.00111086
C        9.88320318      -0.09893765       3.64893651       0.00000000      -0.01083522       0.00486869      -0.01550274
C        8.65544361       2.02840810       3.88766362       0.00000000      -0.00093061       0.00128894      -0.00276029
C        7.42853827       4.16369217       4.01716213       0.00000000       0.00432623       0.01107793       0.01447523
C        6.16808312       6.28175627       3.84719361       0.00000000       0.01366204      -0.01100880      -0.01161133
C        4.93347917       8.43335217       3.56445213       0.00000000      -0.00688247      -0.01021001      -0.00082458
C        0.02215682       1.33938346       3.72874827       0.00000000      -0.00297632       0.00210338       0.01881587
C       -1.21110430       3.45135959       3.83404356       0.00000000      -0.00029777      -0.00050667      -0.00624357
C       -2.45445785       5.59558631       3.89377380       0.00000000      -0.00102867       0.00377981       0.00772392
C       -3.71178436       7.73415000       3.83430526       0.00000000      -0.00290937       0.00094093       0.02284042
C       -4.92813065       9.88613248       3.75069579       0.00000000      -0.00764432       0.00956807      -0.00668364
C        2.47834673       1.40071123       3.79773927       0.00000000      -0.01881588      -0.00221758       0.01234263
O        1.17698701       3.43998546       3.69972011       0.00000000      -0.00173258      -0.00048744      -0.01319804
C        0.01843896       5.57091511       3.70694644       0.00000000      -0.01995502      -0.00592326      -0.01352989
C       -1.24091691       7.73244379       3.73116678       0.00000000       0.00621455       0.01011982       0.00406200
C       -2.48262432       9.89420734       3.81314978       0.00000000       0.01668680      -0.00429580      -0.01199355
C        4.93525999       1.33291753       3.91550852       0.00000000      -0.00362577       0.00886709       0.00063534
O        3.79141370       3.42936241       3.86186425       0.00000000       0.00029434      -0.00233980       0.00642399
C        1.20715701       7.74541244       3.38631598       0.00000000       0.00557942      -0.01104061       0.01617522
C       -0.00662846       9.87317500       3.74310346       0.00000000       0.01172778      -0.00382515      -0.00552785
C        7.41513321       1.31298734       3.88822766       0.00000000      -0.00312818       0.00085777      -0.00912749
C        6.20836486       3.42096981       4.06066661       0.00000000       0.01073185       0.00882391       0.00022425
C        5.00402487       5.48747804       3.82678160       0.00000000       0.00033718       0.00171337      -0.01146508
C        3.68044899       7.79346453       3.38383160       0.00000000      -0.00101156      -0.02740096      -0.01025472
C        2.46932495       9.88755802       3.58471658       0.00000000      -0.00357114      -0.01289168      -0.00313427
C        9.89152649       1.32382104       3.77608325       0.00000000       0.00436112       0.00413979       0.01719305
C        8.66120937       3.45197654       3.96193944       0.00000000      -0.00464614       0.00417575       0.00051381
C        7.41425112       5.58307004       3.95244107       0.00000000       0.01384123       0.00464861       0.01162086
C        6.15400102       7.71261941       3.71897337       0.00000000       0.00169894      -0.00416006      -0.00901905
C        4.94498366       9.87255740       3.62325284       0.00000000      -0.01864206      -0.00018469       0.01991872
Pd       1.32551913       6.31922266       5.11376232       0.00000000       0.00164094      -0.00582293      -0.04003389
O        1.72332230       8.84118494       6.32249642       1.00000000       0.00871666       0.00515045       0.00169640
O        2.36230804       7.75117841       6.27585102       1.00000000      -0.00630977       0.00536064       0.06237146
