49
Lattice="12.336457 0.0 0.0 -6.168228499999997 10.683685154694365 0.0 0.0 0.0 15.0" Properties=species:S:1:pos:R:3:forces:R:3 energy=-425.18932425193714 free_energy=-425.18932425193714 stress="-0.00045850610318284277 -0.0010109781132723772 8.166386091131286e-06 -0.0010109781132723772 0.003214488484545132 -9.520762505314875e-06 8.166386091131286e-06 -9.520762505314875e-06 1.3064395197281936e-06" pbc="T T T"
C        0.03186791      -0.00972374       3.71253088       0.00201708      -0.00830853       0.00606566
C       -1.22273938       2.09293798       3.95138816       0.00463233      -0.00310488       0.00259495
C       -2.46439144       4.24122649       4.07014791       0.00013113       0.00419697      -0.00309315
C       -3.69187072       6.38723154       3.89185625      -0.00012884      -0.00103725       0.00282895
C       -4.92215274       8.52369330       3.67331849      -0.00061321       0.00491475      -0.00216557
C        2.48406238       0.03299694       3.74222516      -0.00119449      -0.00147494      -0.00078605
C        1.22059283       2.14169361       3.81210641       0.00362710      -0.00502374       0.00601972
C       -0.02565721       4.16203348       4.07820464      -0.00297426       0.00130356       0.00098072
C       -1.23715354       6.38090772       4.00679954       0.00578085       0.00405037      -0.00190309
C       -2.45686502       8.52716051       3.82356637      -0.00257375      -0.00465449      -0.00182460
C        4.93990570      -0.02176915       3.79765766      -0.00502497      -0.00105212      -0.00682868
C        3.74794660       2.13707761       3.68962228       0.00464175       0.00585855       0.00180385
S        1.22993865       6.18098430       2.96235057       0.00429826      -0.00441781      -0.00515111
C        0.00226670       8.50870352       3.76744708      -0.00565968      -0.00717182      -0.00536400
C        7.41975031      -0.03751381       3.80707707      -0.00342911       0.00152509       0.00300285
C        6.18654146       2.09937222       3.84950427      -0.00724183       0.01781493      -0.00107645
C        5.00121233       4.18821444       3.53349162       0.00180372      -0.00092542      -0.00849918
S        3.80066464       6.33680848       2.34954634       0.00500216      -0.00658429      -0.00135507
C        2.51567796       8.54522827       3.43739509      -0.01104243      -0.00661755       0.00784706
C        9.89603809      -0.02678735       3.72876516       0.00833391      -0.00067223      -0.01011618
C        8.64896585       2.10091104       3.94261211      -0.00189379       0.00177885       0.00003258
C        7.41664924       4.24632798       3.89075611      -0.00215518       0.00147782       0.01012775
C        6.19409855       6.36404880       3.55135041       0.00090830      -0.00691986      -0.00070147
C        4.96943457       8.53455846       3.41386827       0.00888111       0.00108003       0.00531003
C        0.02686325       1.42003930       3.82918246       0.00232683      -0.01042444       0.00215445
C       -1.22884131       3.50678651       4.09059377      -0.00572032      -0.00272926      -0.00029735
C       -2.45978311       5.66571941       4.02443137       0.00736043       0.00579716       0.00091588
C       -3.68712048       7.81180175       3.80011925      -0.00428127      -0.00172200      -0.00246019
C       -4.90661396       9.97121936       3.69733461      -0.00030435       0.00077621       0.00642679
C        2.48430908       1.48435926       3.74062193       0.00486215      -0.00230212       0.00184990
O        1.17223427       3.51727135       3.91652717      -0.00249069       0.00533652       0.00813601
C       -0.00411785       5.60796557       4.10150702      -0.00845617      -0.00189480      -0.00225458
C       -1.21104136       7.79341561       3.86303983      -0.00060579      -0.00190806      -0.00104414
C       -2.46071964       9.96665144       3.77778556      -0.00416289      -0.00421890      -0.00004439
C        4.94056303       1.41185424       3.78411396      -0.00038670       0.00796906      -0.00280748
O        3.79596089       3.50635159       3.49748763       0.00669745      -0.00114438      -0.00887525
C        1.27497221       7.79244572       3.67251468      -0.00601048       0.00219921       0.01274449
C        0.01378948       9.93480221       3.79205831      -0.00454828      -0.00640104      -0.00352432
C        7.41312330       1.38839621       3.88450553      -0.00905797       0.01036406      -0.00002106
C        6.19155493       3.51766608       3.80489620      -0.00168127       0.01271214       0.00464273
C        5.04264759       5.58343678       3.28657593       0.00431855      -0.00766740       0.00593319
C        3.72907220       7.88793341       3.14938060      -0.00219516       0.01791469      -0.00372484
C        2.49228598       9.94598430       3.67719180       0.00102692      -0.00266893      -0.00338814
C        9.88936738       1.39105803       3.89384975       0.00504834       0.00039010      -0.00292068
C        8.64548625       3.52753900       3.99544233      -0.00080011       0.00117255      -0.00551323
C        7.41799114       5.66529117       3.81051440      -0.00337144      -0.00274500       0.00229909
C        6.19086032       7.80193574       3.51050047       0.00501877      -0.00214433       0.00163144
C        4.96372301       9.95796530       3.62801974       0.00846400      -0.00503375      -0.00290337
Pd       1.46604299       6.48433715       5.24293742       0.00282330       0.00233672      -0.00470449
