52
Lattice="12.336457 0.0 0.0 -6.168228499999997 10.683685154694365 0.0 0.0 0.0 15.0" Properties=species:S:1:pos:R:3:forces:R:3 energy=-439.47228702543975 free_energy=-439.47228702543975 stress="-0.0015826580065278408 0.005639882336586287 -1.3004003295177285e-08 0.005639882336586287 0.0007233655851958192 1.8176969727351414e-06 -1.3004003295177285e-08 1.8176969727351414e-06 1.1288889617150443e-05" pbc="T T T"
C       -0.03478765       0.08879776       3.75958883       0.00105490       0.00082586      -0.00298846
C       -1.23348285       2.25013469       3.99491698       0.00301045      -0.00115620      -0.00835091
C       -2.50107574       4.36881947       4.11692663      -0.00066269       0.00026189      -0.00516343
C       -3.76540612       6.49221799       3.92347333      -0.00232522       0.00054586       0.00307678
C       -5.00697354       8.61574434       3.71730067       0.00016365      -0.00147054      -0.00408804
C        2.43319096       0.09805096       3.67005968       0.00013044      -0.00324891      -0.00328956
C        1.22888190       2.22194405       3.65871727      -0.00242312       0.00498874       0.00306218
C       -0.06686887       4.44717332       4.37321918       0.00163450       0.00155925       0.00218635
C       -1.32348535       6.54151222       4.18255305       0.00124111      -0.00256422       0.00917896
C       -2.53474070       8.64082652       3.88757230       0.00180344      -0.00355154       0.00170659
C        4.89807341       0.07664751       3.78586132       0.00529524       0.00019291       0.00262156
C        3.73552115       2.18827982       3.49231013       0.00005786      -0.00322934       0.00226943
O        1.06958506       6.57128385       4.24095077       0.00181725      -0.00611692      -0.00103296
C       -0.06423348       8.62958680       3.98680417      -0.00290119       0.00037667       0.00298654
C        7.37465934       0.06251014       3.93508513      -0.00053641      -0.00112041      -0.00110319
C        6.17669804       2.18265347       3.75390397       0.00166450       0.00192091       0.00370725
C        5.00380325       4.25867553       3.44179737       0.00042793       0.00935557       0.00359258
S        3.48164560       6.35246864       2.88286672      -0.00531231      -0.00376679      -0.00289805
C        2.39225021       8.59793352       3.86184375      -0.00585696       0.00505906       0.00007865
C        9.84136925       0.07353624       3.90674208       0.00035362       0.00135170      -0.00145944
C        8.62736319       2.21157495       3.97519686      -0.00033994      -0.00104306      -0.00671374
C        7.39102121       4.33993444       3.83732155      -0.00342199       0.00098190       0.00376256
C        6.12020431       6.45139533       3.59066747       0.00176179      -0.00067709       0.00230807
C        4.86701342       8.60788648       3.63997732       0.00293132      -0.00037853      -0.00315747
C       -0.00927081       1.53787099       3.81651392       0.00137211      -0.00161624      -0.00213805
C       -1.27084029       3.66175510       4.15938540       0.00001522      -0.00159601       0.00065797
C       -2.54048359       5.79155040       4.10363046      -0.00098399       0.00171042       0.00322849
C       -3.77210125       7.91708033       3.84073000      -0.00118829      -0.00019393       0.00569433
C       -4.98110225      10.05638422       3.70409017      -0.00092124      -0.00187235       0.00228102
C        2.47582927       1.52804141       3.56039467      -0.00314115      -0.00361686       0.00227004
S        1.32598956       3.93612251       3.38978570       0.00089909      -0.00335485      -0.00370518
C       -0.12780728       5.89729968       4.28777573       0.00169316      -0.00231214      -0.00517323
C       -1.31662753       7.95250011       4.03037581       0.00121426      -0.00517235      -0.00277217
C       -2.51414171      10.06621795       3.76852118       0.00473276      -0.00222257       0.00244577
C        4.92682036       1.49507541       3.66276929       0.00270443       0.00124164       0.00901144
O        3.80989541       3.56237767       3.35635871       0.00321670      -0.00016813      -0.00245109
C        1.13038313       7.92664312       3.98872678      -0.00466289       0.00064009       0.00795646
C       -0.03643406      10.05346752       3.90346797       0.00212615      -0.00193374       0.00138190
C        7.39084543       1.48997146       3.90110401      -0.00059301      -0.00309860       0.00251513
C        6.18831784       3.59442785       3.69087091      -0.00311678       0.00457775       0.01283677
C        4.97221192       5.66144680       3.36882852      -0.00135961       0.01015213      -0.01277321
C        3.61594153       7.93996044       3.55062484      -0.00355871       0.00956815      -0.00582250
C        2.43031982      10.02822635       3.93698516      -0.00159878       0.00431106      -0.00324837
C        9.86277016       1.50942854       3.97932480       0.00121461       0.00069970       0.00297728
C        8.61575034       3.63501808       3.99099521      -0.00176233       0.00004296      -0.00563340
C        7.35619560       5.75805998       3.79347308      -0.00156891      -0.00130668       0.00262286
C        6.09728146       7.88691603       3.62070869       0.00480267      -0.00437368      -0.00062175
C        4.89406659      10.04882763       3.78802659       0.00088771       0.00115752      -0.00240138
Pd       1.25788041       3.84507699       5.71965397       0.00222452      -0.00097834      -0.00342292
O        3.16112567       3.08406750       6.09209707       0.00076217       0.00142575      -0.00613083
O        4.15998414       4.08276613       6.10065226       0.00265479      -0.00844518       0.01410458
H        3.79991376       4.72438804       6.75070117      -0.00563280       0.00763775      -0.01398222
