50
Lattice="12.336457 0.0 0.0 -6.168228499999997 10.683685154694365 0.0 0.0 0.0 15.0" Properties=species:S:1:pos:R:3:forces:R:3 energy=-431.715114021623 free_energy=-431.715114021623 stress="-0.0039139679747892345 0.002427931368021609 -2.384338959046632e-05 0.002427931368021609 -0.006922259041844495 7.4663319889049865e-06 -2.384338959046632e-05 7.4663319889049865e-06 1.7131640073043276e-05" pbc="T T T"
C       -0.02418597      -0.01632607       3.68939595       0.00162636       0.00492811      -0.00015984
C       -1.23117452       2.15459184       3.79193152      -0.00507423      -0.00340238      -0.00772192
C       -2.45874071       4.27834148       3.84294719      -0.00254484       0.00418811       0.00052477
C       -3.71326969       6.40135339       3.70552970      -0.00474374       0.00284120      -0.00108030
C       -4.97452762       8.51788211       3.59734784       0.00961865       0.00131100      -0.00604193
C        2.43784527      -0.07068071       3.82432294       0.00385232       0.00107904       0.01011654
C        1.24702202       2.08029651       3.77186809       0.00637878       0.01307497      -0.00036472
C        0.00382492       4.36755772       3.99539406      -0.00098845      -0.00186537      -0.01023715
C       -1.26423275       6.44295062       3.74723340      -0.00180986       0.00334160       0.00178521
C       -2.49190715       8.53263586       3.72878306       0.00384122       0.00083849       0.00022604
C        4.91757984      -0.02192478       3.91945811       0.00423343       0.00055269      -0.00174113
C        3.66576252       2.00275817       4.18860709      -0.00057968       0.00818467       0.00169837
O        1.12018020       6.51039533       3.88009110       0.01381859      -0.01212795       0.00268241
C       -0.02776293       8.55751999       3.71085556       0.00012133      -0.00570001      -0.00329570
C        7.38637324       0.00151606       3.85428154       0.00853401       0.00162035       0.00118182
C        6.15950817       2.13640482       4.03747511      -0.00378047      -0.00062318      -0.00982143
C        4.97256832       4.33373460       3.85263967      -0.00411791      -0.00671655      -0.01302777
S        3.62657877       6.32386881       2.54387434       0.00126906       0.00181403      -0.00036282
C        2.42033789       8.54368144       3.56340905      -0.01031597      -0.00036072       0.00434787
C        9.84938517       0.00255295       3.72211663       0.00148126      -0.00050340       0.01062882
C        8.63129666       2.13795564       3.88723335      -0.00141963       0.00051538      -0.00304922
C        7.40620121       4.26834171       3.83237588      -0.00361935      -0.00463125      -0.00777389
C        6.17627274       6.40126506       3.46103653      -0.00248182      -0.00055473       0.00286460
C        4.89697074       8.54022555       3.44425253      -0.00655758      -0.00257802       0.00131315
C       -0.00831340       1.42047336       3.74399699       0.00289734       0.00682541       0.00115395
C       -1.22717770       3.57712460       3.84901975      -0.00515978      -0.00221587       0.00113655
C       -2.48237903       5.69690423       3.78906868      -0.00553683       0.00584046       0.00331594
C       -3.73041626       7.81847532       3.66545816       0.00778965       0.00182136       0.00071942
C       -4.97155209       9.93491071       3.68935438       0.00364484       0.00194186       0.00015924
C        2.45359883       1.33371752       3.93603186       0.00150075       0.00335180       0.01405221
P        1.55345058       3.73468943       3.19675005      -0.00771446       0.00284304       0.01149054
C       -0.05516529       5.80119978       3.81029912       0.00186641      -0.00123564      -0.00871710
C       -1.26428211       7.85332804       3.71495828      -0.00101913       0.00020095       0.00953737
C       -2.48549749       9.94439314       3.82703930       0.00421824      -0.00077322      -0.00060518
C        4.92178052       1.39812607       4.07771794      -0.00225879       0.00277891      -0.00238528
P        3.47073163       3.70732900       4.51497749      -0.00167616      -0.00512191       0.01846007
C        1.16808696       7.86668449       3.65444970      -0.00216562      -0.00934830       0.00781624
C       -0.01406524       9.97856786       3.82384923       0.00774112      -0.00209032       0.00402832
C        7.38822943       1.43009224       3.94116795       0.00124142       0.00195626       0.00148762
C        6.16930446       3.56443651       3.94444684      -0.00585589      -0.00307525      -0.01033758
C        4.99616161       5.64736896       3.35547865      -0.00796689       0.00208320       0.01394346
C        3.65448580       7.89062600       3.27230428      -0.01359726      -0.00300097       0.00313887
C        2.44105388       9.96748463       3.72878916       0.00443086       0.00166364      -0.00695642
C        9.86316788       1.43187947       3.80832975      -0.00428902      -0.00279846      -0.00045086
C        8.63723346       3.55847492       3.87077484      -0.00066596       0.00012043      -0.01075176
C        7.40043327       5.68616204       3.67694395      -0.00347963      -0.00338906      -0.00359852
C        6.13545746       7.81746913       3.45047471       0.00337274       0.00198159      -0.00911197
C        4.90737350       9.96926846       3.62544160      -0.00067174       0.00036367       0.00341246
Pd       1.07719259       4.15539010       5.65146106       0.00675276      -0.00820191      -0.00789789
O        3.21025716       4.12352817       5.97983055       0.00985957       0.00225223      -0.00573149
