50
Lattice="12.336457 0.0 0.0 -6.168228499999997 10.683685154694365 0.0 0.0 0.0 15.0" Properties=species:S:1:pos:R:3:forces:R:3 energy=-433.5096116783557 free_energy=-433.5096116783557 stress="0.0004869091258379014 0.00043840488750971675 -4.843486273541708e-06 0.00043840488750971675 -0.0013140569277754978 8.778495576362498e-07 -4.843486273541708e-06 8.778495576362498e-07 -1.936646972475783e-06" pbc="T T T"
C        0.03057372      -0.01108891       3.62345859       0.00123926      -0.00376092       0.00766056
C       -1.21417012       2.11506454       3.54053359      -0.00209388       0.00211795      -0.00303487
C       -2.44663198       4.26182441       3.52018829      -0.00527657       0.00773913       0.00292742
C       -3.67606535       6.40003453       3.58433372       0.00072573       0.00268217      -0.00242182
C       -4.91416869       8.53509233       3.60473090       0.00220946      -0.00499626       0.01017019
C        2.48989159       0.03132985       3.63861806      -0.00360234       0.00288935       0.00548542
C        1.22755777       2.13414027       3.60587576       0.00111259      -0.00527612       0.00041144
C       -0.00499938       4.19108953       3.60305974      -0.00236484      -0.00247798      -0.00067631
C       -1.19057915       6.37313256       3.72754945       0.00141395      -0.00732589      -0.00455379
C       -2.43802200       8.53048997       3.71251326       0.00238803       0.00000568      -0.01071409
C        4.94044059      -0.00260328       3.75643008      -0.00335359       0.00657195       0.00455967
C        3.74684714       2.14094895       3.67639160       0.00519123      -0.00186465      -0.00177799
P        1.39098718       6.22896897       4.65648337       0.00928057       0.00241032       0.00048226
C        0.00973864       8.55588443       4.04129546       0.00421968      -0.00187022      -0.00774273
C        7.41205630       0.00957596       3.85920036      -0.00217480       0.00645897      -0.00248137
C        6.18893726       2.11364763       3.68827015       0.00122172       0.00806228       0.00152598
C        4.99517358       4.18228550       3.78359026      -0.00375305      -0.00332269      -0.00433690
S        3.34798725       6.24472620       3.41531830       0.00763311      -0.00138731      -0.00203374
C        2.46860780       8.62549163       4.21186050       0.00136871      -0.00200145      -0.00013821
C        9.89748586       0.00472617       3.77349219      -0.00329412      -0.00368961       0.01013757
C        8.65720100       2.12875761       3.63116038      -0.00000921       0.00224200      -0.00412528
C        7.42795609       4.26337780       3.62260103      -0.00015829       0.00315000      -0.00259759
C        6.17745268       6.38796066       3.66347330      -0.00392219      -0.00477600       0.00328523
C        4.96200220       8.53310598       3.80301575       0.00602168       0.00273357       0.01045022
C        0.03018708       1.41888753       3.57866031      -0.00090172      -0.00321239      -0.01285263
C       -1.21879815       3.52494406       3.48854100      -0.00727452       0.00495190       0.00311868
C       -2.43912403       5.68289827       3.57783568      -0.00171569       0.00381005       0.00656848
C       -3.67685781       7.82342395       3.61680842       0.00254987      -0.00138513       0.00721365
C       -4.90551988       9.97286479       3.61384132       0.00061178      -0.00452194       0.00007529
C        2.48831907       1.47909298       3.63837117       0.00348450       0.00082803       0.00054837
O        1.19134660       3.50691452       3.64258900      -0.00565340      -0.00611737      -0.00793628
C        0.00934879       5.58312914       3.77900216       0.00259420      -0.00384716      -0.00307074
C       -1.20439584       7.81122172       3.84158654      -0.00018387      -0.00592960       0.00804126
C       -2.45502173       9.97259464       3.70522243      -0.00460632       0.00488782       0.00788552
C        4.94105795       1.42787823       3.69855078       0.00480526       0.00394315       0.00483209
O        3.79543413       3.51760276       3.74630367      -0.00042135      -0.00637870       0.01298675
C        1.25673582       7.94807923       4.33213534       0.00579559      -0.00303050      -0.00867720
C        0.00809025       9.98136295       3.88921744      -0.00190230       0.00553585       0.00669902
C        7.41655065       1.42107853       3.71362194      -0.00072452       0.00727897      -0.00353624
C        6.19639743       3.52926314       3.69123077      -0.00197629       0.00568381      -0.00303311
C        4.96652286       5.61279318       3.90399860       0.00002440      -0.00780339      -0.00247348
C        3.71931031       7.85358355       4.15174399       0.00098180       0.00507065      -0.01476875
C        2.49169228      10.01010429       3.95733292      -0.00495291      -0.00201426       0.00107259
C        9.89576457       1.41811504       3.62985841      -0.00143179      -0.00381223       0.00141901
C        8.65743791       3.55023249       3.56939717      -0.00177205       0.00311126      -0.00613487
C        7.41613959       5.68308962       3.60064846       0.00136686       0.00225744      -0.01277874
C        6.17186070       7.81263364       3.65968504       0.00034292      -0.00510785       0.00047690
C        4.95875758       9.95995018       3.72994613       0.00049244       0.00090814      -0.00422464
Pd       4.12307041       6.44970617       5.65255087      -0.00937986       0.00396055       0.01375774
O        1.54248700       5.67106943       6.04831921       0.00582408      -0.00338135      -0.00566993
