49
Lattice="12.336457 0.0 0.0 -6.168228499999997 10.683685154694365 0.0 0.0 0.0 15.0" Properties=species:S:1:pos:R:3:forces:R:3 energy=-424.67741737491525 free_energy=-424.67741737491525 stress="-0.0035256303027292528 0.0015331461653817276 -2.187612414275406e-06 0.0015331461653817276 -0.004345415311660504 8.701883794843106e-06 -2.187612414275406e-06 8.701883794843106e-06 6.901357108909488e-06" pbc="T T T"
C        0.01508150       0.01081555       3.76673345       0.00398982       0.00703651      -0.00101544
C       -1.19562364       2.16637588       3.74942379       0.00063824       0.00863241       0.00274741
C       -2.41315074       4.29917264       3.74365560      -0.00258319      -0.00404181      -0.00368548
C       -3.65828262       6.43114345       3.66873253      -0.00325101       0.00144048      -0.00181021
C       -4.92243079       8.55539131       3.63892552       0.00291186      -0.00065421      -0.00088158
C        2.48468578      -0.02314633       3.94375370      -0.00279147      -0.00234522       0.00437357
C        1.25469169       2.14191688       4.05855776       0.00152719       0.00571402      -0.00821198
C        0.05966923       4.36054718       3.91166064       0.00209824      -0.01015018      -0.01453858
C       -1.19986971       6.45349909       3.80898350       0.00383560      -0.00357556       0.00804443
C       -2.44029031       8.56134850       3.80998523       0.00082064       0.00242093       0.00142653
C        4.96406569       0.01513112       3.93746215      -0.00302486      -0.00941703       0.00296655
C        3.71425064       2.08612806       4.14387232       0.00524582      -0.00349294       0.00126100
O        1.17686650       6.50542402       3.87608084       0.00379720       0.00286672      -0.00227593
C        0.02385488       8.57207317       3.79674217      -0.00502443       0.00711850      -0.00694621
C        7.42898621       0.02124457       3.82650895      -0.00089127      -0.00020989      -0.00073168
C        6.20251619       2.16320147       3.89305909       0.00158557       0.00007833       0.01387261
C        5.02007528       4.33947080       3.59330758      -0.00200231       0.00716685       0.00425083
S        3.67093312       6.39764490       2.43337637       0.00121438      -0.00311041      -0.00034622
C        2.46443343       8.55447415       3.58038486      -0.00713638      -0.00652213       0.00316509
C        9.88785107       0.01607687       3.70641100      -0.00338921       0.00997073      -0.00565434
C        8.66889696       2.15894070       3.77196078      -0.00312409      -0.00321607       0.00103177
C        7.45541559       4.29323790       3.66501690       0.00888694      -0.00407710      -0.00244410
C        6.23633064       6.43921064       3.34331281       0.00069862      -0.00400252       0.00136817
C        4.94647746       8.56609316       3.43751442       0.00057727       0.00389184      -0.00163801
C       -0.00335082       1.42888524       3.83150180      -0.00017731       0.00771427       0.00547488
C       -1.18631345       3.59018768       3.75936916      -0.00254100       0.00185398      -0.00187272
C       -2.42922262       5.72039433       3.75836426      -0.00342776      -0.00367444      -0.00862453
C       -3.67778372       7.85093284       3.70187785       0.00158140       0.00191689       0.00595867
C       -4.92309385       9.96783662       3.79300323       0.00230148       0.00046562      -0.00874768
C        2.51025278       1.37400517       4.07759346       0.00304713       0.00008740       0.00238212
P        1.51732894       3.63001461       3.09171424       0.00316800       0.00554189       0.00178522
C        0.00931237       5.80011797       3.84192308       0.00139626      -0.00412910      -0.00233716
C       -1.21246875       7.86933251       3.81080873       0.00167753       0.00284871      -0.00472620
C       -2.43665139       9.97727786       3.90545077      -0.00593521      -0.00172384      -0.00920487
C        4.97267091       1.44041604       4.00849273       0.00474009      -0.01252482       0.00429089
P        3.51186427       3.80937806       4.35909047      -0.00120611      -0.00440052       0.01037753
C        1.21654278       7.87327235       3.70398964      -0.00672737       0.00127885       0.00376190
C        0.03129351       9.99956486       3.85245704      -0.00107416       0.00193282       0.00486927
C        7.43011431       1.45227035       3.83891135      -0.00222486      -0.00150335       0.00224229
C        6.21746117       3.58482172       3.73620944       0.00505748       0.00694266       0.00646972
C        5.06500670       5.68604106       3.16507788      -0.00569328       0.00408633      -0.00055482
C        3.70100515       7.91719317       3.24919443      -0.00197732      -0.00417370       0.00808568
C        2.48133593       9.97978313       3.72153710      -0.00347931      -0.00149749      -0.00315870
C        9.89310855       1.44434810       3.74382469      -0.00104294       0.00982188      -0.00795867
C        8.68148376       3.58195343       3.73386463       0.00320613      -0.00945013      -0.00490727
C        7.45777977       5.71652877       3.55726803       0.00043621      -0.00392480       0.00135817
C        6.19226797       7.85536558       3.42451428       0.00287515      -0.00256819       0.00398811
C        4.94835154       9.98675880       3.64710444       0.00074263       0.00899940       0.00358831
Pd       1.06366346       3.55645318       5.53615490       0.00066798      -0.00544256      -0.00686833
