50
Lattice="12.336457 0.0 0.0 -6.168228499999997 10.683685154694365 0.0 0.0 0.0 15.0" Properties=species:S:1:pos:R:3:forces:R:3 energy=-431.61960358879577 free_energy=-431.61960358879577 stress="-0.0034621784738037994 -0.003011932903193717 -8.87507289171331e-05 -0.003011932903193717 -0.006748051088427221 6.263311959982564e-05 -8.87507289171331e-05 6.263311959982564e-05 -2.8635943837302052e-05" pbc="T T T"
C        0.00181884      -0.03559336       3.72559372      -0.00230074      -0.00049196      -0.00213575
C       -1.23894420       2.09641200       3.52723905      -0.00682424      -0.00747922      -0.00167659
C       -2.48949488       4.23460813       3.60808682      -0.00474497      -0.00149386      -0.00536299
C       -3.70504519       6.37625353       3.75597927       0.00062962      -0.00159545      -0.00426401
C       -4.93049303       8.50635604       3.80580426      -0.00091936      -0.00024158      -0.00199292
C        2.46216535      -0.08989662       3.92295108      -0.00258332      -0.00202271       0.00516843
C        1.26271739       2.00650199       3.52539408       0.00455514       0.00862325       0.02306459
C       -0.07641351       4.24386187       3.16365198      -0.01905997       0.01648550       0.02785839
C       -1.27910967       6.39946495       3.63560772      -0.00370688       0.00734886      -0.00276957
C       -2.46639105       8.50029055       3.89237059       0.00075893      -0.00092436      -0.00171506
C        4.93670906      -0.05231597       4.04625058       0.00012288       0.00156767       0.00033058
C        3.64653139       2.01856045       4.14608521      -0.01808221       0.01336928       0.01827208
P        1.25182060       6.48749869       2.56334263       0.01507635      -0.00189514       0.00110939
C       -0.00220884       8.50066406       3.87790581      -0.00116158       0.00049338      -0.01078352
C        7.40304012      -0.02626428       3.95137301      -0.00259540      -0.00024615      -0.00873426
C        6.13786418       2.12935630       4.00698638       0.00492894      -0.00315439      -0.00541006
C        4.91912116       4.36257986       3.91803852      -0.01410214       0.01697163       0.02338034
O        3.79849035       6.47003282       3.85847245      -0.00096384      -0.00464222      -0.00858974
C        2.51905387       8.51724065       3.83884759      -0.00159544       0.00180027      -0.00377973
C        9.87109489      -0.02362903       3.78192206      -0.00124784       0.00259557       0.00057055
C        8.61910798       2.10930795       3.78368310      -0.00102751       0.00133312      -0.00527720
C        7.37654826       4.24918288       3.79596141       0.00127046      -0.00360680      -0.00072756
C        6.18970832       6.41393433       3.73935232      -0.00124502      -0.00337777       0.00247799
C        4.95775407       8.53581255       3.76731844       0.00042815       0.00491899       0.00647954
C        0.00342338       1.38878796       3.57002869      -0.00495086      -0.00814549       0.00295693
C       -1.24400878       3.51879918       3.41510523      -0.00484388       0.00306837       0.00184268
C       -2.47942775       5.66116812       3.67149520      -0.00242510       0.00127291       0.00102793
C       -3.69547862       7.79354419       3.82478940       0.00164348       0.00067931      -0.00779721
C       -4.94043545       9.92181706       3.81964929      -0.00329926      -0.00240285       0.00005360
C        2.44784023       1.31825410       3.89726275       0.00809918      -0.00365002       0.01295971
S        1.50081736       3.59304952       2.81728379       0.02711756      -0.00005707      -0.03187907
C       -0.04431892       5.66812512       3.45752726      -0.01284465       0.01803901      -0.02291093
C       -1.22851260       7.79481136       3.80924684      -0.00061132       0.00357740      -0.00576730
C       -2.45920505       9.90978024       3.98717049      -0.00327201      -0.00474299       0.00276187
C        4.91549313       1.38594626       4.10622300       0.00594189      -0.00289023      -0.00173213
P        3.36068664       3.71266995       4.39508713      -0.14656024       0.06798647       0.00226448
C        1.25552504       7.75535341       3.83742407      -0.00339896      -0.00011200      -0.01365813
C        0.00718332       9.92229559       3.99039945       0.00020425      -0.00275954      -0.00957223
C        7.38188014       1.40604717       3.92651637       0.00170270      -0.00138056      -0.00112262
C        6.12237026       3.56583249       3.91171995       0.01026110      -0.00032405      -0.00474932
C        4.98385528       5.75248357       3.80270139       0.00217043      -0.00992505      -0.00144446
C        3.75159575       7.84992889       3.78475529       0.00090433       0.00363681       0.00037749
C        2.47896660       9.93534078       3.87336296      -0.00057199       0.00152586       0.00016135
C        9.86747333       1.40339651       3.69980814      -0.00516622      -0.00316678       0.00196929
C        8.61583548       3.53039661       3.73268970       0.00386027      -0.00248266      -0.00461652
C        7.40301978       5.66736615       3.75570743       0.00141307       0.00143681       0.00296794
C        6.18586516       7.82282151       3.75303270      -0.00138398       0.00227629       0.00631601
C        4.93438868       9.95595017       3.75639653      -0.00075348       0.00300300       0.00262947
Pd       1.38933724       5.96596100       4.84538824       0.05672711      -0.06078723       0.00251177
O        2.67584723       4.27071673       5.65409705       0.12442657      -0.04801161       0.01895650
