49
Lattice="12.336457 0.0 0.0 -6.168228499999997 10.683685154694365 0.0 0.0 0.0 15.0" Properties=species:S:1:pos:R:3:forces:R:3 energy=-424.3283253909447 free_energy=-424.3283253909447 stress="-0.007433430469443809 0.0067755544381682496 1.548386373132615e-06 0.0067755544381682496 -0.0018564771803053703 -3.213009795342464e-07 1.548386373132615e-06 -3.213009795342464e-07 3.088863260045765e-06" pbc="T T T"
C        0.00207408       0.00333530       3.68429615       0.00763738       0.00009908       0.00992923
C       -1.20532597       2.15987473       3.60991642       0.00688412      -0.00324488      -0.00230120
C       -2.46247010       4.28939527       3.74081971      -0.00942089       0.00103891       0.00928893
C       -3.73037948       6.41640038       3.80909070       0.00260198      -0.01067166       0.00310703
C       -4.97204628       8.53968036       3.74835712      -0.00272330       0.00331361      -0.00163417
C        2.46343124       0.02153888       3.84551858       0.00603175       0.00465647      -0.00899263
C        1.27661406       2.11906955       3.50357267       0.00624124      -0.00109599       0.00394784
C       -0.07825380       4.39996391       3.44551069      -0.00586736      -0.00030967       0.00583476
C       -1.30553301       6.46088464       3.79856307      -0.00496464       0.00294572      -0.00396279
C       -2.50424713       8.56504945       3.89163507      -0.00824380       0.00014208       0.00506605
C        4.93216274      -0.00376546       3.93479637      -0.00094497       0.00347768       0.00008883
C        3.76671203       2.11427935       3.88001659      -0.00728688       0.00076747      -0.00685938
O        1.06762327       6.46342259       4.01355848       0.00907205       0.00702181       0.00362040
C       -0.03174495       8.55145139       3.89717271       0.00599294      -0.00397557      -0.00560898
C        7.41787273      -0.02580300       3.90430489      -0.00124266      -0.00182847      -0.00532949
C        6.22073142       2.09681738       3.91693688       0.00403319      -0.00131818       0.00330136
C        5.04939737       4.19489599       3.73037382       0.00553046      -0.00516792      -0.00826689
S        3.54588348       6.22719772       2.88485721      -0.00457848       0.01067695      -0.01020042
C        2.42968286       8.50856102       3.75293893      -0.00272181      -0.00490123      -0.00142515
C        9.87854557      -0.01209018       3.74947973      -0.00725650      -0.00556415      -0.00157253
C        8.67220433       2.12477636       3.82254354       0.00656442       0.01329512      -0.00260073
C        7.43872849       4.25820335       3.81498815      -0.00054834       0.00421640       0.00547975
C        6.16391735       6.37298009       3.62260407       0.00990043      -0.00215418      -0.00162412
C        4.90578320       8.51861979       3.59441570      -0.01041832       0.00077734       0.00938338
C        0.02862392       1.44760933       3.59201685       0.01076725      -0.00265419       0.00616014
C       -1.23000804       3.59336501       3.59217074      -0.01024221      -0.00045605      -0.00039104
C       -2.50418274       5.70818215       3.79050877      -0.00073573      -0.00543238       0.00676204
C       -3.73801048       7.84160525       3.82487414      -0.00726346      -0.00847923      -0.00203779
C       -4.94493641       9.97897250       3.76159607       0.00850384       0.00640280       0.00237494
C        2.50365104       1.45901410       3.77823707      -0.00107144      -0.00243457      -0.00306730
S        1.39802471       3.73056573       2.87347409       0.00553414      -0.00551248      -0.01081504
C       -0.11712894       5.77247240       3.67319423      -0.00341752       0.00557456      -0.00669627
C       -1.28684719       7.86999862       3.88656789      -0.00270227       0.00434524       0.00536754
C       -2.48421134       9.99254479       3.91327882       0.00048491       0.00294023      -0.00488049
C        4.96496825       1.41604127       3.92605320      -0.00548030       0.00446957      -0.00183291
O        3.86384288       3.50286284       4.06441372      -0.00397931      -0.00807703       0.00081379
C        1.16602993       7.85382506       3.84262224       0.00670093      -0.00414217      -0.00307111
C        0.00138895       9.97089703       3.92532259      -0.00056742      -0.00305805       0.00159059
C        7.43831870       1.40165915       3.89819242       0.00935019       0.00425623       0.00623135
C        6.23915266       3.50664003       3.84423896       0.00715241      -0.00197675      -0.00224931
C        5.01150800       5.56496975       3.48937494       0.00510847       0.00056600       0.00373449
C        3.65934520       7.84650142       3.49724273      -0.00824157      -0.00309012      -0.00038811
C        2.46979241       9.94570628       3.82665761      -0.00772603      -0.00947846      -0.00508867
C        9.90587189       1.42699088       3.73598663       0.00377570       0.00021146       0.00151332
C        8.66530408       3.55003049       3.80961082      -0.00604197       0.01165502       0.00270989
C        7.39697494       5.67696500       3.76199701       0.00716779      -0.00393949       0.01023514
C        6.13940781       7.80630247       3.62534529      -0.00509006       0.00239004       0.00154988
C        4.93170383       9.96328515       3.68056306      -0.00218551       0.00069424       0.01037392
Pd       2.45744574       4.98680359       4.74491243      -0.00407287       0.00302881      -0.01756809
