52
Lattice="12.336457 0.0 0.0 -6.168228499999997 10.683685154694365 0.0 0.0 0.0 15.0" Properties=species:S:1:pos:R:3:forces:R:3 energy=-440.4210219669771 free_energy=-440.4210219669771 stress="0.0006465031016293775 0.0009259018558940046 6.244028467717659e-06 0.0009259018558940046 0.0006012319635727566 -3.1545381069860544e-07 6.244028467717659e-06 -3.1545381069860544e-07 2.1144157988396104e-05" pbc="T T T"
C       -0.01618624      -0.03353446       3.60954895       0.00978559       0.00585278       0.01065123
C       -1.25857587       2.09619233       3.61125321       0.00215207       0.00217563      -0.00386895
C       -2.48926269       4.24003669       3.62536110      -0.00103273      -0.00894036      -0.01070662
C       -3.72497476       6.37275366       3.62614586       0.00590419      -0.00756689       0.00182110
C       -4.96914738       8.50669678       3.59794728      -0.00278321       0.00204839      -0.00377997
C        2.43776826       0.00962095       3.63932209      -0.00126049       0.00167069      -0.00558874
C        1.17891504       2.11659502       3.66005500       0.00204511       0.00780799      -0.00517744
C       -0.05313105       4.17809960       3.83586749      -0.00117784       0.00449491      -0.01101048
C       -1.24289435       6.34898407       3.87604745       0.00083053      -0.00068424      -0.00183273
C       -2.49561585       8.50788604       3.75332482       0.00185013       0.00417922      -0.00836072
C        4.88919833      -0.02434088       3.72905937      -0.00631886      -0.00357261      -0.00370217
C        3.69764879       2.11909648       3.58339259       0.00159865      -0.00342410      -0.00459660
P        1.34090119       6.27176275       4.90389612      -0.00695793       0.00591059      -0.01402144
C       -0.04379336       8.52817824       4.01178502       0.00268738      -0.00690989       0.00469465
C        7.35806581      -0.01988085       3.78019353      -0.00308963       0.00389262       0.00480227
C        6.14361023       2.09068744       3.59364715      -0.00295827       0.00703997      -0.00221096
C        4.94898188       4.16582484       3.46679136      -0.00084141       0.00200798       0.00647640
S        3.33085810       6.22352192       3.32711225       0.00849100       0.01058928       0.01008735
C        2.40866030       8.58465889       4.06368633       0.00412448      -0.01153404      -0.00138211
C        9.84606839      -0.02836289       3.72596349       0.00374176       0.00258404      -0.00550190
C        8.61205652       2.10120077       3.61148781       0.00180050       0.00685240       0.00186416
C        7.38627125       4.23681529       3.53933404      -0.00238893      -0.00894846      -0.00565788
C        6.11165549       6.34769454       3.53805479      -0.00429993      -0.00470657       0.00435896
C        4.91850724       8.50878886       3.71464578      -0.00651964      -0.00079537       0.00772881
C       -0.01532483       1.39875975       3.61401734       0.00316436       0.00607706      -0.00045238
C       -1.26031677       3.50863079       3.64766180      -0.00044717      -0.00124739      -0.00235482
C       -2.48639805       5.65854358       3.69071888       0.00510545      -0.01094231       0.00129366
C       -3.73049928       7.79787054       3.65177479       0.00115093       0.00186912       0.00133552
C       -4.95685555       9.94858339       3.61025473       0.00451853       0.00292736       0.00358042
C        2.43809478       1.45856565       3.62331312      -0.00158597      -0.00033003       0.00395033
O        1.14262348       3.48793841       3.81091322       0.00244600       0.00803675       0.01069556
C       -0.04596321       5.57409188       4.03206582      -0.00229567       0.00252563      -0.01017376
C       -1.26312577       7.78994082       3.90353291       0.00218510      -0.00144030      -0.00154181
C       -2.50825512       9.95073617       3.70986153      -0.00634867       0.00206762       0.00407896
C        4.89149937       1.40575431       3.63155094       0.00029419      -0.00301278      -0.00190797
O        3.73746876       3.49596938       3.47980384       0.00784759      -0.00215415       0.00122122
C        1.21088351       7.88347714       4.23826577       0.00275894      -0.00068639       0.00666759
C       -0.04394781       9.95303524       3.83844782      -0.00409566      -0.00592273      -0.00798592
C        7.36896500       1.39211591       3.65156988       0.00023668       0.01140397      -0.00159707
C        6.16077334       3.50020378       3.51732412      -0.00302573       0.00297125       0.00627554
C        4.92516050       5.57057007       3.47334143      -0.00583307      -0.00104534      -0.00102918
C        3.67162882       7.82244890       4.08548991      -0.00321380      -0.01109700      -0.00325379
C        2.43543753       9.96950828       3.85063066       0.00159268      -0.00825092      -0.00228197
C        9.85077718       1.39074399       3.63404703       0.00153937       0.00541753       0.00744344
C        8.61778609       3.52405069       3.57441195      -0.00321246      -0.00213557       0.00506776
C        7.37229929       5.65489753       3.54958268       0.00193435      -0.00977668      -0.00024108
C        6.11582820       7.78473526       3.59274904      -0.00881710      -0.00137004       0.00858573
C        4.90970061       9.92821197       3.68061080       0.00792316       0.00307227       0.01172401
Pd       3.96740500       6.96794410       5.82358258      -0.00903496       0.00597119      -0.00083074
O        4.36072176       5.92814871       7.53401645      -0.01000538      -0.00915988      -0.00580038
O        3.85211564       6.66094685       8.67656519       0.00115993       0.00873579       0.00740081
H        4.56351543       6.49053086       9.32463409       0.00867584      -0.00252797      -0.00495586
