51
Lattice="12.336457 0.0 0.0 -6.168228499999997 10.683685154694365 0.0 0.0 0.0 15.0" Properties=species:S:1:pos:R:3:initial_magmoms:R:1:forces:R:3 energy=-435.58488684486645 free_energy=-435.58488684486645 stress="-0.0005841912560781709 -7.756334817191646e-05 -6.728066598422896e-06 -7.756334817191646e-05 0.0038527212587102875 -3.5489396779731004e-05 -6.728066598422896e-06 -3.5489396779731004e-05 1.3853111788915596e-05" pbc="T T T"
C       -0.08727977       0.04593919       3.82859195       0.00000000      -0.01042346       0.00010887      -0.00016242
C       -1.32312954       2.18347744       3.88370867       0.00000000      -0.00627077      -0.00436351       0.00522525
C       -2.54270579       4.31727766       3.86262778       0.00000000       0.00184038      -0.00175829       0.00099827
C       -3.77790620       6.45158770       3.80198840       0.00000000      -0.00125500      -0.00126129       0.00408536
C       -5.02059681       8.59617312       3.75134430       0.00000000       0.00163182       0.00074341      -0.00626019
C        2.36835446       0.07538403       3.86558183       0.00000000       0.00242765      -0.00359078      -0.00069775
C        1.11306647       2.19860883       3.88406754       0.00000000      -0.00458485      -0.00266567      -0.00361958
C       -0.09649167       4.31511936       3.90129503       0.00000000       0.00181216       0.00452372       0.00130623
C       -1.30422421       6.43295663       3.89891539       0.00000000       0.00100381       0.00453118       0.00685757
C       -2.54684258       8.58749960       3.87555949       0.00000000       0.00293870      -0.00549715      -0.00290020
C        4.84868429       0.04694999       3.82318417       0.00000000       0.00605219       0.00064901       0.00120901
C        3.61364224       2.21347742       3.68417747       0.00000000       0.00128473       0.00181764      -0.00775259
O        1.08521690       6.45475774       3.84015697       0.00000000       0.00478353      -0.00535130      -0.00151074
C       -0.08118046       8.56250980       3.84383355       0.00000000      -0.00059449       0.00224220       0.00292369
C        7.31698932       0.02006621       3.80591170       0.00000000      -0.00012376       0.00713239       0.00385966
C        6.08595698       2.17141596       3.66690965       0.00000000      -0.00042973      -0.00740540       0.00291702
C        4.91542541       4.31267330       3.31539492       0.00000000       0.01486991       0.00891425       0.00702867
P        3.57414059       6.44897323       2.35668967       0.00000000      -0.00146089      -0.01556514      -0.00683302
C        2.35823941       8.54295256       3.64578592       0.00000000      -0.00335286       0.00759044       0.00784262
C        9.77613360       0.02334599       3.79802756       0.00000000      -0.00491696       0.00002234      -0.00054629
C        8.55232653       2.16916931       3.80934592       0.00000000      -0.00189790      -0.00140605      -0.00332143
C        7.33579245       4.30890885       3.68370352       0.00000000      -0.00154587      -0.00406812      -0.00562259
C        6.11967840       6.46484020       3.46888064       0.00000000       0.00379622       0.00198634       0.00668315
C        4.84577540       8.58818003       3.54492340       0.00000000       0.00611621       0.00128276      -0.00167128
C       -0.08978037       1.48153967       3.88829473       0.00000000      -0.00836410      -0.00235405       0.00084742
C       -1.30698511       3.61383930       3.89417454       0.00000000       0.00330578      -0.00207888       0.00123078
C       -2.54141136       5.73037522       3.86900178       0.00000000       0.00202740       0.00085833       0.00362962
C       -3.78553608       7.88083421       3.81803976       0.00000000       0.00015869      -0.00178854       0.00270478
C       -5.02503823      10.02750344       3.82995639       0.00000000      -0.00586166       0.00156913      -0.01111242
C        2.34000482       1.50726648       3.83735730       0.00000000      -0.00168998       0.00019034      -0.00175524
O        1.08384517       3.58904660       3.92161385       0.00000000       0.00030335      -0.00009494       0.00183411
C       -0.09829108       5.72914800       3.89501184       0.00000000      -0.00023224       0.00455920      -0.00071996
C       -1.31783471       7.86413428       3.88583347       0.00000000       0.00129115       0.00094288      -0.00229853
C       -2.55982854      10.02580884       3.86698104       0.00000000       0.00853073      -0.00566484      -0.00202418
C        4.86286998       1.47088767       3.71855986       0.00000000      -0.00038720       0.00080645       0.00097654
S        3.57246609       3.55595926       2.49780479       0.00000000      -0.00554129      -0.00608073       0.00196841
C        1.11703157       7.83696546       3.75654215       0.00000000      -0.00344026      -0.00173948       0.00055140
C       -0.08069476      10.00005352       3.82554651       0.00000000       0.00471144       0.00406748       0.00006111
C        7.32267774       1.45168463       3.76912589       0.00000000      -0.00027670      -0.00013396      -0.00153818
C        6.12453230       3.57496621       3.55052295       0.00000000       0.00118925      -0.00575914       0.00364300
C        4.94931375       5.75300099       3.13335676       0.00000000       0.00106519       0.00880275       0.00141253
C        3.60412325       7.90731269       3.34122144       0.00000000       0.00114975       0.00408359       0.00075795
C        2.37168325       9.97505066       3.77869541       0.00000000      -0.00411012       0.00978792       0.00138585
C        9.78894086       1.45975188       3.84803490       0.00000000      -0.00504188      -0.00390238      -0.00235703
C        8.56139895       3.59445192       3.79829260       0.00000000      -0.00156995      -0.00199196      -0.00668549
C        7.33921200       5.73941084       3.67763473       0.00000000      -0.00109248      -0.00176251      -0.00446102
C        6.09329729       7.89096080       3.56600169       0.00000000       0.00699196      -0.00261291       0.00229490
C        4.84632126      10.00918836       3.74518554       0.00000000      -0.00549001       0.00028052       0.00119539
Pd       3.79549076       3.85003389       5.07727134       0.00000000      -0.00829961      -0.00507987       0.01693622
O        4.96051336       3.40270403       7.65743249       1.00000000       0.00236804       0.01188194      -0.00056475
O        5.35268678       3.39737909       6.44664903       1.00000000       0.00660395       0.00460183      -0.01795168
