50
Lattice="12.336457 0.0 0.0 -6.168228499999997 10.683685154694365 0.0 0.0 0.0 15.0" Properties=species:S:1:pos:R:3:forces:R:3 energy=-429.4834518316207 free_energy=-429.4834518316207 stress="0.00019923378505851575 0.0007589647291714755 -7.942670012195026e-07 0.0007589647291714755 0.002723457926797088 1.5428395699078608e-05 -7.942670012195026e-07 1.5428395699078608e-05 1.2406539661700479e-05" pbc="T T T"
C       -0.02730212      -0.03194310       3.88824801      -0.00738337      -0.00224693       0.00022284
C       -1.25630833       2.11563460       3.96761597       0.00360381      -0.00747079      -0.01096427
C       -2.46800958       4.24903007       3.89090924      -0.00137066       0.00677374      -0.00022670
C       -3.70646997       6.37887358       3.75906739      -0.00276882       0.00192061       0.00447418
C       -4.97399958       8.50838106       3.76177389       0.00450761       0.00208070       0.00824028
C        2.42668927      -0.01168769       3.85109126      -0.00624438      -0.00273056       0.00714301
C        1.17535257       2.12651836       3.87448413       0.00300632       0.00385472       0.01017841
C       -0.02403917       4.24325920       4.03658464      -0.00442756      -0.00238398      -0.01053761
C       -1.24322174       6.36959770       3.97626990       0.00370229       0.00335218      -0.00034953
C       -2.49450921       8.51265731       3.90187652      -0.00097149      -0.00224228      -0.00085713
C        4.90063069      -0.02771463       3.81749138       0.00389760      -0.00197151      -0.00311267
C        3.65922915       2.03647849       3.38039445      -0.00365514       0.00839407      -0.00226765
O        1.12773413       6.42275688       4.24522475      -0.00377048       0.00927187      -0.00046300
C       -0.03490411       8.50766742       3.99160366      -0.00363601      -0.00756589       0.00132525
C        7.36634584      -0.03318643       3.89094102       0.00118619      -0.00118664      -0.00360132
C        6.15445885       2.09388696       3.53383965      -0.00172033       0.01211945       0.00047840
C        5.08146405       4.23746436       2.95069022      -0.00318742      -0.00167198      -0.00018437
S        3.47986200       6.27502639       2.95316738      -0.00029890      -0.00202167       0.01416247
C        2.40787547       8.49285041       3.91843454       0.00292109       0.00183867       0.00132030
C        9.83917818      -0.03818202       3.92122441      -0.00305094       0.00115630       0.00889125
C        8.61480554       2.10639068       3.82628429       0.00304615      -0.00608576       0.00838687
C        7.42356008       4.23914260       3.55804053       0.00411642      -0.00503974      -0.00442895
C        6.19456169       6.38936306       3.38400426       0.00077649      -0.00240604       0.00433901
C        4.89678950       8.49594516       3.70271832      -0.00040660       0.00202360       0.00890943
C       -0.02131246       1.40905428       3.93867158       0.00582654      -0.00282744       0.00473447
C       -1.23626171       3.54318966       3.98598105      -0.00366846      -0.00467481      -0.01375152
C       -2.47224548       5.66191970       3.87969073       0.00092510       0.01056557       0.00060394
C       -3.72978183       7.80224038       3.81101056       0.00190915      -0.00062574      -0.00148358
C       -4.96973877       9.94223597       3.85712262      -0.00689043      -0.00075417       0.00679654
C        2.41593293       1.42184464       3.74377258      -0.00542799      -0.00138334      -0.01483570
O        1.15610861       3.50501329       4.01162882       0.00411015       0.01093965      -0.00390187
C       -0.03764578       5.65611604       4.05971650      -0.00083189      -0.00200241      -0.00661585
C       -1.26866333       7.79699137       3.96740787      -0.00257531      -0.00156484      -0.00205309
C       -2.50422815       9.95060367       3.86704251      -0.00111414      -0.00237591       0.00419920
C        4.90496442       1.39115814       3.58030426      -0.00076793       0.00836030      -0.00403440
S        3.59244349       3.48894567       2.45924478       0.00709188       0.00465583      -0.01084627
C        1.17223893       7.81719456       4.01842874      -0.00025048       0.00527106       0.00462144
C       -0.03211312       9.94379267       3.90788463       0.00387935      -0.01041818      -0.00393786
C        7.37170401       1.39596282       3.76234111      -0.00240006       0.00354853       0.00359484
C        6.21362197       3.50179236       3.33968198      -0.00037143       0.00698186       0.00032599
C        5.06421166       5.63274306       3.04620915       0.00047311      -0.00685718       0.00293477
C        3.64936271       7.82706051       3.67693614       0.00097279      -0.00267839       0.00326637
C        2.42647564       9.93246049       3.93533245       0.00171623       0.00169104       0.00021997
C        9.85144898       1.39922902       3.92820564       0.00402224      -0.00504987      -0.01177216
C        8.63501473       3.52987059       3.77049653       0.00389859      -0.00510257       0.00234250
C        7.41867989       5.66567115       3.55694745       0.00028390      -0.00580454       0.00229427
C        6.13809761       7.79532356       3.60264973       0.00521054       0.00536965       0.00477039
C        4.90357394       9.93125857       3.86345330      -0.00810897       0.00231008       0.00233169
Pd       2.92260710       5.79509387       5.32979739      -0.00673665      -0.00910874      -0.01217479
O        4.69377626       5.79420480       5.72257834       0.01095231      -0.00622757       0.00129223
