52
Lattice="12.336457 0.0 0.0 -6.168228499999997 10.683685154694365 0.0 0.0 0.0 15.0" Properties=species:S:1:pos:R:3:forces:R:3 energy=-438.8489251688369 free_energy=-438.8489251688369 stress="-0.003170180187215714 -0.0029066053380691057 0.00011600305809838592 -0.0029066053380691057 -0.0010853782960781012 5.851311955538477e-05 0.00011600305809838592 5.851311955538477e-05 1.3974345511699863e-05" pbc="T T T"
C       -0.05519686      -0.14330668       4.04027182      -0.01039166       0.00954577      -0.01694978
C       -1.31044535       1.99122215       4.25068076       0.01141540       0.02886507      -0.00324152
C       -2.54256059       4.14090675       4.04855406       0.01276505      -0.01039049      -0.00634119
C       -3.74243331       6.28502743       3.81802025       0.00561568       0.02269803       0.03062849
C       -4.97331960       8.42396128       3.80331777       0.01222450       0.01659971       0.00188437
C        2.42440854      -0.14201199       3.95735386      -0.00842756      -0.01567162       0.04169949
C        1.18254030       1.91176332       4.43140273       0.01147313      -0.01802945      -0.02163842
C       -0.12185122       4.17919127       4.36169251       0.04502826      -0.01004049       0.02119753
C       -1.29582060       6.28362715       3.86052902      -0.01043134      -0.00239796      -0.01205918
C       -2.50112176       8.42013775       3.80072919      -0.00856184      -0.03415311       0.01669076
C        4.89414446      -0.11476762       3.85152915      -0.07361545      -0.02049484      -0.00130131
C        3.62346965       2.03104125       3.90005362      -0.03749819       0.05616176      -0.05167237
P        1.15833501       6.09866838       2.86570009       0.01463102       0.02290161      -0.00142699
C       -0.03410264       8.41197569       3.68059453      -0.00489296       0.01903504       0.02414613
C        7.35645339      -0.12989877       3.82213010       0.02098431      -0.02089869       0.02178137
C        6.09926711       2.03313742       3.78941370      -0.00589178      -0.00981979       0.01903836
C        4.89878612       4.21741548       3.49145746       0.04809650      -0.00957879      -0.02353852
O        3.76601549       6.34228413       3.58700944      -0.01171767       0.02990902      -0.03986595
C        2.44926178       8.39608101       3.64805920       0.01022905      -0.01200358      -0.03367039
C        9.81479764      -0.14330968       3.93962343      -0.00605506       0.04795435       0.00633525
C        8.57201300       2.00617671       3.96367297       0.00148894       0.00420167       0.03116428
C        7.33864315       4.15474550       3.79102630       0.02240435       0.00801558      -0.01739846
C        6.14963094       6.31398626       3.58347778       0.00615553       0.00522154       0.02734950
C        4.90425671       8.42669735       3.69734035      -0.01943588      -0.02228150       0.05121203
C       -0.07341093       1.26552249       4.27179631       0.00653098       0.00750319      -0.00392704
C       -1.32227709       3.42297945       4.25641483       0.01993103      -0.00327606       0.02547333
C       -2.52456668       5.56747610       3.92889120      -0.00609237      -0.00187502       0.00980261
C       -3.73533282       7.71062606       3.80317442      -0.00327078       0.00508964      -0.01605206
C       -4.98322944       9.83892661       3.93953455      -0.00730071       0.01709283      -0.00919146
C        2.39830266       1.26375524       4.11297339       0.00699731      -0.01300538       0.00486835
P        1.24775998       3.47746389       5.21629999      -0.03717361      -0.01920214       0.00498074
C       -0.07770626       5.54204913       3.94199269      -0.00030156       0.00328503       0.02911535
C       -1.27340526       7.70076998       3.74259528      -0.00455154       0.00117324       0.01039610
C       -2.50489307       9.84373556       3.85563099      -0.05056576      -0.05192591      -0.01445292
C        4.88793141       1.31524956       3.85783380      -0.02435712      -0.00238621      -0.01111545
S        3.52847351       3.39471688       2.72184061       0.05281916      -0.05950114       0.00012714
C        1.19972165       7.71499702       3.53153204      -0.00563108       0.01660128      -0.02856014
C       -0.03971994       9.84560179       3.78161354      -0.02227674       0.00935952       0.01045388
C        7.34134109       1.30279291       3.86252280       0.01898036      -0.01998096      -0.01198479
C        6.10661308       3.45450917       3.68413786      -0.00212048       0.00603749       0.00326385
C        4.95535897       5.65175402       3.43781758       0.00364997       0.01277165       0.00609058
C        3.70730122       7.72122386       3.59515800      -0.00968776      -0.01747479      -0.00105881
C        2.42792277       9.82252846       3.81204105       0.02640401      -0.00846943      -0.01632965
C        9.80542011       1.28495041       4.06637263       0.01127500       0.04968119      -0.01283362
C        8.56891706       3.43221607       3.95088598       0.02064588      -0.00575872      -0.02011891
C        7.36563644       5.57754777       3.73627119       0.02406414       0.01260964      -0.02497920
C        6.14469319       7.73204929       3.67788439      -0.00020158       0.01826849       0.00514245
C        4.88497558       9.83994172       3.90015543      -0.02615822       0.01668659      -0.02718465
Pd       3.46610116       3.90139064       5.18291820       0.02310242      -0.00668619       0.01306930
O        4.55187359       5.45272891       6.10317529      -0.02826864      -0.03137102       0.02642760
O        3.66918863       6.54594092       6.32986316       0.07145515      -0.01974271       0.08753508
H        3.99862596       6.84337949       7.20902989      -0.08348979      -0.00085294      -0.10298115
