51
Lattice="12.336457 0.0 0.0 -6.168228499999997 10.683685154694365 0.0 0.0 0.0 15.0" Properties=species:S:1:pos:R:3:initial_magmoms:R:1:forces:R:3 energy=-434.6295777849045 free_energy=-434.6295777849045 stress="-0.0031357292912681076 -0.0020046624458446515 4.6451163119140204e-05 -0.0020046624458446515 -0.002396312303395636 4.7682501858172534e-05 4.6451163119140204e-05 4.7682501858172534e-05 9.929160529285967e-05" pbc="T T T"
C       -0.06400381      -0.08030803       3.89526960       0.00000000       0.02482712      -0.01694365      -0.01335157
C       -1.30873005       2.05192019       4.13119400       0.00000000      -0.02437394      -0.00661196       0.02540645
C       -2.54926883       4.19529516       4.02469750       0.00000000      -0.02777910      -0.01765417       0.01697122
C       -3.75705810       6.33587559       3.83162502       0.00000000       0.03994096       0.00446106       0.02855437
C       -4.98518344       8.47650312       3.75921411       0.00000000      -0.00936479      -0.02151603       0.04067626
C        2.41557148      -0.09655315       3.76863994       0.00000000      -0.02317920       0.01489669      -0.02342966
C        1.19525674       1.97969066       4.19191029       0.00000000      -0.02089446       0.03998519       0.04953798
C       -0.12507593       4.23902435       4.30387160       0.00000000      -0.04260555       0.01471592      -0.05212282
C       -1.30536834       6.33259752       3.78730171       0.00000000       0.00125620      -0.00539032       0.03186308
C       -2.51331080       8.46035315       3.68352947       0.00000000      -0.01726413      -0.00743329       0.01314560
C        4.88046660      -0.07833358       3.64676888       0.00000000       0.01022535      -0.01099067       0.01066629
C        3.62350601       2.04816252       3.58079460       0.00000000       0.02980437      -0.00479664       0.06486459
P        1.14431195       6.12785079       2.76809318       0.00000000      -0.01485820       0.01973199       0.00967350
C       -0.04560581       8.45631729       3.52556842       0.00000000       0.01503712       0.01392789       0.04321674
C        7.34460757      -0.08193979       3.67714634       0.00000000       0.03338162       0.04110563       0.02467385
C        6.09391330       2.07928477       3.68054584       0.00000000       0.02255565      -0.00072587      -0.01211776
C        4.89005714       4.27486019       3.51849104       0.00000000      -0.03283383      -0.05583088      -0.00887216
O        3.75461534       6.39846837       3.41735965       0.00000000       0.00175090       0.01102059      -0.01957487
C        2.44252599       8.45087454       3.49666106       0.00000000      -0.01069286       0.00058663       0.01316247
C        9.80278384      -0.07868630       3.80671999       0.00000000       0.03101399      -0.03611615       0.03573736
C        8.56264420       2.05925894       3.89493968       0.00000000       0.00483060      -0.01843991       0.02385849
C        7.32570498       4.20330035       3.83406204       0.00000000      -0.00554938       0.02017660      -0.01074014
C        6.12993395       6.36507697       3.71767621       0.00000000       0.01256567       0.02754794      -0.07842936
C        4.88765698       8.47866167       3.66091844       0.00000000      -0.00646809       0.01969399       0.02677257
C       -0.06820633       1.33285663       4.09158790       0.00000000      -0.01591995      -0.01077957       0.01465879
C       -1.32463626       3.47906948       4.19825020       0.00000000      -0.00773869       0.01608779      -0.03189636
C       -2.53461962       5.62088387       3.90526553       0.00000000       0.01251313      -0.01983671       0.00561584
C       -3.74900259       7.75834269       3.75357755       0.00000000      -0.01090626      -0.00672361       0.03160534
C       -4.99371237       9.89538958       3.81108003       0.00000000       0.00636011      -0.02396055      -0.02382865
C        2.40178325       1.31882548       3.84148388       0.00000000      -0.02313328       0.05152325       0.00914667
P        1.27851895       3.50783456       5.04805264       0.00000000       0.01157242      -0.03798794      -0.04201886
C       -0.08260692       5.59790136       3.87328189       0.00000000      -0.01133866      -0.00016414      -0.03294808
C       -1.28402249       7.74392177       3.62866163       0.00000000       0.00102109       0.00124722      -0.02107376
C       -2.51835303       9.88322880       3.67615127       0.00000000      -0.01384142      -0.00288747      -0.00117289
C        4.87564709       1.35504383       3.62770517       0.00000000       0.01353608      -0.00335736       0.04279342
S        3.56891539       3.52232242       2.60229589       0.00000000      -0.01893245      -0.00527734       0.00189138
C        1.19149102       7.76663403       3.37634051       0.00000000      -0.00119142      -0.01003641       0.02749004
C       -0.05279548       9.88948593       3.61216456       0.00000000       0.03365431       0.03666260      -0.00553120
C        7.33230449       1.35071037       3.76072892       0.00000000       0.01608321       0.02394786      -0.02201085
C        6.10069093       3.50151053       3.68608127       0.00000000       0.00237663      -0.01881630      -0.04392340
C        4.94869900       5.71124910       3.50687080       0.00000000      -0.00107112      -0.02569690      -0.04534010
C        3.69681571       7.77812369       3.50255085       0.00000000      -0.00505039       0.02964194       0.03786815
C        2.41782618       9.87957196       3.67004440       0.00000000       0.01829479       0.00841324      -0.02113810
C        9.80075369       1.34686173       3.95568030       0.00000000       0.00711004      -0.02852194      -0.00386808
C        8.56153253       3.48324874       3.93989138       0.00000000      -0.02243048      -0.01705574      -0.03421816
C        7.34944979       5.62709341       3.82499681       0.00000000       0.03734537       0.03609959      -0.02167667
C        6.12767028       7.78499914       3.72237772       0.00000000      -0.01630621       0.02003825      -0.03978709
C        4.87172211       9.90236668       3.78714107       0.00000000       0.03479308      -0.00950699       0.01247169
Pd       3.45876597       4.01646545       5.12582469       0.00000000      -0.00285965      -0.03000795       0.01633320
O        3.91141670       6.70329011       6.06546573       1.00000000      -0.03238075       0.03029249      -0.01397405
O        4.46741542       5.57378370       6.24694170       1.00000000      -0.00288555      -0.02873791      -0.03561074
