50
Lattice="12.336457 0.0 0.0 -6.168228499999997 10.683685154694365 0.0 0.0 0.0 15.0" Properties=species:S:1:pos:R:3:forces:R:3 energy=-431.4838275040929 free_energy=-431.4838275040929 stress="-0.003928797434905263 -0.0027193192807490724 9.266677922385612e-06 -0.0027193192807490724 -0.005856840141370542 4.70109080531277e-06 9.266677922385612e-06 4.70109080531277e-06 6.984953941702873e-06" pbc="T T T"
C       -0.00271479      -0.01700759       3.83799826       0.00350646       0.00504578       0.01229442
C       -1.23786855       2.14450867       3.97849243       0.00695479      -0.00268429      -0.00811490
C       -2.47360882       4.28083685       3.79451972       0.00104492       0.00204287      -0.00368994
C       -3.68741078       6.41424578       3.67273860      -0.00487804       0.00355517       0.00442817
C       -4.92379770       8.54275711       3.66710893       0.00342246       0.00604346       0.00022793
C        2.48006874      -0.05742039       3.76874296      -0.01035352       0.00006421       0.00173453
C        1.24904353       2.00752440       4.16262089      -0.00248877       0.00276357       0.00724429
C       -0.03698400       4.33875771       3.84384232       0.00164719       0.00166642      -0.00657150
C       -1.24361565       6.41925051       3.45818520      -0.00335825       0.00272334      -0.00908681
C       -2.44735984       8.53837832       3.54092867       0.00891306      -0.00367478       0.00130428
C        4.94427373       0.00370302       3.65926576      -0.00999402      -0.00639509       0.00184075
C        3.66549521       2.08860247       3.82862143      -0.00322157      -0.00194071      -0.00360059
P        1.31143561       6.31478278       2.49138875       0.00828268       0.01769849      -0.00394408
C        0.02155851       8.55775560       3.40832530       0.00231200      -0.00050006       0.00354430
C        7.40618104       0.01566419       3.68792237       0.00091817      -0.00614002       0.01074481
C        6.14861183       2.17568317       3.82664165       0.00704272       0.00923719      -0.00261545
C        4.95666294       4.39056027       4.17954244      -0.01681034       0.00425982      -0.00339095
O        3.80153178       6.49544516       3.90879024      -0.00389824      -0.00690721       0.01205986
C        2.50188020       8.54506596       3.54879935      -0.00725108      -0.01207383      -0.00897101
C        9.86663900       0.00828308       3.79377076       0.00286434      -0.00004686       0.01094835
C        8.62779634       2.15012947       3.85272018       0.00729299       0.00142929      -0.01007172
C        7.39386949       4.29436219       3.86771989       0.00376272      -0.00439767      -0.00781885
C        6.19667915       6.45288970       3.79835258       0.00730968      -0.00316705      -0.00367405
C        4.94634050       8.55623326       3.67802066      -0.00978150      -0.00478035       0.00947847
C       -0.00469116       1.40177279       4.01508721       0.00337134       0.00222683       0.00371383
C       -1.23581094       3.57288943       3.90666745       0.00182947      -0.00106661      -0.00391720
C       -2.46408664       5.70081955       3.64524046      -0.00689319       0.00421679      -0.00553698
C       -3.68275745       7.83358774       3.61222283       0.00601860       0.00402552       0.00745092
C       -4.93396970       9.95493034       3.74735239      -0.00312568       0.00505395       0.00317802
C        2.46230225       1.34504190       3.93451392      -0.00630241      -0.00003751       0.00050921
P        1.41019920       3.68696052       4.56515168      -0.00234580      -0.01191187      -0.00167746
C       -0.02444240       5.68624986       3.41942728       0.00426386       0.01176214       0.01186253
C       -1.21789112       7.83693163       3.41925267       0.00981521       0.00051244      -0.00440573
C       -2.44614336       9.95431371       3.63507173      -0.01122828      -0.00653157       0.00924545
C        4.92213780       1.44769329       3.76568718       0.00201130      -0.00085155      -0.00727410
S        3.36202356       3.78901213       3.45580958       0.00535705       0.00539643       0.00367771
C        1.26762411       7.87902234       3.27651061      -0.00752350      -0.00729558       0.00875315
C        0.01083387       9.98564122       3.58606225      -0.00490669      -0.00281809      -0.00178108
C        7.38935846       1.44607898       3.79171311       0.00651252       0.00093045       0.00397696
C        6.15663373       3.59533928       3.93209532      -0.00393343       0.01120556      -0.00843062
C        5.00301430       5.81733575       3.94074913       0.00239752      -0.00093219      -0.00766984
C        3.74880108       7.85597345       3.65478199      -0.01047037      -0.01240178      -0.00091402
C        2.47886792       9.97385779       3.69013857       0.00261661      -0.00987857      -0.00253151
C        9.86814912       1.43811167       3.88258870       0.00578889       0.00111211      -0.00240535
C        8.63293054       3.57127341       3.84648865       0.00563228      -0.00034958      -0.00827451
C        7.42028606       5.71096049       3.80032661       0.00436565      -0.00781351       0.00094337
C        6.18646223       7.86355689       3.69298299       0.00141791       0.00073123      -0.00606657
C        4.92922896       9.98025307       3.75696317       0.00368163       0.00310048       0.00620557
Pd       3.87367170       4.04289292       5.82104241       0.00245727       0.00937524      -0.00107066
O        1.67868223       4.07420042       6.02456756      -0.00404661      -0.00158243      -0.00186139
