52
Lattice="12.336457 0.0 0.0 -6.168228499999997 10.683685154694365 0.0 0.0 0.0 15.0" Properties=species:S:1:pos:R:3:forces:R:3 energy=-439.72085576594657 free_energy=-439.72085576594657 stress="0.000277111119107365 -0.00011615772885679002 2.1325210544511255e-05 -0.00011615772885679002 0.003384491523807217 1.2846108588760424e-05 2.1325210544511255e-05 1.2846108588760424e-05 -4.296716510908398e-06" pbc="T T T"
C        0.10825316       0.05021822       3.95864376       0.00735397       0.00009534      -0.00309737
C       -1.12762856       2.18322202       4.01436908      -0.00665810      -0.00321666       0.00036845
C       -2.35009242       4.31150845       4.02478937       0.00265565       0.00356982       0.00175078
C       -3.58338795       6.44903246       3.99400062       0.00059999       0.00051318       0.00264517
C       -4.82709771       8.59164843       3.92238071       0.00143580      -0.00311782       0.00661689
C        2.56582205       0.06718991       3.92386000       0.00276265       0.00064522       0.00225356
C        1.30678731       2.20781362       3.86740814       0.00261341       0.00098928       0.00328893
C        0.10296607       4.31044521       3.95491719      -0.00262312      -0.00350033      -0.00150416
C       -1.10945794       6.42857092       4.02281800      -0.00120266       0.00123987      -0.00636015
C       -2.35346279       8.57897454       4.00586974      -0.00193337       0.00036087       0.00658689
C        5.03966299       0.02919241       3.89407286      -0.00176475       0.00353553       0.00007560
C        3.80145614       2.11444973       3.46417582       0.00011960       0.00275951       0.00225311
O        1.28089753       6.45196175       3.95835860      -0.00270888      -0.00387890      -0.00528960
C        0.11372628       8.55236369       3.98130225       0.00255744       0.00199780      -0.00985923
C        7.50560835       0.01589280       3.94158012       0.00678777      -0.00108576      -0.00467258
C        6.28362331       2.15938973       3.73694568       0.00066998      -0.00148383      -0.00015938
C        5.12694693       4.29469502       3.42900669      -0.00664509       0.00109479      -0.00307751
S        3.81653714       6.47571290       2.54656561       0.00823402      -0.00538031       0.00348470
C        2.54993004       8.54274914       3.79585742      -0.00065464      -0.00027815       0.00157138
C        9.96839488       0.02509057       3.95393390       0.00438476      -0.00178376       0.00678060
C        8.74289857       2.16685659       3.96737860      -0.00326060      -0.00087682      -0.00021935
C        7.52259733       4.30279394       3.88634759       0.00153779       0.00254199      -0.00380375
C        6.32113550       6.46973147       3.73393010       0.00060965       0.00544941      -0.00652793
C        5.03651309       8.58712906       3.74337811      -0.00535418       0.00004271       0.00779894
C        0.11126196       1.48764788       3.97316584       0.00195642       0.00238523       0.00299444
C       -1.11343195       3.60929140       4.01668842      -0.00303755      -0.00245512      -0.00247786
C       -2.34956670       5.72687796       4.02895027       0.00065899       0.00257156      -0.00404855
C       -3.59287843       7.87332354       3.98510729       0.00120118      -0.00376535      -0.00586621
C       -4.83040352      10.02567721       3.95259836       0.00628837      -0.00405332       0.00108427
C        2.55111628       1.49950503       3.77639880       0.00378971      -0.00226966       0.00123403
O        1.28186960       3.58749461       3.94304682      -0.00295866      -0.00122252       0.00633897
C        0.10033463       5.72889613       3.96385889      -0.00281112      -0.00240717       0.00473259
C       -1.12559328       7.85598080       4.02026371      -0.00078577       0.00304154      -0.00724349
C       -2.36662652      10.01596392       3.94901040      -0.00113760       0.00162815      -0.00084813
C        5.03488206       1.45631646       3.71051957      -0.00090529       0.00057012      -0.01541588
S        3.77393653       3.59863418       2.57306849       0.00758344       0.00155262       0.00260164
C        1.30865986       7.83408919       3.89812627       0.00006545      -0.00299574      -0.00859022
C        0.10990745       9.99117480       3.94633819       0.00280773       0.00442994       0.00471826
C        7.50826105       1.44910606       3.89856891       0.00090440      -0.00308420      -0.00039564
C        6.33230173       3.56785777       3.67029626      -0.00036683      -0.00198556      -0.00424603
C        5.09711354       5.74462579       3.52306481      -0.00058180       0.00211595       0.00456297
C        3.80568583       7.93184984       3.47941757      -0.00471522      -0.00171112       0.00483183
C        2.56457356       9.97600667       3.92889954       0.00661766      -0.00010057      -0.00622100
C        9.98136504       1.46103589       4.00046154      -0.00535321      -0.00238857       0.00395868
C        8.75336432       3.58991665       3.97944793       0.00328568       0.00146337       0.00153590
C        7.51825001       5.73604273       3.90549684      -0.00162506       0.00463905       0.00710612
C        6.28279580       7.87815881       3.77791607      -0.00387915       0.00402737       0.00690230
C        5.03862890      10.01301817       3.91474680       0.00447372       0.00217064      -0.00266155
Pd       4.16381802       4.91920267       5.05081102      -0.00277386       0.00570391      -0.00317268
O        2.70186880       3.90974490       6.10687180      -0.01115617       0.00237446       0.00187587
O        1.64843527       4.83334753       6.30296537      -0.02962378       0.00831585       0.00030121
H        1.20999964       4.44462266       7.08888567       0.02256125      -0.01878385       0.00550419
