50
Lattice="12.336457 0.0 0.0 -6.168228499999997 10.683685154694365 0.0 0.0 0.0 15.0" Properties=species:S:1:pos:R:3:forces:R:3 energy=-429.0827584039642 free_energy=-429.0827584039642 stress="-0.007523360171236712 0.007234863400959172 -1.0113449308054824e-05 0.007234863400959172 -0.0016610363070955756 8.543267835501303e-06 -1.0113449308054824e-05 8.543267835501303e-06 -9.155066684585179e-06" pbc="T T T"
C       -0.01530604      -0.01937908       3.73430783       0.00707856      -0.00500750      -0.00410593
C       -1.22133832       2.13636989       3.69335893       0.00318974      -0.00373510      -0.00738838
C       -2.48647609       4.26771659       3.80706542      -0.00385350      -0.00022302      -0.00129149
C       -3.75364539       6.39242220       3.85678647      -0.01042489       0.00001891       0.00286517
C       -4.99555600       8.51356702       3.77872643      -0.00010438      -0.00687623      -0.00212623
C        2.44809606      -0.00728703       3.86383082      -0.00288827       0.00582442       0.00798049
C        1.26358500       2.10453517       3.62153453       0.00437417       0.01162298      -0.00400413
C       -0.11235140       4.38091256       3.52353511      -0.00178508       0.00175651       0.00134236
C       -1.32901091       6.44271780       3.80799116      -0.00573341      -0.00529958       0.00203699
C       -2.52321530       8.53987663       3.90718401      -0.00466916       0.00319938      -0.00737824
C        4.91815847      -0.03280027       3.92362361       0.00448345       0.00151366       0.00432215
C        3.75782042       2.08237371       3.84941453      -0.00356181      -0.00608735      -0.00449244
O        1.06508219       6.43945563       3.83489076       0.00660826       0.00501036       0.00849294
C       -0.04423063       8.52218223       3.85822450       0.00498932       0.00305246       0.00062762
C        7.40215530      -0.05240615       3.89523094       0.00507951      -0.00189375      -0.00540874
C        6.20524616       2.07214745       3.89861323       0.00144589      -0.00274990       0.00265295
C        5.03585924       4.16280567       3.65019809      -0.00154053      -0.00384809      -0.00674392
S        3.54441991       6.20620079       2.83971949      -0.01145885       0.00430924      -0.00730107
C        2.41025159       8.48313494       3.68390802      -0.00388071       0.00222773      -0.00517244
C        9.86198501      -0.03791438       3.76872241      -0.00723153      -0.00221257       0.00544511
C        8.65620988       2.10041796       3.85977173      -0.00684765       0.00371197       0.00338539
C        7.41873612       4.23517563       3.84116999       0.00118022       0.00559362       0.00448072
C        6.14092609       6.34676363       3.63266225       0.00954049       0.00599494       0.00047508
C        4.88557471       8.49393455       3.58986129      -0.00010439       0.00031108       0.00012598
C        0.01476299       1.42868954       3.67785004       0.00920245       0.00270528      -0.00151691
C       -1.25356923       3.57031828       3.67220677       0.00031850      -0.00131619      -0.00154617
C       -2.52722075       5.68583529       3.84256515      -0.01355444      -0.00216856      -0.00400173
C       -3.76012858       7.81733665       3.85854204      -0.00448470      -0.00349028      -0.00003766
C       -4.96412785       9.95340153       3.79473005       0.00342049      -0.00874361       0.00624084
C        2.49366337       1.42825049       3.81034253      -0.00093623       0.00402674      -0.00208230
S        1.41599177       3.75623622       3.11369836       0.00566271      -0.01206301       0.00402706
C       -0.14464148       5.76339925       3.65150455       0.00375808       0.00179142       0.00487180
C       -1.30394677       7.84748726       3.88088134      -0.00063060       0.00015445      -0.00148038
C       -2.49968792       9.96503146       3.91607263      -0.00228274       0.00755344      -0.00250943
C        4.95297318       1.38789122       3.89947448       0.00145516      -0.00127222       0.01035723
O        3.85615146       3.46713641       3.94075755      -0.01053583      -0.00506747       0.00021820
C        1.14776436       7.83119070       3.74847359       0.00178829      -0.00011812       0.00099551
C       -0.01344253       9.94273036       3.90737074       0.00748966       0.00342849      -0.00130678
C        7.42307179       1.37632669       3.90671321      -0.00042109      -0.00446642      -0.00630056
C        6.21969316       3.48246826       3.81543187       0.00276007      -0.00052115      -0.00089317
C        4.99692281       5.54094093       3.45315986       0.01634186       0.00204374      -0.00540825
C        3.64435875       7.82226288       3.44720994      -0.00491156       0.00593252       0.00093357
C        2.45235514       9.91528836       3.80474352      -0.00223931      -0.00521525       0.00330442
C        9.89023646       1.40153744       3.78776507      -0.00918935       0.00058338      -0.00892795
C        8.64425809       3.52651896       3.85899535      -0.00170662       0.00497093       0.01032022
C        7.37343537       5.65394914       3.79864257      -0.00052314       0.00228024       0.00403795
C        6.11609304       7.78021604       3.64245858       0.00191463       0.00285399      -0.00488415
C        4.91487828       9.93764529       3.70412900      -0.00165592      -0.00033439      -0.00083489
Pd       2.39595137       4.89087466       4.96541095       0.00910670      -0.00419243       0.00856814
O        3.31606666       6.21946630       5.78017069       0.00596747      -0.00556969      -0.00096457
