50
Lattice="12.336457 0.0 0.0 -6.168228499999997 10.683685154694365 0.0 0.0 0.0 15.0" Properties=species:S:1:pos:R:3:forces:R:3 energy=-429.3408261249536 free_energy=-429.3408261249536 stress="-0.001037135050414729 0.0015258295981044772 -3.1198152767087312e-06 0.0015258295981044772 0.0018837062465798093 2.240854892446244e-06 -3.1198152767087312e-06 2.240854892446244e-06 3.849054046311001e-06" pbc="T T T"
C        0.03354292       0.02304461       3.74817451      -0.00057416      -0.00089637       0.00416855
C       -1.20199807       2.14265851       3.77219069      -0.00682895      -0.00765746      -0.01405721
C       -2.43626528       4.27947471       3.87080828      -0.00301801      -0.00023041      -0.00025859
C       -3.67947513       6.42073091       3.92149858      -0.01123769      -0.00013691      -0.00148718
C       -4.92857792       8.55639308       3.82147541       0.00327634       0.00073367       0.01184754
C        2.48390724       0.07368095       3.80416279      -0.00092973      -0.00214393       0.00057421
C        1.23494640       2.18904726       3.65124765      -0.01163343      -0.00065182       0.00297112
C       -0.01674612       4.22990780       3.47534428       0.00156772      -0.00932268      -0.00007458
C       -1.22438110       6.41599560       3.68299492       0.00764492       0.01000327       0.00036682
C       -2.46220998       8.56629471       3.82546324       0.00385509       0.00054690       0.00038555
C        4.93843703       0.01822781       3.88646226       0.01135984      -0.00618071      -0.00792427
C        3.75698723       2.16937236       3.85860400       0.00126463      -0.00021781      -0.00023073
S        1.04118521       6.54133642       2.26849587      -0.00503211      -0.00439421       0.01578037
C       -0.00999296       8.55808398       3.72060429       0.00749720       0.00068092       0.00837319
C        7.42137051       0.00498731       3.85879212      -0.00130658       0.00480776      -0.00742436
C        6.20359179       2.12143693       4.03604284       0.00989346       0.00276706       0.00394964
C        5.01627545       4.19860284       3.99041433       0.00734055       0.00603225       0.00597815
S        3.52407858       6.19355247       3.33164123       0.00178728       0.00308462      -0.00458345
C        2.49681900       8.59455592       3.53549955      -0.01381605       0.00665666      -0.00855263
C        9.90400403       0.01170250       3.75936134      -0.00163447       0.00104686      -0.00404233
C        8.67020743       2.13771238       3.94150815       0.00011279       0.00351850       0.00246890
C        7.44432261       4.27417308       4.05491207      -0.00672555       0.00209187       0.01387964
C        6.18394182       6.39232225       3.91196071       0.00120723       0.00035971      -0.01505511
C        4.95665900       8.54671141       3.66146203       0.00253501      -0.00600245      -0.00390412
C        0.04068530       1.45727434       3.72635687      -0.00789687      -0.00215307      -0.00560054
C       -1.20342590       3.56200057       3.72359369      -0.00085654      -0.00932849       0.00009016
C       -2.44067338       5.70354164       3.84863056      -0.00000948       0.00843857       0.00317203
C       -3.69070438       7.84717899       3.86475977       0.00005812      -0.00047491      -0.01204960
C       -4.90757150      10.00369483       3.78131830      -0.00119519      -0.00092314       0.00267175
C        2.49482518       1.52221823       3.76971526      -0.00736890      -0.00020894      -0.00926651
O        1.18469470       3.55356214       3.43053918       0.00270093      -0.00168514      -0.00284980
C       -0.01104773       5.66762283       3.40975607       0.00875357      -0.00784396       0.00623446
C       -1.22154713       7.83832590       3.73848308       0.00719512       0.00995546       0.00013665
C       -2.46453276      10.00777894       3.83986102       0.00544466      -0.00217528       0.00215292
C        4.94833953       1.44571418       3.95167571       0.00846939      -0.00039833      -0.00561052
O        3.80033923       3.54808084       3.81994238       0.00854401       0.00258010       0.00136107
C        1.24224722       7.82617076       3.56084843      -0.00932327      -0.00452520       0.00788865
C        0.01061385       9.97713934       3.84043047       0.00946939      -0.00602438       0.00609834
C        7.42975460       1.42242587       3.96865944       0.00611995       0.00294348       0.00219265
C        6.22065409       3.53260916       4.09541543       0.00350386       0.00148478       0.00362636
C        5.01447479       5.59937741       3.89000517       0.00458612       0.00479485      -0.01353092
C        3.70264920       7.90224582       3.50238428      -0.01078932       0.00711529      -0.00901363
C        2.48970978       9.99445792       3.72502002      -0.00758987       0.00742394      -0.00438478
C        9.90854393       1.43508400       3.83696390      -0.00307430      -0.00127545       0.01242684
C        8.67623455       3.56234835       3.98145277      -0.00611644       0.00324743       0.00527978
C        7.43248746       5.69435572       3.99538682      -0.01058453      -0.00196305      -0.00287657
C        6.17742167       7.82488620       3.78730959       0.00677053      -0.00126219       0.00211888
C        4.96453034       9.98681263       3.71621055       0.00191928      -0.00373866      -0.00129292
Pd       1.42176861       6.40819686       5.05243396      -0.00179451       0.00339348       0.00969537
O        1.77233536       4.67977700       5.65138314      -0.00354106      -0.01189247      -0.00181923
