52
Lattice="12.336457 0.0 0.0 -6.168228499999997 10.683685154694365 0.0 0.0 0.0 15.0" Properties=species:S:1:pos:R:3:forces:R:3 energy=-438.95599302672764 free_energy=-438.95599302672764 stress="-0.003098236280434851 0.0012526201928655147 1.2959297574895856e-05 0.0012526201928655147 -0.0034709832719913214 -2.7744143493451717e-05 1.2959297574895856e-05 -2.7744143493451717e-05 1.7288112909619264e-05" pbc="T T T"
C        0.05017180      -0.09020638       3.87607746       0.00723306      -0.00008675      -0.00571404
C       -1.15901870       2.05944586       3.79448809      -0.00012065      -0.00654164       0.00041561
C       -2.37566282       4.18984961       3.75772124       0.00338143      -0.00754271      -0.00650368
C       -3.62205976       6.32483455       3.74518226      -0.00597405      -0.00420455      -0.00526000
C       -4.88698648       8.45015927       3.75880623      -0.00113302       0.00480313       0.00174988
C        2.51677125      -0.12980939       4.08413789       0.00316231       0.00552989      -0.00763040
C        1.28974485       2.04455651       4.13916186      -0.01025671      -0.00880132       0.00739542
C        0.09786990       4.25065738       3.77271874       0.01179246       0.00002652       0.00968881
C       -1.16118525       6.34378482       3.79147299      -0.00049568      -0.00170033       0.00197116
C       -2.40365423       8.45283114       3.91921052       0.00267431      -0.00000117      -0.00933765
C        4.99902502      -0.09529674       4.06349151       0.00268946       0.00257310      -0.01682218
C        3.74668472       1.97710679       4.23072338       0.00504310      -0.00108208       0.00873107
O        1.20871437       6.39300137       3.86684518      -0.00248499      -0.00182100       0.01801025
C        0.05954214       8.46259783       3.87194503       0.00338709       0.00467576       0.00253792
C        7.46314029      -0.08721192       3.91821315       0.00048521      -0.00021909       0.00190431
C        6.23587746       2.05652148       3.98907052       0.00937742       0.00568911      -0.01371877
C        5.05957795       4.23335717       3.64324612      -0.01595462      -0.00587757       0.00262820
S        3.72658611       6.30644163       2.48347442       0.00328725      -0.01869228       0.00494429
C        2.50050361       8.44768905       3.64702592      -0.00118499       0.00051659       0.00184737
C        9.92274535      -0.08963055       3.78523829       0.00079930       0.00314723      -0.00097263
C        8.70403386       2.05048844       3.83929972      -0.00424555       0.01161744      -0.00029908
C        7.49240939       4.18510376       3.74148008      -0.01491217       0.00441536      -0.00960153
C        6.27478031       6.33673832       3.43431093       0.00055691      -0.00493278      -0.00144597
C        4.98427872       8.46308190       3.53107684       0.00300203       0.00246823      -0.00189131
C        0.03513650       1.32611371       3.91639263      -0.00238995      -0.00669217       0.00506413
C       -1.14705162       3.48482303       3.73604063       0.00966912      -0.00961859      -0.00001550
C       -2.39279941       5.61261856       3.77742869      -0.00333098      -0.00577957       0.00783942
C       -3.64183422       7.74426531       3.81004501      -0.00240904       0.00070460      -0.01748574
C       -4.88986620       9.86105032       3.92031392       0.00512436       0.00732477       0.00349159
C        2.53726043       1.26476999       4.19190225      -0.00228050       0.00643164      -0.00049681
P        1.56130009       3.43740959       3.03689963       0.01009747       0.00094170      -0.00233759
C        0.04710812       5.68936811       3.74458706      -0.00073619      -0.00292489      -0.00321646
C       -1.17605272       7.75954442       3.86964481       0.00660268       0.00047794       0.00600150
C       -2.40176241       9.86732685       4.03995287       0.00145307       0.00142179      -0.00590168
C        5.00608147       1.33214173       4.11840323       0.01092869       0.00290773      -0.01159962
P        3.53167956       3.70007148       4.34353363      -0.01665075       0.00128905       0.00296031
C        1.25172192       7.76583898       3.75184536      -0.00142796       0.00041548       0.00551138
C        0.06560109       9.88929397       3.95835460       0.00124412       0.00393969      -0.00129068
C        7.46414362       1.34478965       3.92843138       0.00487581       0.00259769       0.00024475
C        6.25366958       3.47742157       3.81437573      -0.01060796       0.00556395      -0.00355857
C        5.10856534       5.58666039       3.22948034       0.00365867      -0.00957986      -0.00021266
C        3.74138458       7.81493080       3.32157111       0.00090451       0.00085049       0.00509905
C        2.51617825       9.87255511       3.79876329      -0.00080788       0.00078142       0.01068187
C        9.93100671       1.33941031       3.80686872      -0.00437514       0.00400587       0.00766872
C        8.71870895       3.47286353       3.78872394      -0.00997564       0.01057810       0.00382621
C        7.49447491       5.60957984       3.64242565      -0.00629389      -0.00186178       0.00301775
C        6.22991666       7.75231314       3.52797809       0.00204706      -0.00206082       0.00239068
C        4.98400066       9.88319827       3.74174362       0.00662065       0.00248446       0.00996969
Pd       1.13068809       3.57103347       5.44934779      -0.00463574       0.00459492      -0.00648107
O        0.81940458       5.33745983       6.56400988       0.01077257      -0.01109191      -0.00359959
O        0.40082571       4.90801638       7.88197327      -0.00789304      -0.00076510      -0.00143033
H        0.92821273       5.50854479       8.45050050      -0.00029306       0.00910431       0.00123219
