51
Lattice="12.336457 0.0 0.0 -6.168228499999997 10.683685154694365 0.0 0.0 0.0 15.0" Properties=species:S:1:pos:R:3:initial_magmoms:R:1:forces:R:3 energy=-433.3696688267136 free_energy=-433.3696688267136 stress="-0.003932678896213006 -0.0005312084977220951 -2.8006688142382872e-05 -0.0005312084977220951 -0.008508527959006997 -1.5103979186757333e-06 -2.8006688142382872e-05 -1.5103979186757333e-06 1.0585905953297821e-05" pbc="T T T"
C       -0.03575986      -0.00936404       3.60926590       0.00000000       0.00267867      -0.00713300       0.00681935
C       -1.26543540       2.13856284       3.70132565       0.00000000       0.00213658      -0.00862677       0.00081222
C       -2.49951362       4.27509999       3.61416210       0.00000000      -0.00921438       0.00514218      -0.00108355
C       -3.72700520       6.40802647       3.54616572       0.00000000       0.00179683       0.00826631      -0.00474574
C       -4.97521789       8.53074431       3.59132428       0.00000000      -0.00313418       0.00150010       0.00998094
C        2.43300060      -0.04326187       3.48689192       0.00000000      -0.00405952       0.00845028       0.00512863
C        1.23006587       2.06883687       3.82862175       0.00000000      -0.00002627       0.00480707      -0.00130947
C       -0.12023768       4.26787841       4.22374893       0.00000000       0.00423268       0.00772690      -0.00384874
C       -1.29607237       6.42461328       3.89274907       0.00000000      -0.00092362      -0.00334850       0.00811751
C       -2.49633753       8.53641979       3.60669996       0.00000000       0.00283488      -0.01452864      -0.00521223
C        4.89767469      -0.00473348       3.40189099       0.00000000      -0.00167484      -0.00409937       0.00186241
C        3.63380550       2.05417328       3.16215984       0.00000000       0.00375121       0.00553807       0.00349163
P        1.14480877       6.49097246       5.05806908       0.00000000      -0.00446349       0.01033325       0.00254801
C       -0.05427696       8.59590169       3.86954782       0.00000000       0.00288642      -0.00113021      -0.00032435
C        7.35989587       0.02757617       3.50521971       0.00000000       0.00869758      -0.00631159      -0.00029426
C        6.13004369       2.13736931       3.16857928       0.00000000      -0.00401617       0.00300331      -0.00939073
C        4.96409341       4.30690850       3.07727705       0.00000000      -0.00328181       0.00586270      -0.00837536
P        3.63518535       6.25123217       4.41312054       0.00000000      -0.00559330       0.00752704       0.00086504
C        2.42353817       8.64468362       4.00067710       0.00000000       0.00032715      -0.00243563       0.00173121
C        9.83716126       0.02294603       3.59460163       0.00000000      -0.00384715       0.00409873       0.00727524
C        8.60712293       2.14779454       3.40208983       0.00000000      -0.01345077      -0.00457030       0.00000260
C        7.38655149       4.27895796       3.30791243       0.00000000       0.00090885      -0.00502438      -0.00176313
C        6.15733609       6.41508191       3.54423266       0.00000000       0.01553143      -0.00796823      -0.00568609
C        4.90431157       8.56086600       3.78487197       0.00000000       0.00088086       0.01039193       0.00086669
C       -0.03030844       1.41522694       3.71428143       0.00000000       0.00663815      -0.01231828      -0.00102772
C       -1.28601166       3.55198448       3.82406836       0.00000000      -0.00208085       0.00072357       0.00407118
C       -2.50224518       5.70098016       3.65583604       0.00000000      -0.00378910       0.00786027      -0.00597721
C       -3.73369670       7.82740226       3.57637143       0.00000000      -0.00397944       0.00282037      -0.00095043
C       -4.97542685       9.94754373       3.57034716       0.00000000      -0.00027515      -0.00033293       0.00233034
C        2.43306444       1.37075334       3.48890406       0.00000000       0.00125946       0.01276443       0.00559493
P        1.28013959       3.46373973       4.88049494       0.00000000       0.00772108      -0.00030804       0.00010124
C       -0.14028692       5.67737072       4.23808152       0.00000000       0.00115562       0.00722362       0.00265435
C       -1.27277171       7.84658858       3.80696518       0.00000000       0.00621790      -0.01134161       0.00105230
C       -2.49616981       9.95215617       3.47899702       0.00000000      -0.00599870      -0.00861257       0.00453390
C        4.89165821       1.41881675       3.20432959       0.00000000      -0.00006325       0.00214682       0.00389017
S        3.42643265       3.67931952       2.62441784       0.00000000      -0.00504062      -0.00868142      -0.00009068
C        1.18204413       7.99020104       4.20925379       0.00000000      -0.00131976       0.00129015      -0.00080239
C       -0.04228983       9.99338526       3.56773139       0.00000000       0.00589235      -0.00051160      -0.00305719
C        7.36215540       1.44069325       3.32420612       0.00000000      -0.00839944      -0.00539374       0.00358165
C        6.15136477       3.55816989       3.12944961       0.00000000      -0.00301510       0.00445570      -0.00099625
C        4.94764102       5.66489283       3.46902043       0.00000000       0.00245463       0.00503927      -0.00502834
C        3.65911427       7.93252307       4.06202983       0.00000000       0.00123285       0.00552241      -0.01035003
C        2.42662995      10.02270221       3.66939249       0.00000000       0.00531390      -0.00484103       0.00991682
C        9.84160165       1.44040105       3.53679265       0.00000000      -0.00917577       0.00024943       0.00086280
C        8.61507356       3.56894455       3.41067662       0.00000000      -0.00761214      -0.00472248       0.00174073
C        7.38319090       5.69921345       3.43984748       0.00000000       0.01507344      -0.00551732      -0.01024820
C        6.12817362       7.82865625       3.67247368       0.00000000       0.00117972      -0.00182265      -0.00539237
C        4.90043989       9.98076264       3.65165923       0.00000000      -0.00307459       0.00910932       0.00488730
Pd       2.60603549       5.29646525       6.10112111       0.00000000      -0.00007870      -0.01545082      -0.01082491
O        3.45042789       5.01874282       8.91887477       1.00000000       0.00992863      -0.00584970      -0.01104097
O        3.44828511       4.24352247       7.90234849       1.00000000      -0.00314275       0.00902755       0.01310114
