52
Lattice="12.336457 0.0 0.0 -6.168228499999997 10.683685154694365 0.0 0.0 0.0 15.0" Properties=species:S:1:pos:R:3:initial_magmoms:R:1:forces:R:3 energy=-455.4572979453576 free_energy=-455.4572979453576 stress="-0.0018792199407453069 0.0023497969029831357 -3.276267013638273e-06 0.0023497969029831357 -0.0030005844536416413 7.072756018435285e-06 -3.276267013638273e-06 7.072756018435285e-06 -0.0001174680134178251" pbc="T T T"
C       -0.01787453       0.07150094       3.63781849       0.00000000       0.00162294      -0.00240346       0.00028059
C       -1.23842497       2.21627587       3.77962082       0.00000000      -0.00010582      -0.00144427      -0.00318381
C       -2.45938815       4.34220293       3.76931103       0.00000000       0.00006586      -0.00118189       0.00071606
C       -3.71023355       6.47289442       3.63772289       0.00000000       0.00122355      -0.00046808      -0.00017232
C       -4.96762312       8.60560348       3.53730550       0.00000000      -0.00133394       0.00177398      -0.00063655
C        2.44352462       0.07001893       3.65157523       0.00000000      -0.00176429       0.00142342      -0.00690715
C        1.20989711       2.20102862       3.95881332       0.00000000      -0.00045016       0.00006635       0.00061614
C        0.01919777       4.34184177       4.12219107       0.00000000      -0.00052641       0.00193495       0.00005064
C       -1.25024136       6.48220478       3.84173543       0.00000000       0.00008447      -0.00023170      -0.00185105
C       -2.49518263       8.61389459       3.62443037       0.00000000      -0.00076203      -0.00359330      -0.00146133
C        4.91482684       0.06445931       3.57595843       0.00000000      -0.00413207      -0.00103589      -0.00240992
C        3.69863260       2.19647785       3.75399469       0.00000000       0.00223567      -0.00011823      -0.00187501
B        2.55692310       4.03534788       4.88116213       0.00000000      -0.00158664      -0.00552322       0.00064956
C        1.13709467       6.60628132       4.36995018       0.00000000      -0.00074561      -0.00100194      -0.00337516
C       -0.03370649       8.62552421       3.69419802       0.00000000       0.00055117       0.00164423       0.00198795
C        7.38317477       0.07448960       3.59467136       0.00000000      -0.00097814       0.00173688      -0.00293680
C        6.16773635       2.18989280       3.60573312       0.00000000       0.00075363       0.00284397       0.00111894
C        4.93031729       4.30050557       3.69468195       0.00000000      -0.00116881      -0.00216786       0.00138812
S        3.52366755       6.34244572       2.77611969       0.00000000      -0.00091366       0.00521604      -0.00475770
C        2.43492440       8.63293985       3.62115620       0.00000000      -0.00147514      -0.00140187       0.00041981
C        9.85913419       0.07951371       3.59896783       0.00000000       0.00159493      -0.00029851      -0.00132285
C        8.63478417       2.20736307       3.64828089       0.00000000      -0.00192333       0.00209407      -0.00283270
C        7.40761668       4.33275715       3.63231966       0.00000000       0.00064872       0.00099859      -0.00257550
C        6.15296430       6.46490883       3.48854244       0.00000000       0.00364456      -0.00001238       0.00138323
C        4.90993238       8.61505111       3.43964628       0.00000000       0.00030149       0.00146031      -0.00358693
C       -0.01788972       1.49147002       3.78298385       0.00000000      -0.00038444      -0.00269616      -0.00133713
C       -1.22792898       3.63718000       3.88254348       0.00000000       0.00069910      -0.00098118       0.00345024
C       -2.47524569       5.76485175       3.74842555       0.00000000      -0.00014425      -0.00166944       0.00352533
C       -3.72586351       7.89654904       3.59479550       0.00000000      -0.00201157      -0.00051966       0.00544839
C       -4.95983521      10.03613935       3.60327845       0.00000000       0.00054558       0.00030341       0.00219459
C        2.44914186       1.48346896       3.80520314       0.00000000       0.00144133       0.00152160      -0.00076211
C        1.18515874       3.57633917       4.27791086       0.00000000       0.00014319       0.00153557       0.00041977
C       -0.02649349       5.79033519       4.10744924       0.00000000      -0.00007925       0.00186987      -0.00288224
C       -1.26426444       7.90534187       3.72218310       0.00000000       0.00240313      -0.00095511       0.00003689
C       -2.49106324      10.03782417       3.59958285       0.00000000      -0.00442305      -0.00293265       0.00117926
C        4.93085819       1.48017493       3.59619702       0.00000000       0.00294697       0.00045663       0.00515051
C        3.75113790       3.57857887       3.95141927       0.00000000      -0.00469102       0.00079702      -0.00057407
C        1.19410460       7.93102662       3.83324115       0.00000000       0.00058481      -0.00154597      -0.00010125
C       -0.02052743      10.04586388       3.58951272       0.00000000      -0.00205067       0.00194557      -0.00031986
C        7.39988230       1.49060247       3.60095281       0.00000000      -0.00100782       0.00316139       0.00073166
C        6.17926054       3.60930884       3.63833718       0.00000000       0.00183116       0.00043237       0.00499376
C        4.96409900       5.70429175       3.44746502       0.00000000       0.00589953      -0.00426635      -0.00078076
C        3.65225000       7.95550030       3.37095170       0.00000000      -0.00040294       0.00066554       0.00232451
C        2.45018355      10.05594202       3.59819646       0.00000000      -0.00031048      -0.00030203       0.00053847
C        9.86541623       1.50206075       3.66746620       0.00000000      -0.00249752       0.00062627       0.00357040
C        8.64360592       3.62807558       3.67803804       0.00000000      -0.00129202       0.00098123      -0.00304355
C        7.39863736       5.75594573       3.59839934       0.00000000       0.00404065      -0.00073990      -0.00113068
C        6.13609141       7.89079729       3.45546637       0.00000000      -0.00027925       0.00150372      -0.00105719
C        4.91664085      10.04608409       3.55940048       0.00000000       0.00205034       0.00006271       0.00446339
Pt       2.40687367       5.99678669       5.62781469       0.00000000      -0.00444659       0.00507281      -0.20993607
O        2.98683196       3.67325023       6.30681046       1.00000000       0.00113700      -0.00117755      -0.00386825
O        3.69886741       4.89448371       6.64749961       1.00000000       0.00543718      -0.00345992       0.21903970
