51
Lattice="12.336457 0.0 0.0 -6.168228499999997 10.683685154694365 0.0 0.0 0.0 15.0" Properties=species:S:1:pos:R:3:forces:R:3 energy=-451.01384856511226 free_energy=-451.01384856511226 stress="-0.005524883825855481 8.558805820780745e-07 1.7600209954098912e-06 8.558805820780745e-07 -0.00553390887491324 -2.4114593204896913e-06 1.7600209954098912e-06 -2.4114593204896913e-06 -7.146350932162082e-05" pbc="T T T"
C       -0.00182039      -0.00169493       3.55669291      -0.00275760       0.00159559      -0.00117479
C       -1.23985885       2.13075803       3.55040337      -0.00015700      -0.00168455      -0.00840827
C       -2.47406410       4.26864828       3.55001240      -0.00427473      -0.00205104      -0.00726210
C       -3.70203369       6.40693276       3.55655027       0.00106102      -0.00307060      -0.00184258
C       -4.93620621       8.54433879       3.58060246       0.00160551       0.00177868       0.00186717
C        2.46653781      -0.00152078       3.57954020      -0.00215030      -0.00005362       0.00224955
C        1.22299912       2.12290669       3.73903495      -0.00111561      -0.00624600       0.00427512
C       -0.03138527       4.25370439       3.86204372      -0.00908706      -0.00429636       0.01084664
C       -1.24974853       6.40545410       3.73856172      -0.00290289       0.00017245       0.00506876
C       -2.46760660       8.54448472       3.57936082      -0.00119490      -0.00028148       0.00294458
C        4.93486222      -0.00154152       3.55736061       0.00025027       0.00022892      -0.00142305
C        3.70992163       2.12271151       3.74107109       0.00134964      -0.00240134       0.00317553
B        2.46589667       4.18353070       4.41323751       0.00029661       0.00066198       0.00052480
B        1.15673385       6.45125618       4.41209097       0.00321022      -0.00131137       0.00668827
C       -0.00627894       8.55908938       3.74080274      -0.00039157       0.00293945       0.00372355
C        7.40051128       0.00423193       3.55360842      -0.00045762       0.00428353      -0.00879729
C        6.17291310       2.13081120       3.55334777      -0.00135274      -0.00143685      -0.00827499
C        4.96396552       4.25377102       3.86646205       0.01356179      -0.00858434       0.00852930
B        3.77572371       6.45170073       4.41532499      -0.00002130       0.00023129       0.00332137
C        2.46641508       8.57987495       3.86650094      -0.00151577       0.01173764       0.00944309
C        9.86882621       0.00432499       3.55318653       0.00259959       0.00035153      -0.00846970
C        8.63475018       2.13453391       3.46903758      -0.00157312      -0.00034097       0.00252588
C        7.40686155       4.26838808       3.55288845       0.00182084       0.00256836      -0.00874110
C        6.18241638       6.40535840       3.74222337       0.00312904       0.00054563       0.00445944
C        4.93891749       8.55911966       3.74252893       0.00353492       0.00378071       0.00351726
C       -0.00771353       1.41721891       3.58931706      -0.00099817      -0.00131849      -0.00703200
C       -1.24986840       3.55017661       3.62516168      -0.00560013      -0.00236027      -0.01282989
C       -2.47616266       5.69249092       3.58883454      -0.00057480      -0.00308682      -0.00642913
C       -3.70194657       7.83209214       3.56269762       0.00038639      -0.00258639      -0.00376613
C       -4.93580534       9.96940021       3.56241409      -0.00333083       0.00248999      -0.00084102
C        2.46645041       1.41419163       3.69321381       0.00071234      -0.00090983      -0.00996304
C        1.18063845       3.52032825       3.96797661      -0.00746998      -0.00752462       0.01139433
C       -0.06083770       5.66999099       3.96781655      -0.00419234      -0.00131712       0.01032163
C       -1.24163060       7.83657546       3.69267770      -0.00005688       0.00073825      -0.00871751
C       -2.46759397       9.96955880       3.56217800      -0.00120887       0.00031912      -0.00031151
C        4.94080328       1.41725059       3.59164335      -0.00084102      -0.00066909      -0.00731588
C        3.75195684       3.52006922       3.97066425       0.00906019      -0.00463405       0.01137400
C        1.22500472       7.89704223       3.97031207      -0.00025859       0.00539931       0.01139870
C       -0.00180937       9.97775433       3.59187896       0.00141415       0.00223061      -0.00912848
C        7.40334273       1.42345548       3.49080299      -0.00241620       0.00213198       0.00247754
C        6.18260638       3.55018572       3.62935294       0.00808891      -0.00373392      -0.01355921
C        4.99345088       5.67015065       3.97220394       0.00747197      -0.00609840       0.00886721
C        3.70766901       7.89705630       3.97225492       0.00062045       0.01008103       0.00917015
C        2.46646441       9.98695371       3.62968718       0.00005587       0.00689609      -0.01427242
C        9.86615630       1.42349332       3.48945140       0.00036319      -0.00091105       0.00238502
C        8.63468901       3.55656355       3.48937754      -0.00308210      -0.00038564       0.00114864
C        7.40872585       5.69224276       3.59148181       0.00082232       0.00109425      -0.00721231
C        6.17423930       7.83649840       3.69509544       0.00212162       0.00118200      -0.00891341
C        4.93463043       9.97773971       3.59193151       0.00108583       0.00076359      -0.00825821
Pt       2.46524073       5.69499529       5.70631733      -0.00606244       0.00282318       0.01182587
O        2.46506203       5.69521823       7.47865866       0.00042189       0.00026903       0.01942059
