49
Lattice="12.336457 0.0 0.0 -6.168228499999997 10.683685154694365 0.0 0.0 0.0 15.0" Properties=species:S:1:pos:R:3:forces:R:3 energy=-435.14356725383215 free_energy=-435.14356725383215 stress="-0.008873984080901287 -0.0021371622323174723 -6.828494465418423e-06 -0.0021371622323174723 -0.00031284130445434786 -3.473191407711519e-07 -6.828494465418423e-06 -3.473191407711519e-07 -4.2391428920430555e-06" pbc="T T T"
C       -0.00265797       0.01051679       3.83767543      -0.00026164       0.00145379       0.00242208
C       -1.26573621       2.10552129       3.96065219      -0.00280657      -0.00406287      -0.00043401
C       -2.50565925       4.25947877       4.04801742       0.01153115       0.00284732       0.01340318
C       -3.69665791       6.42277295       3.94463873      -0.00255008      -0.00261145      -0.00036333
C       -4.91639037       8.57609784       3.84747309      -0.00140210      -0.00038746       0.01068585
C        2.46538115       0.04386219       3.80502394      -0.00413818       0.00528452       0.01447272
C        1.19603146       2.19113171       3.75693121      -0.00333238      -0.00025089      -0.00167233
C       -0.09095865       4.21024601       4.07047123      -0.00653007      -0.00001680      -0.00037877
C       -1.27253875       6.40882921       4.12749230       0.00030773       0.00234907       0.00106621
C       -2.46825182       8.56975840       3.97988338       0.00522377      -0.00329784       0.00317395
C        4.93011200       0.01339623       3.77793897      -0.00530630      -0.00154841      -0.00285129
C        3.69170084       2.08059098       3.28511592       0.00803316      -0.00759691       0.00715599
B        1.17550739       6.37497426       3.97623444       0.00247887       0.00883614       0.00460834
C       -0.01046260       8.55563627       3.97311328       0.00018649       0.00161300      -0.00130243
C        7.39876051      -0.01606532       3.79523126      -0.00282098      -0.00449522       0.00281873
C        6.17573725       2.12767763       3.50679950       0.00030408       0.00489455       0.00534868
C        5.12008456       4.32404663       3.02505219       0.00569509       0.00934954      -0.00509528
C        3.80946297       6.38189047       3.46371156      -0.00509814      -0.00409822       0.00622232
C        2.47740136       8.51547937       3.79600151       0.00372540      -0.00035553       0.00626992
C        9.86113796      -0.02583680       3.82587477       0.00531426       0.00130207       0.00227616
C        8.62019655       2.11996248       3.83364512      -0.00151279      -0.00160996      -0.00003926
C        7.42659441       4.27931890       3.69371917       0.00289918      -0.00433756       0.00309574
C        6.24043205       6.44448050       3.57907160      -0.00124073       0.00176128       0.00181571
C        4.95378477       8.54099986       3.72108088      -0.00368726       0.00198145       0.00483328
C       -0.01823483       1.43383592       3.87017984      -0.00441790      -0.00099456      -0.00469484
C       -1.30387162       3.50891395       4.08032952       0.00355106      -0.00574943      -0.00473534
C       -2.49620679       5.69153350       4.07521080       0.00213661       0.00398277       0.00644402
C       -3.69458641       7.85504145       3.93852735       0.00283805      -0.00151742       0.00138653
C       -4.92806413      10.00167931       3.84605587      -0.00278429       0.00081170       0.01630954
C        2.45848629       1.47505366       3.62354376      -0.00015676       0.00507571       0.00108923
N        1.08316158       3.55527941       3.82536643      -0.00795220      -0.00653527      -0.00350398
C       -0.09778229       5.63081126       4.13417618      -0.00588201      -0.00297322      -0.00527157
C       -1.24438577       7.84523762       4.04959510       0.00465188      -0.00174332      -0.00808265
C       -2.47231808      10.00072566       3.86425499      -0.00457122      -0.00302409      -0.00248487
C        4.93483770       1.42694713       3.51996639       0.00807552      -0.00176930      -0.00149721
S        3.77576264       3.49502283       2.25241854      -0.01547697      -0.00467223      -0.00541132
C        1.23492327       7.86297895       3.93429107       0.00042589       0.00291898      -0.01246704
C       -0.00775355       9.97651046       3.85911149      -0.00708398      -0.00174659      -0.00810004
C        7.38878963       1.41374054       3.71614070      -0.00320094      -0.00238576      -0.00710300
C        6.22636496       3.55802402       3.39897703       0.00010627       0.00125255      -0.00366794
C        5.05317178       5.72326871       3.29339266       0.00725305       0.00084720      -0.00024612
C        3.72045867       7.78996797       3.66474216      -0.00189719      -0.00132680       0.00300016
C        2.46682847       9.94449035       3.80715976       0.00487939       0.00138272      -0.00825842
C        9.84568890       1.39559789       3.88964714      -0.00137040      -0.00102709       0.00007337
C        8.61919247       3.54749951       3.88201756       0.01140383       0.00182285      -0.00127725
C        7.43520310       5.70864999       3.74110593      -0.00093978      -0.00312386      -0.00806638
C        6.19996832       7.85920387       3.72511023      -0.00295315       0.00524323      -0.00936212
C        4.93583332       9.95999822       3.80851013       0.00321055       0.00268935      -0.00713648
Pt       2.44891401       5.00377031       3.52403986       0.00514273       0.00555829      -0.00446847
