51
Lattice="12.336457 0.0 0.0 -6.168228499999997 10.683685154694365 0.0 0.0 0.0 15.0" Properties=species:S:1:pos:R:3:initial_magmoms:R:1:forces:R:3 energy=-445.6331034238141 free_energy=-445.6331034238141 stress="0.0007116123486432119 0.00024564982177410815 4.304171219282933e-06 0.00024564982177410815 0.005738492138995566 4.953474965161101e-06 4.304171219282933e-06 4.953474965161101e-06 -3.0141518727290822e-05" pbc="T T T"
C        0.06673350      -0.02760186       3.62258063       0.00000000      -0.00562045       0.00340303      -0.00993354
C       -1.17834652       2.09507127       3.58383678       0.00000000      -0.00487822       0.00125826      -0.00685618
C       -2.40557494       4.23312361       3.45694656       0.00000000       0.00831954       0.00255865       0.00441834
C       -3.63652007       6.37919789       3.43511548       0.00000000       0.00123746       0.00587586      -0.00549529
C       -4.86806457       8.52237448       3.53923985       0.00000000      -0.00186003      -0.00215854      -0.00414375
C        2.52797810       0.02286319       3.60999696       0.00000000      -0.00687138       0.00648423      -0.00617015
C        1.25895333       2.12864753       3.73983723       0.00000000       0.00057407      -0.01393325       0.00593392
C        0.02323382       4.21053594       3.81146553       0.00000000      -0.00229696       0.00740260      -0.00401990
C       -1.18575738       6.35196617       3.72148906       0.00000000      -0.00799286      -0.00363685       0.00140938
C       -2.40454759       8.51852012       3.62257787       0.00000000       0.00486701      -0.00825631       0.00219756
C        4.99127532      -0.03038076       3.62108965       0.00000000      -0.00803632      -0.00350933       0.00942007
C        3.79674939       2.11395914       3.55736693       0.00000000       0.00793599       0.00261541       0.01019522
B        0.92391107       6.46663441       4.88508644       0.00000000      -0.00571133       0.00603626      -0.00051038
C        0.05736173       8.52056441       3.92874612       0.00000000       0.00222752       0.00164756      -0.01962868
C        7.46698210      -0.05255180       3.67626817       0.00000000       0.00864996       0.00237854       0.00556902
C        6.23728314       2.08864613       3.46239482       0.00000000       0.00117385      -0.00305410       0.00200555
C        5.03133077       4.19908582       3.50134811       0.00000000      -0.00074296       0.00739186      -0.00409325
C        3.87741398       6.35135913       4.07501434       0.00000000      -0.01107328      -0.00325660       0.00587703
C        2.50910141       8.47343580       4.00741480       0.00000000       0.00288884      -0.00546377       0.00292319
C        9.92416746      -0.05869290       3.66467011       0.00000000      -0.00203611      -0.00368332      -0.00839765
C        8.69881226       2.08792834       3.48128171       0.00000000       0.00477199      -0.00283709       0.01148422
C        7.47016575       4.23821312       3.37211813       0.00000000       0.00766513      -0.00633007      -0.00120736
C        6.23698336       6.36529010       3.47580887       0.00000000       0.00110256      -0.00625333      -0.01125415
C        4.99627401       8.49922961       3.69063379       0.00000000       0.00368301       0.00626639      -0.00499029
C        0.07022346       1.40829871       3.64690085       0.00000000      -0.00779928      -0.00345073       0.00095178
C       -1.17646315       3.51195382       3.56845424       0.00000000       0.00479712       0.00614655       0.00310884
C       -2.41090260       5.65640499       3.48256799       0.00000000      -0.00633299       0.00167004       0.01259031
C       -3.63730337       7.80698645       3.51689045       0.00000000       0.00334744       0.00227538      -0.00757433
C       -4.86419698       9.96232692       3.59595294       0.00000000      -0.00545461       0.00011003       0.00114567
C        2.52434433       1.47594564       3.64217862       0.00000000       0.00756802       0.00945798       0.01432928
O        1.19396250       3.49117503       4.02361875       0.00000000      -0.01531614       0.00249031      -0.00946095
C       -0.02822607       5.59427449       4.00269611       0.00000000      -0.00557144       0.00915661      -0.00301367
C       -1.18416197       7.79710542       3.77979193       0.00000000       0.00449328      -0.00614368      -0.00629625
C       -2.41506510       9.96162594       3.62013425       0.00000000      -0.01024634      -0.00557717       0.00669635
C        4.99186845       1.39954737       3.53244159       0.00000000       0.00279078      -0.00450003       0.00573716
O        3.85268327       3.49139434       3.52668277       0.00000000       0.00355186       0.00656907       0.00082349
C        1.26297119       7.86054680       4.23289341       0.00000000      -0.00321476       0.00116273       0.00011213
C        0.05698608       9.93949481       3.72726406       0.00000000       0.00143118       0.00656288       0.00040239
C        7.46154723       1.37543476       3.51983910       0.00000000       0.00534914      -0.00067421       0.00078982
C        6.23925169       3.51033366       3.40080351       0.00000000      -0.00169840       0.00191948       0.00623046
C        5.02752952       5.62467057       3.62126067       0.00000000      -0.00251721       0.00412456       0.00479639
C        3.78039805       7.77606955       3.91453559       0.00000000       0.00191844       0.00327934      -0.00758361
C        2.52589604       9.90942562       3.77322281       0.00000000       0.00419484      -0.00917085      -0.00513578
C        9.93247431       1.37414976       3.56164287       0.00000000      -0.00330285      -0.00332672      -0.00498273
C        8.69838819       3.51745104       3.40629770       0.00000000       0.01229888      -0.00390899      -0.01023002
C        7.46819334       5.66024047       3.38474600       0.00000000       0.00676639      -0.00460285       0.00496463
C        6.23531361       7.79806669       3.55788400       0.00000000      -0.00015961      -0.00359326      -0.00321967
C        4.99769421       9.92774539       3.65791886       0.00000000      -0.00106569       0.00707205       0.00230344
Pt       2.66685806       5.42362565       5.14807121       0.00000000       0.00032016      -0.00196063      -0.01745925
O        1.40666588       4.99316414       6.57796889       1.00000000       0.01413117      -0.00607473       0.00978574
O        0.61590877       6.22434125       6.36449759       1.00000000      -0.00825640       0.00004076       0.02545544
