53
Lattice="12.336457 0.0 0.0 -6.168228499999997 10.683685154694365 0.0 0.0 0.0 15.0" Properties=species:S:1:pos:R:3:forces:R:3 energy=-459.3598352389616 free_energy=-459.3598352389616 stress="-0.0030838457059402424 0.0016463304825046219 -0.00011814054306845037 0.0016463304825046219 -0.0028790530725731037 3.7566779872147587e-06 -0.00011814054306845037 3.7566779872147587e-06 -6.691974604594741e-06" pbc="T T T"
C       -0.03604783      -0.09930319       3.75237121      -0.01168736       0.00277298       0.04489999
C       -1.26540333       2.04084036       3.88508756       0.02092463      -0.02240071      -0.01327312
C       -2.49258208       4.17574163       3.86036250       0.01287465      -0.03014531      -0.01260881
C       -3.73033861       6.30720662       3.72539439      -0.01210768       0.03510747       0.00302487
C       -4.98564725       8.43970202       3.64800721       0.01371374       0.04155751       0.01142455
C        2.42787104      -0.09818999       3.79245921      -0.01350723      -0.02177034       0.02905579
C        1.19616480       2.02783793       3.97611011      -0.03156119       0.01107819       0.02972992
C       -0.03514690       4.18193097       4.12158067       0.00379755       0.00958399      -0.01590184
C       -1.27392253       6.31805971       3.92234585      -0.00821542       0.01180728       0.00435185
C       -2.51398122       8.44713573       3.77533884      -0.00475197       0.03443475      -0.02899673
C        4.89727773      -0.10250908       3.78030711       0.03145347      -0.01776822      -0.00972983
C        3.68033203       2.03580176       3.87165279      -0.05745637      -0.05224136       0.01120892
B        2.46893553       4.15239895       4.41611423       0.01260423      -0.01014112       0.00802046
C        1.13851548       6.39355977       4.36805972       0.05940629      -0.01284143      -0.05242432
C       -0.04486157       8.44661891       3.84744739      -0.02624103       0.02821853      -0.00435456
C        7.36393044      -0.10024933       3.79909943       0.02239776       0.00451191      -0.05251878
C        6.14981073       2.02467894       3.75468268      -0.02306835      -0.03143656       0.03676098
C        4.92875647       4.15780802       3.71870170       0.00772455      -0.02702611      -0.00578707
S        3.52826876       6.22646317       2.73359379       0.00117977      -0.02802361       0.00247448
C        2.42560942       8.45491651       3.72889203      -0.01867468      -0.00023586       0.00775532
C        9.83817628      -0.09612045       3.74848730      -0.01109892       0.00863784      -0.00358269
C        8.61181090       2.03579628       3.78178282      -0.01141605      -0.00816196       0.03819284
C        7.38834340       4.16849319       3.71066081       0.00018703       0.01580504      -0.00683566
C        6.13985802       6.30466532       3.52297346       0.00156443       0.01714699      -0.01427023
C        4.89242978       8.45034854       3.51977339       0.02382633       0.00975056       0.01992489
C       -0.03822819       1.31952101       3.87639730       0.00911577      -0.00182146      -0.02040709
C       -1.26807667       3.46663776       3.96214605       0.02319933      -0.03043334      -0.04415698
C       -2.49671705       5.59960038       3.83283983      -0.01428294      -0.00444416       0.01779943
C       -3.74391136       7.73041542       3.71396086      -0.00131213       0.04518464      -0.02073073
C       -4.97559366       9.86887294       3.72919874      -0.01034609       0.02145870      -0.01938494
C        2.43592538       1.32165734       3.90023264      -0.06664332      -0.02739037      -0.05257555
C        1.15975167       3.43810136       4.16274119       0.00094852       0.01319219      -0.02102105
C       -0.03294278       5.61985667       4.13364919       0.01334704       0.01751756       0.02473094
C       -1.27992460       7.73706509       3.84819646      -0.02471700       0.02723448       0.02764811
C       -2.50843476       9.86994034       3.77555832       0.01905279       0.01381170      -0.00362238
C        4.91404461       1.31624722       3.77794455      -0.02654082      -0.03797166       0.05124069
C        3.72174037       3.45000220       3.93429374      -0.00862925      -0.04990196      -0.00885336
C        1.19151684       7.73607215       3.93463282      -0.03121434       0.01454183       0.02660929
C       -0.03940065       9.87085781       3.79557705       0.03275363       0.01387091      -0.00833661
C        7.37828999       1.31915308       3.77049883      -0.01170787      -0.00411509       0.02213114
C        6.16491859       3.44789867       3.72098014       0.01247042      -0.01617137      -0.00689850
C        4.94687924       5.55106033       3.44696453       0.00929757      -0.00977234       0.00119639
C        3.63467407       7.80229960       3.41684087       0.00455172       0.00577176      -0.00629408
C        2.43095502       9.87630133       3.76864341       0.00103469      -0.00187763      -0.04320976
C        9.84188363       1.32685618       3.80425617      -0.00244270       0.00800800       0.02187636
C        8.61738965       3.45880467       3.77998017      -0.00183452      -0.00602723       0.00362097
C        7.38009356       5.59170863       3.65720658      -0.01311993       0.02576682       0.01582842
C        6.11867977       7.72947492       3.52653935       0.04103316       0.02609298       0.00622836
C        4.89813990       9.87404081       3.68104718      -0.00533771       0.01296539      -0.00647531
Pt       2.56171046       5.70206325       5.57901490       0.03830609      -0.05230542       0.01069517
O        2.79204003       7.50027439       6.41153256      -0.01811887       0.05965003      -0.02467878
O        4.21453919       7.75253363       6.57665863      -0.02297605      -0.06273162       0.01383476
H        4.29587520       7.46592243       7.51072148       0.07224466       0.03167622       0.01666387
