50
Lattice="12.336457 0.0 0.0 -6.168228499999997 10.683685154694365 0.0 0.0 0.0 15.0" Properties=species:S:1:pos:R:3:forces:R:3 energy=-447.139084335771 free_energy=-447.139084335771 stress="-0.00534911507391266 6.578212052718789e-06 2.6023683032795037e-06 6.578212052718789e-06 -0.005385712298512835 -2.458820254667577e-06 2.6023683032795037e-06 -2.458820254667577e-06 -5.320335085331906e-06" pbc="T T T"
C       -0.00206162      -0.00180235       3.55831928       0.00182156      -0.00080921      -0.00911463
C       -1.23987542       2.13077185       3.55070298       0.00006105       0.00002363       0.00347373
C       -2.47352303       4.26899881       3.55109717      -0.00782556      -0.00992370      -0.00211926
C       -3.70152645       6.40679480       3.55777395      -0.00217125      -0.00017709      -0.00586674
C       -4.93632446       8.54373735       3.57734075       0.00435344       0.00942015       0.01647253
C        2.46647975      -0.00157365       3.57592954      -0.00651789      -0.00004217       0.01641828
C        1.22294041       2.12317052       3.74329442       0.00797374      -0.00197568      -0.00844980
C       -0.03172856       4.25276241       3.87152510      -0.00026428       0.00841568      -0.00139211
C       -1.24856934       6.40513591       3.74292058       0.00418911       0.00248527      -0.00525702
C       -2.46684137       8.54391148       3.57648930      -0.00908670       0.00161485       0.01297453
C        4.93444523      -0.00168969       3.55869461      -0.00195407      -0.00045463      -0.00800161
C        3.70931474       2.12290000       3.74500102      -0.00139416       0.00882571      -0.00337266
B        2.46628715       4.20189839       4.38362521      -0.00379451      -0.01405905      -0.00401126
B        1.17227164       6.44315622       4.38230736      -0.00149284      -0.00349301       0.00198183
C       -0.00598242       8.55889401       3.74454715       0.00655433      -0.00732811      -0.00011725
C        7.39957870       0.00417447       3.55552562       0.01501692       0.00838629      -0.00446274
C        6.17225086       2.13053900       3.55527728       0.00285753       0.00993614      -0.00322519
C        4.96485859       4.25337756       3.87700723       0.00797598      -0.00932970      -0.00918680
B        3.75963564       6.44246672       4.38488125       0.00677546       0.00690018      -0.00041012
C        2.46681492       8.58153307       3.87657030      -0.00929280      -0.00210794      -0.00203900
C        9.86861398       0.00473772       3.55507457       0.00158775      -0.00555727      -0.00190707
C        8.63433181       2.13477248       3.46779645       0.00019051      -0.00131032       0.01551057
C        7.40703462       4.26864521       3.55360360      -0.00394241      -0.00196880       0.00221213
C        6.18216306       6.40536588       3.74692983      -0.00665274      -0.00221201      -0.00518753
C        4.93876112       8.55874071       3.74716213      -0.00130705      -0.00229908      -0.00630050
C       -0.00775702       1.41748387       3.59096922       0.00378347      -0.00163083       0.00648616
C       -1.25083855       3.54932753       3.62750788       0.00277204       0.00557563       0.00176463
C       -2.47517070       5.69262208       3.59158023      -0.00097697      -0.00752203       0.00056104
C       -3.70153265       7.83175910       3.55990538      -0.00217193       0.00247062       0.00285314
C       -4.93593398       9.96905630       3.56081967      -0.00129003       0.00335480      -0.00395197
C        2.46606768       1.41527172       3.69377158       0.00419806      -0.00103962       0.00264909
C        1.17838860       3.52106627       3.97257007      -0.00854023      -0.00241092      -0.00016042
C       -0.06048747       5.66685451       3.97073683       0.00488298       0.00460108       0.00927451
C       -1.24003181       7.83558680       3.69478121      -0.00180949       0.00302361      -0.00583741
C       -2.46750829       9.96917958       3.56074552      -0.01139288      -0.00023036      -0.00457112
C        4.94001397       1.41726251       3.59394017       0.00043431       0.00807784       0.00433584
C        3.75478275       3.52071407       3.97566664       0.00555261       0.00566624      -0.00070641
C        1.22740489       7.89997253       3.97484244       0.00341520      -0.01480230       0.00164852
C       -0.00229836       9.97733265       3.59351729       0.01173499       0.00195617       0.00596209
C        7.40275828       1.42340528       3.49197888       0.00562150       0.00985876      -0.00877341
C        6.18385326       3.54944639       3.63253463       0.00220346       0.00140044       0.00186155
C        4.99370119       5.66767834       3.97548474       0.00179430      -0.01605074       0.00750318
C        3.70565584       7.89876196       3.97583382      -0.00907943       0.00927134       0.00426311
C        2.46612437       9.98905103       3.63331224       0.00353137      -0.00525565      -0.00021559
C        9.86575956       1.42389399       3.49027138      -0.00152364      -0.00299361      -0.01134457
C        8.63503956       3.55683713       3.48883951      -0.01149978      -0.00690986      -0.00417340
C        7.40870607       5.69236390       3.59422920      -0.00488297      -0.00088448       0.00004865
C        6.17330788       7.83573160       3.69782420       0.00153101       0.00399633      -0.00869590
C        4.93419190       9.97746732       3.59438243       0.00201924      -0.00145980       0.00489787
Pt       2.46473266       5.69516062       5.73521742      -0.00396830       0.00897718       0.00569853
