52
Lattice="12.336457 0.0 0.0 -6.168228499999997 10.683685154694365 0.0 0.0 0.0 15.0" Properties=species:S:1:pos:R:3:forces:R:3 energy=-449.49744975596815 free_energy=-449.49744975596815 stress="-0.008194313280705042 -0.002598863001345357 -2.7074098347313778e-05 -0.002598863001345357 0.0009401547834965343 -2.082836553794042e-06 -2.7074098347313778e-05 -2.082836553794042e-06 -4.4475924786220555e-06" pbc="T T T"
C       -0.00976880       0.09319730       3.90596437      -0.00423793       0.00110523      -0.00222725
C       -1.27673217       2.18946849       3.93649582      -0.00597590       0.00072126       0.00599808
C       -2.51382228       4.34121542       3.94753285      -0.00103296       0.00580480       0.00072956
C       -3.70273604       6.50285086       3.88345818       0.00814111      -0.00157301       0.00387733
C       -4.92362362       8.65689203       3.89074924       0.00251573      -0.00147225      -0.01128727
C        2.45895102       0.12817071       3.87002043      -0.00183789       0.00397895      -0.00395918
C        1.19100099       2.27052176       3.84002699       0.00137734      -0.00359355       0.00707096
C       -0.09735876       4.28927501       4.07250809       0.00482754       0.00189479       0.00297274
C       -1.27833771       6.48484043       4.10308829      -0.00700342       0.00182812      -0.00339551
C       -2.47354131       8.64810095       3.98899554       0.00113628       0.00475591       0.00913606
C        4.92481761       0.09429552       3.80744480      -0.00656410      -0.00366423      -0.00972911
C        3.67920945       2.16562473       3.33850702      -0.00916602      -0.00028631       0.00151133
B        1.19661515       6.43829591       4.24435847       0.00832420      -0.00162758       0.00086750
C       -0.01387781       8.63333409       4.04517570       0.00619861      -0.00210182       0.00871350
C        7.38873663       0.06602757       3.83366755       0.00279277      -0.00451257       0.00505386
C        6.16113519       2.21068304       3.49642166      -0.00582107      -0.00787199       0.00412590
C        5.07048632       4.40995424       3.06995453       0.00429622      -0.00281780       0.00864957
C        3.80876300       6.45968147       3.69813427      -0.00730625       0.00664208       0.00322774
C        2.47047393       8.59553328       3.95297929       0.00751463      -0.00114104      -0.01148729
C        9.85197481       0.05630669       3.88472693      -0.01163291      -0.00779512      -0.01171126
C        8.60888163       2.20102523       3.78997109       0.00149294       0.01094939      -0.00077397
C        7.41107740       4.36023598       3.62680913       0.00356412       0.00378817       0.00554668
C        6.22422964       6.52858805       3.59530672       0.00536287      -0.00393817       0.00735689
C        4.94627098       8.62434698       3.83408585      -0.00625313       0.00275689      -0.00863015
C       -0.02426411       1.51796519       3.90676373      -0.00228084       0.00151783       0.00451480
C       -1.31325290       3.59436850       4.00083759      -0.00145021       0.00385450       0.00337939
C       -2.50106975       5.77100449       3.98935421      -0.00210217      -0.00151737       0.01103329
C       -3.70070350       7.93446227       3.93224717       0.00692031      -0.00099763      -0.01492480
C       -4.93533627      10.08272053       3.91755476      -0.00077420       0.00243035      -0.00171987
C        2.45353015       1.55585100       3.70170871      -0.00494192      -0.00336172      -0.00522345
N        1.08895414       3.62781408       3.99052545       0.00572273      -0.00332022       0.00459812
C       -0.10877755       5.70868690       4.16977727      -0.00204205       0.00873800      -0.00565413
C       -1.25159223       7.92481562       4.06497342      -0.00202378       0.00016962       0.00549461
C       -2.47769980      10.08033421       3.90306268      -0.00434944       0.00354530       0.00043581
C        4.92375224       1.50785061       3.53720041      -0.01383734      -0.00280115       0.00832952
S        3.70663590       3.59669507       2.33367569      -0.00508448      -0.00443182      -0.00466557
C        1.23049507       7.93183246       4.09280443       0.01035635       0.00286813      -0.00730852
C       -0.01377620      10.05487934       3.90248944       0.00031403      -0.00096455      -0.00714082
C        7.37567744       1.49461751       3.70468136       0.00141116       0.00080302       0.00412791
C        6.20020370       3.64219397       3.37468503       0.00671839      -0.00559785      -0.00099371
C        5.02921389       5.80910272       3.37573030       0.00064708       0.00072418       0.01005862
C        3.71858564       7.87386083       3.83718739      -0.00030185       0.00511763      -0.00957940
C        2.45717731      10.02614204       3.89146251      -0.00178013      -0.01098944      -0.00262969
C        9.83508760       1.47861314       3.87975099      -0.00694581      -0.00404279      -0.00466474
C        8.60902671       3.62886474       3.79642021       0.00187165       0.01146241       0.00036740
C        7.42625095       5.79061021       3.68754476       0.01093774       0.00000143       0.00393837
C        6.19186532       7.94148660       3.78393553      -0.00290692       0.00034496      -0.00488508
C        4.92833828      10.04503438       3.89266228      -0.00946643       0.00119229      -0.01294263
Pt       2.50924107       5.08844078       4.08065822       0.01173582      -0.00555443       0.00951870
O        3.37285245       3.98340431       5.55051835       0.00661131       0.00076072       0.00222034
O        2.32125713       3.54551484       6.43053469      -0.00370907       0.00877770      -0.00736450
H        2.83284653       3.40582433       7.25489047       0.01003732      -0.01055927       0.01004335
