51
Lattice="12.336457 0.0 0.0 -6.168228499999997 10.683685154694365 0.0 0.0 0.0 15.0" Properties=species:S:1:pos:R:3:forces:R:3 energy=-449.4499297462489 free_energy=-449.4499297462489 stress="-0.005436965792736651 0.0022709159951777667 1.0393895823814065e-05 0.0022709159951777667 -0.004936791393729017 -1.9945562321160233e-05 1.0393895823814065e-05 -1.9945562321160233e-05 -6.922629840305229e-06" pbc="T T T"
C        0.01755255       0.02175612       3.64909194      -0.00578574       0.00192357       0.00643713
C       -1.20801177       2.16359342       3.76450105      -0.00013481      -0.00052889       0.00762846
C       -2.43435122       4.29767663       3.76930269      -0.00334783      -0.00283305      -0.00011530
C       -3.67517848       6.43068476       3.65019020       0.00402183       0.00298584       0.00480123
C       -4.93132337       8.56207702       3.56422315      -0.00297291       0.00021142       0.00099281
C        2.48020342       0.02302102       3.67652805       0.00069801       0.00016573       0.00820185
C        1.24925128       2.15560520       3.80778307       0.00469878      -0.00232412       0.00082344
C        0.01995424       4.30414073       3.97052754       0.00137041      -0.00822956       0.00576230
C       -1.22228556       6.44206223       3.85406044      -0.00049920       0.00778325      -0.00700323
C       -2.46257542       8.57093276       3.69761195      -0.00358090       0.00843324      -0.00335378
C        4.95331703       0.01528416       3.70834772       0.00496719      -0.00097203       0.01044467
C        3.73575151       2.14688075       3.75284386      -0.00103039       0.00017904       0.00580892
B        2.52730136       4.26655377       4.19342609       0.01059987      -0.00206236       0.00480388
C        1.18400764       6.50488529       4.28015998      -0.00700206      -0.00099183      -0.01762458
C        0.00270312       8.57333390       3.81345536       0.00073898       0.00176423      -0.00342423
C        7.42082345       0.02162637       3.75158137       0.00311721      -0.00324819      -0.00255301
C        6.20977883       2.13751908       3.70065403      -0.00651455       0.00126455       0.00303951
C        5.00399461       4.25817713       3.63449287      -0.00015479      -0.00076817       0.00192912
S        3.52544780       6.30753256       2.83668895       0.00068576      -0.00156751      -0.00171614
C        2.47239469       8.58138032       3.73643638       0.00604492       0.00009436       0.00664976
C        9.89382435       0.02583128       3.69578005      -0.00037396       0.00109082      -0.00692562
C        8.66986002       2.15672811       3.73176829      -0.00382881      -0.00995531      -0.00859612
C        7.45245176       4.28730242       3.64440882       0.00179434       0.00253710       0.00389048
C        6.19789162       6.42147129       3.46721454      -0.00259215      -0.00395176      -0.00513497
C        4.94429764       8.56722011       3.49536290       0.00143230      -0.00230208       0.00969110
C        0.01731967       1.44299508       3.73602233       0.00081125       0.00147102       0.01071116
C       -1.20890984       3.58880334       3.83258487      -0.00273997      -0.00286756       0.00679042
C       -2.44225254       5.72299497       3.75614399       0.00338973       0.00162094       0.00119156
C       -3.69039968       7.85457916       3.63044918      -0.00040058       0.00376178      -0.00386733
C       -4.92252667       9.99107781       3.62330205      -0.00320160       0.00263111      -0.00932183
C        2.48581555       1.44342457       3.75324652       0.00271536      -0.00228419       0.00150627
C        1.21126668       3.56559711       3.96342425       0.00750286      -0.00241979      -0.00002801
C        0.01748316       5.74058400       4.03576778      -0.00650268      -0.00382288       0.00136889
C       -1.23120437       7.86168106       3.79672483      -0.00351349       0.01028440      -0.00894883
C       -2.45507232       9.99220623       3.68528125       0.00261754       0.00511747       0.00529037
C        4.97137567       1.42984153       3.70674195      -0.00433023      -0.00149449      -0.00577437
C        3.79253091       3.55433757       3.79939325       0.00005147      -0.00109940      -0.01316244
C        1.23531521       7.86029708       3.90600793       0.00066493       0.00236981       0.00290996
C        0.01675932       9.99352074       3.74742650       0.00478889      -0.00159445      -0.00854750
C        7.43741554       1.43779075       3.72680751      -0.00732536      -0.00490278       0.00026582
C        6.23615175       3.55687989       3.65346260      -0.00014552       0.00303873       0.00801769
C        5.01519628       5.65561002       3.41341983       0.00300347      -0.00400333      -0.00086254
C        3.68312545       7.91294813       3.46184256       0.00321382       0.00158642      -0.00844112
C        2.48675647      10.00329507       3.73789357       0.00421844       0.00016046       0.00381810
C        9.89828867       1.44916067       3.73415810       0.00083110      -0.00153093      -0.01425173
C        8.67796739       3.57911875       3.71394610      -0.00181473      -0.00790878      -0.00808459
C        7.44069545       5.71027522       3.58740675       0.00297984       0.00383227      -0.00344278
C        6.17458195       7.84837784       3.47360761      -0.00158487      -0.00354184       0.00440142
C        4.95125163       9.99639282       3.61713121      -0.00312520      -0.00105903       0.00525845
Pt       2.61135469       5.77134674       5.51331647       0.00514486       0.00249045       0.00576732
O        1.84596980       4.95199101       6.89868727      -0.00960082       0.01146632       0.00297797
