50
Lattice="12.336457 0.0 0.0 -6.168228499999997 10.683685154694365 0.0 0.0 0.0 15.0" Properties=species:S:1:pos:R:3:forces:R:3 energy=-437.51978028003543 free_energy=-437.51978028003543 stress="0.0005430824828580785 -0.0014047973038312856 3.2661617673000073e-06 -0.0014047973038312856 0.0077591334121849195 -9.09797265835212e-06 3.2661617673000073e-06 -9.09797265835212e-06 -1.28144578269296e-05" pbc="T T T"
C       -0.03065564       0.00476691       3.67724714       0.00118477       0.00542023      -0.00931488
C       -1.27969113       2.12501733       3.75471902      -0.00330551       0.00288094       0.00276264
C       -2.50949249       4.27101915       3.76247592      -0.00010329      -0.00240969      -0.00373343
C       -3.72972668       6.41572800       3.65261572       0.00452406      -0.00519506       0.00189505
C       -4.96267464       8.55890853       3.61337852       0.00161728      -0.00407468       0.00016803
C        2.43323220       0.06779374       3.67636044       0.00487896       0.00005551      -0.00446846
C        1.15659337       2.15365116       3.72486182      -0.00377695      -0.00277198       0.01048156
C       -0.07608945       4.23633321       3.95415130      -0.00479250      -0.00537493       0.00604187
C       -1.27814647       6.39727000       3.87318572      -0.00024821       0.00426782       0.00007091
C       -2.50159360       8.56379842       3.74097452      -0.00351744      -0.00048247      -0.00269837
C        4.89554863       0.01785038       3.74620927      -0.00325066       0.00062871      -0.00106746
C        3.69585784       2.17941313       3.58337094       0.00001739      -0.00005087       0.00698587
C        1.09987420       6.42004163       4.41243225      -0.00007727      -0.00854399       0.00791614
C       -0.03536594       8.53882544       3.90313444      -0.00123949       0.00169118      -0.00314563
C        7.37245511      -0.02536951       3.79436487      -0.00418949       0.00100346      -0.00926760
C        6.13659149       2.14057536       3.68085433      -0.00401030       0.00292192       0.00603690
C        4.91225145       4.27013545       3.53558095      -0.00190508       0.00149458       0.00193362
O        3.78116311       6.41593616       3.67466001       0.00960636       0.00063725      -0.00483660
C        2.45588301       8.47280462       3.89296618      -0.00003408       0.00027317      -0.00551825
C        9.83002287      -0.03311991       3.74248071       0.00290389       0.00517872       0.01235050
C        8.59639160       2.12467591       3.73040309       0.00181722      -0.00475394       0.00030567
C        7.36599983       4.27569450       3.62968229       0.00056106      -0.00164787       0.00322084
C        6.14736952       6.40645418       3.47551623       0.00350442      -0.00090133       0.00360395
C        4.90968936       8.52737127       3.64633501       0.00148384       0.00290970      -0.00378100
C       -0.03518555       1.43735791       3.71641708      -0.00589762       0.00470343      -0.00935819
C       -1.27971761       3.54501464       3.82156912      -0.00408057      -0.00212963       0.00210333
C       -2.50440173       5.69255462       3.75471130       0.00371674      -0.00104466      -0.00124512
C       -3.72635621       7.84633968       3.65807341       0.00050377      -0.00620577       0.00770344
C       -4.95727110      10.00347212       3.65557375       0.00327157       0.00038610      -0.00513950
C        2.42730302       1.51784230       3.65762648       0.00032332       0.00105728       0.00056517
O        1.10225453       3.52234726       3.88214351      -0.00595614      -0.00612195      -0.00329273
C       -0.06951878       5.65607248       4.07975565      -0.00429502      -0.00425721      -0.00050991
C       -1.27513593       7.83341429       3.84907782      -0.00311836       0.00475848       0.00037675
C       -2.50822671      10.00499546       3.72126729       0.00085584      -0.00208459      -0.00908279
C        4.89145241       1.45138357       3.68005139      -0.00145758      -0.00161838      -0.00852298
O        3.73289602       3.54837112       3.37403776       0.00290023      -0.00322738       0.00822026
C        1.19132502       7.81061028       4.06343296       0.00013550      -0.00180352      -0.00308788
C       -0.03722489       9.96811820       3.81126971      -0.00568933       0.00290097       0.00271958
C        7.36197351       1.41269702       3.73510534      -0.00335879       0.00041268       0.00255711
C        6.13006148       3.56604597       3.61505411      -0.00194842       0.00306196      -0.00517612
C        4.96581101       5.69121676       3.43652979       0.00477195       0.00167495       0.00157512
C        3.70336139       7.82499024       3.74292506       0.00433004      -0.00040736      -0.00138455
C        2.43775605       9.92072134       3.80554360       0.00053865       0.00422027      -0.00496502
C        9.83294114       1.40729787       3.74113298       0.00300430       0.00201648       0.00296455
C        8.59771981       3.55493162       3.70418370       0.00205982      -0.00505202       0.00473043
C        7.38153414       5.69539240       3.57032479       0.00329800      -0.00190711      -0.00649756
C        6.15236355       7.83938849       3.55919410       0.00062613      -0.00079193      -0.00403221
C        4.90105466       9.95883738       3.69153340       0.00171989       0.00466296      -0.00211857
Pt       2.51014018       5.51631581       5.23175499      -0.00018903      -0.00373955       0.00564257
O        3.98946828       4.49060351       5.47359492       0.00228611       0.01737915       0.00931295
