50
Lattice="12.336457 0.0 0.0 -6.168228499999997 10.683685154694365 0.0 0.0 0.0 15.0" Properties=species:S:1:pos:R:3:forces:R:3 energy=-443.778542917671 free_energy=-443.778542917671 stress="-0.005024710391541523 -0.0012467806037520094 -1.6196794298255514e-05 -0.0012467806037520094 0.0063101129323285534 1.2208292499896434e-05 -1.6196794298255514e-05 1.2208292499896434e-05 4.426944021934254e-06" pbc="T T T"
C       -0.00918038      -0.00364849       3.77058360       0.00125770      -0.00356585       0.00079441
C       -1.26688272       2.09753594       3.71439874      -0.01062423      -0.00576280      -0.00810575
C       -2.50242668       4.24736015       3.55056425       0.00446758       0.00236196       0.01904205
C       -3.71430161       6.40326866       3.53542034      -0.00074624       0.01353389      -0.00482619
C       -4.93802743       8.55573956       3.65367884       0.00358257      -0.00427820      -0.01367051
C        2.46242475       0.03393140       3.83218573      -0.01049878      -0.01042893      -0.00955704
C        1.20339219       2.15811075       3.96345489      -0.00457680       0.00489306      -0.00151618
C       -0.09279652       4.25463696       3.81881742       0.01253393       0.00487508       0.00310462
C       -1.28079907       6.40732218       3.64378586       0.00359018       0.01133032       0.00154670
C       -2.47912712       8.55364092       3.69227076       0.00367423      -0.00329462      -0.00557024
C        4.93306033      -0.01195408       3.78801354      -0.00347023      -0.00626967      -0.00156187
C        3.70793433       2.17585769       3.92916623       0.00765504       0.00361428      -0.00535980
N        1.09893839       6.34818103       4.02259064      -0.00100601      -0.01259576       0.00505022
C        0.00269824       8.48918912       3.78386645       0.00432795       0.00070888       0.00627573
C        7.40355726      -0.06539731       3.74144114      -0.00037418       0.00818426       0.00105068
C        6.16955985       2.10759392       3.67942393       0.01127998       0.00240160      -0.00825403
C        4.96396256       4.28756849       3.65684588      -0.01184798      -0.00308047      -0.00134496
O        3.80592399       6.42166815       3.56320185      -0.00169189      -0.00489954      -0.00560577
C        2.47997839       8.42385905       3.79887226      -0.01002932       0.00927573       0.00085161
C        9.84886541      -0.06193940       3.72600917       0.00929911       0.00231348      -0.00784554
C        8.61866010       2.09129570       3.61415532      -0.00393603      -0.00616730      -0.00857077
C        7.39464839       4.25126477       3.50613134      -0.00377835       0.00301372       0.00841749
C        6.18122440       6.41400976       3.51521808      -0.00448754       0.00170632      -0.01522030
C        4.93725195       8.51997764       3.67031974      -0.00085219      -0.00159523      -0.00021805
C       -0.02481147       1.41677808       3.82115974      -0.00929177      -0.00236595      -0.00323482
C       -1.28793605       3.52491027       3.66176347       0.00879910      -0.00257297       0.00597067
C       -2.49615010       5.67921335       3.55143954      -0.00012327       0.01259573       0.00836438
C       -3.70677977       7.83691664       3.61717269       0.00480007       0.00569513       0.00445708
C       -4.93384263       9.98821479       3.75928745      -0.00624667      -0.01267449       0.01022346
C        2.45886226       1.46559494       3.94728680       0.00047913      -0.00005601       0.00550380
C        1.10156778       3.56700494       4.10230844      -0.00007127       0.00085264      -0.00091073
C       -0.07723430       5.69417843       3.79550275       0.00339611       0.00084002       0.00301082
C       -1.25285930       7.82351668       3.70007301       0.00512704       0.00665977       0.01084372
C       -2.47733411       9.98313865       3.77922263      -0.00855283      -0.01007153       0.00134087
C        4.93664624       1.41628207       3.79913461       0.01488819      -0.00178607       0.00385726
C        3.78620399       3.58984675       4.02403370      -0.01095515       0.00337073      -0.01275036
C        1.21416164       7.72285810       3.88004746      -0.00362466      -0.01227227      -0.00442565
C       -0.00148318       9.92398163       3.77046827       0.00125419       0.00227030       0.00946065
C        7.39736787       1.37178581       3.66838403       0.00225424       0.00097111       0.00668641
C        6.17363825       3.53887601       3.57896370      -0.00536600       0.00152092      -0.00133505
C        4.99402227       5.70865093       3.53317078      -0.00217606      -0.00516936      -0.00516639
C        3.74069332       7.80585660       3.68632091      -0.00732216       0.00064741      -0.00069862
C        2.46145999       9.87007974       3.75577340       0.00240483       0.01451500       0.00393647
C        9.84416032       1.37258967       3.67624513      -0.00855592      -0.00444885       0.00854519
C        8.61654811       3.52459590       3.53597352       0.00011285      -0.00392481       0.00179044
C        7.40277869       5.68078404       3.49841466      -0.00274831       0.00823755       0.01438466
C        6.17988449       7.83704414       3.59820161       0.00225583       0.00072539      -0.01269882
C        4.92651495       9.94646038       3.72841048       0.00860282      -0.00070345      -0.00352806
Pt       2.42435428       4.83118695       4.74026701       0.00453427      -0.00505241      -0.00129966
O        2.99851743       5.88813750       6.07861248       0.01237689      -0.00407781      -0.00123423
