50
Lattice="12.336457 0.0 0.0 -6.168228499999997 10.683685154694365 0.0 0.0 0.0 15.0" Properties=species:S:1:pos:R:3:forces:R:3 energy=-439.3480949019235 free_energy=-439.3480949019235 stress="-0.004350511495823886 0.001394165717186566 -1.3321570679715535e-06 0.001394165717186566 0.0038442388496668207 5.868991402453211e-08 -1.3321570679715535e-06 5.868991402453211e-08 -1.093934708461465e-05" pbc="T T T"
C       -0.02640085      -0.01093978       3.71748889      -0.00262967       0.00641890      -0.00431863
C       -1.27060177       2.09104855       3.47882088      -0.00187793       0.00061637       0.00282846
C       -2.50972734       4.24091363       3.38774589       0.00560537       0.00161816      -0.00496870
C       -3.74309931       6.38641509       3.56222501      -0.00052984      -0.00342740      -0.01186057
C       -4.97342893       8.52876040       3.77523502      -0.00150083       0.00531529       0.00257700
C        2.43203765       0.03382023       3.71185066      -0.00208130      -0.00014159       0.00281475
C        1.17906858       2.13446672       3.68016992       0.00480238      -0.00661525       0.00348651
C       -0.11131875       4.24444941       3.40862437       0.00086454       0.00183089      -0.00225726
C       -1.30694141       6.39171061       3.44996354      -0.00506429       0.00011126       0.00839809
C       -2.52250734       8.53945693       3.59562888       0.00478490       0.00205490       0.00173761
C        4.89752813      -0.02679003       3.65534688      -0.00275027       0.00579230      -0.01001667
C        3.71505541       2.11507548       3.83695688      -0.00103063      -0.00114465       0.00016460
C        1.08005764       6.34261747       3.90359487       0.00133777      -0.00328189       0.00264334
C       -0.05034966       8.50151575       3.67615998       0.00581833      -0.00754350       0.00345844
C        7.37442055      -0.06201497       3.63751896      -0.00275994      -0.00910701       0.00242865
C        6.16028212       2.07509569       3.66115449       0.00182670      -0.00240102       0.00696396
C        5.05582324       4.17966077       4.14124579       0.00165951      -0.00342384      -0.00015222
P        3.70886368       6.38717887       5.22853778       0.01121990       0.00488660      -0.01101866
C        2.42657523       8.49148049       3.96818479      -0.00095234       0.00358961      -0.00140596
C        9.83649443      -0.05160421       3.67953234       0.00246330      -0.00260043      -0.00054949
C        8.61006840       2.08341120       3.50048592      -0.00316938       0.00671447      -0.00665518
C        7.39702755       4.23065646       3.62213168      -0.00090074       0.00326693      -0.00303299
C        6.18442396       6.35463136       4.01939486      -0.00126908       0.00284778      -0.00338777
C        4.91183444       8.53208622       4.02500120      -0.00646079      -0.00065845       0.00631081
C       -0.02037952       1.42336064       3.61272205       0.00025269       0.00409258       0.00556329
C       -1.28357155       3.51103509       3.37059321       0.00367666      -0.00013335      -0.00685906
C       -2.51970679       5.66791194       3.42252762      -0.00048799      -0.00242982      -0.00625726
C       -3.74628323       7.81753842       3.63379511       0.00250851       0.00009040       0.00400128
C       -4.96122342       9.97529180       3.74213184      -0.00482439       0.00651702      -0.00067818
C        2.44054734       1.49071267       3.75495743       0.00333953      -0.00580567      -0.00002086
O        1.10812615       3.55444700       3.56593659      -0.00043108      -0.00546180      -0.00532998
C       -0.09672983       5.64902141       3.52254617      -0.00446925       0.00556316       0.01289657
C       -1.29331699       7.81666464       3.55873988       0.00272373      -0.00262400       0.00318029
C       -2.51559546       9.97446501       3.65950819      -0.00030608       0.00427007       0.00109970
C        4.90597204       1.40231587       3.71155264      -0.00044983       0.00487218       0.00058631
O        3.83152204       3.47559602       4.20351033       0.00024587      -0.00397295       0.00703955
C        1.17138517       7.75543901       3.86200794       0.00567740       0.00201154       0.00596579
C       -0.03784123       9.92527066       3.65360174      -0.00522278      -0.00621747      -0.00154638
C        7.37675580       1.36531179       3.57356910      -0.00016871      -0.00489672       0.00546551
C        6.19196494       3.48508618       3.76622422       0.00061187      -0.00127546      -0.00507700
C        5.07869395       5.54995430       4.38188124      -0.00033429      -0.00010442      -0.00519706
C        3.66488072       7.89292964       4.28138628      -0.00468637      -0.00494770      -0.00117827
C        2.43356931       9.91120690       3.73617481       0.00247576      -0.00408081      -0.00502328
C        9.84469309       1.37353951       3.52555373      -0.00385905       0.00124942       0.00476258
C        8.61103080       3.51523229       3.46779022       0.00200790       0.00986326      -0.00322071
C        7.38700262       5.65454730       3.70460671      -0.00274489       0.00132947      -0.00743841
C        6.15137274       7.80441227       3.96849935      -0.00502277       0.00375823      -0.00287658
C        4.90936113       9.94678837       3.78840311       0.00096520      -0.00101449       0.00349801
Pt       2.32737016       4.97563226       4.39860446       0.00532779      -0.00681219       0.00100346
O        3.84451773       6.54206504       6.70603384      -0.00421111       0.00144108       0.01145258
