52
Lattice="12.336457 0.0 0.0 -6.168228499999997 10.683685154694365 0.0 0.0 0.0 15.0" Properties=species:S:1:pos:R:3:forces:R:3 energy=-447.57528479657043 free_energy=-447.57528479657043 stress="-0.0004060352527844067 -0.0009070477388785176 9.711977422476343e-07 -0.0009070477388785176 0.008087668919260728 -3.411962975323703e-05 9.711977422476343e-07 -3.411962975323703e-05 -1.07019069020195e-05" pbc="T T T"
C       -0.11724739      -0.03166846       3.74424093       0.00071782       0.00148343       0.00066049
C       -1.36713137       2.08829953       3.77204238       0.00110490      -0.00131636       0.00719898
C       -2.59616131       4.23617998       3.73053561       0.00070822      -0.00549458      -0.01016785
C       -3.81656608       6.38169088       3.64668248       0.00386508      -0.00026214      -0.00432427
C       -5.05045937       8.52456654       3.67222537       0.00182774      -0.00308777      -0.00776669
C        2.34662961       0.03728050       3.73933185       0.00248356      -0.00150196       0.00129877
C        1.06965917       2.12322562       3.80237789       0.00678784      -0.00149594      -0.00613265
C       -0.16647988       4.20055298       3.95267652      -0.00423965      -0.00164346       0.00970224
C       -1.37300162       6.36297338       3.85149020      -0.00066948      -0.00019990      -0.00041283
C       -2.59095102       8.53126713       3.75454355      -0.00110216      -0.00211361      -0.00736275
C        4.80642488      -0.01311833       3.75823847      -0.00508231      -0.00498261       0.00408801
C        3.60906322       2.15690499       3.72060871       0.00216764       0.00131777      -0.00666957
C        0.99543772       6.38257531       4.43122906       0.00090510       0.00528446       0.00953999
C       -0.12633353       8.50753723       3.89840667      -0.00390710       0.01081063      -0.00133823
C        7.28509114      -0.06246053       3.79037097       0.00219496       0.00140253      -0.00035639
C        6.05258868       2.10268762       3.65584072      -0.00679736      -0.00218313       0.00141338
C        4.83877121       4.22936210       3.53228940      -0.00146248       0.00359305       0.00074386
O        3.72363395       6.37116123       3.87066729      -0.00331450       0.00542271       0.00418010
C        2.36420094       8.43801531       3.94089893      -0.00559555      -0.00812962      -0.00624251
C        9.74373709      -0.07180856       3.78214092      -0.00159448      -0.00462526      -0.00934637
C        8.51204049       2.08625642       3.70515707      -0.00030295      -0.00063170       0.00150413
C        7.28392437       4.23798900       3.58147864       0.00377451       0.00197260      -0.00851392
C        6.06634790       6.37284011       3.53974628       0.00463530      -0.00138529      -0.00225126
C        4.82271382       8.48682525       3.73929145       0.00156974      -0.00194805      -0.00243822
C       -0.12214441       1.40171904       3.77257895       0.00411691       0.00083651       0.00121665
C       -1.36980613       3.50983451       3.80995904      -0.00315478      -0.00394375       0.01007127
C       -2.59508687       5.65655950       3.72571911       0.00010632      -0.00517809       0.00099263
C       -3.81571386       7.81210243       3.68291571       0.00159041      -0.00195753      -0.00378958
C       -5.04348074       9.96928051       3.72189329       0.00073985      -0.00069811      -0.00141320
C        2.34262479       1.49164291       3.75635230       0.00853846      -0.00074452       0.00641200
O        1.01570550       3.49591396       3.92335756      -0.00511660      -0.00118319       0.00024914
C       -0.17300689       5.62211983       4.07125800       0.00470128       0.00128524      -0.00198894
C       -1.36764910       7.80061075       3.83995511      -0.00195478       0.00416286       0.00129898
C       -2.59696140       9.97468152       3.75219063      -0.00263246      -0.00572822      -0.00121054
C        4.80310204       1.42460920       3.71030568      -0.00416154      -0.00807296       0.00168580
O        3.65252288       3.53770464       3.71200906      -0.00128715       0.00302049       0.01199354
C        1.09143070       7.78542198       4.08017407      -0.00491761       0.00358750       0.00163694
C       -0.12646536       9.93711165       3.80762040      -0.00097623       0.00652591      -0.00117285
C        7.27699547       1.37496906       3.71033286      -0.00257359       0.00082969      -0.00215383
C        6.05030431       3.52459466       3.56158708      -0.00136830       0.00239932       0.00646462
C        4.87981191       5.63961581       3.53803292      -0.00036823       0.00497724       0.00205717
C        3.61758557       7.78059213       3.84397964      -0.00217520      -0.00134482       0.00035497
C        2.34936819       9.88404725       3.83102236      -0.00140837      -0.00773248      -0.00660133
C        9.74741509       1.36915106       3.75117024       0.00010089      -0.00148367      -0.00674796
C        8.51352126       3.51769160       3.66279180       0.00180670      -0.00153946      -0.00076009
C        7.29555348       5.65960973       3.56500540       0.00536828       0.00204586       0.00827733
C        6.06540115       7.80003344       3.63918097       0.00330695      -0.00351444      -0.00181369
C        4.81483399       9.91949701       3.75931258       0.00070273      -0.00264039       0.00541374
Pt       2.36965004       5.58048334       5.34946971       0.00246142       0.00389249       0.00090724
O        3.96927521       4.75643693       6.05330037       0.00563146       0.01133507      -0.00281171
O        4.75798475       5.90133421       6.49829718      -0.00950125       0.00748754      -0.00455077
H        5.19531398       5.46371636       7.26058331       0.00375004       0.00309010       0.00897603
