51
Lattice="12.336457 0.0 0.0 -6.168228499999997 10.683685154694365 0.0 0.0 0.0 15.0" Properties=species:S:1:pos:R:3:initial_magmoms:R:1:forces:R:3 energy=-443.5305666485655 free_energy=-443.5305666485655 stress="3.9114618701956345e-05 -0.0010051649786325205 1.1855390548798556e-06 -0.0010051649786325205 0.008792658372951375 -7.2310043275062386e-06 1.1855390548798556e-06 -7.2310043275062386e-06 -2.4163135466337156e-06" pbc="T T T"
C       -0.05577416       0.01244586       3.68627657       0.00000000       0.00169056      -0.00177090      -0.00711578
C       -1.30417760       2.13150569       3.68082024       0.00000000       0.00032134       0.00211533       0.00024232
C       -2.53061695       4.28057137       3.60433264       0.00000000       0.00129110       0.00613345       0.00138977
C       -3.75089992       6.42920131       3.54011798       0.00000000      -0.00808201      -0.00514742       0.00194458
C       -4.98503794       8.57189184       3.60203686       0.00000000       0.00210394      -0.00142691       0.00143770
C        2.40997197       0.08727254       3.69057317       0.00000000      -0.00418519      -0.00076805      -0.00221775
C        1.13144361       2.16281733       3.76754846       0.00000000       0.00318508       0.00039564      -0.00063982
C       -0.11059713       4.24796788       3.87436899       0.00000000       0.00133727      -0.00365766      -0.00129518
C       -1.30713776       6.40871555       3.75315328       0.00000000       0.00464024      -0.00037631       0.00630326
C       -2.52506601       8.58043430       3.67782393       0.00000000      -0.00207037       0.00529765       0.00089727
C        4.87153740       0.03779910       3.70308543       0.00000000       0.00324645       0.00185956       0.00158284
C        3.67246416       2.21388644       3.67299280       0.00000000      -0.00199804      -0.00153467      -0.01026311
C        1.04655781       6.43610741       4.40554130       0.00000000      -0.00021133      -0.00251873       0.00675209
C       -0.05988744       8.55909460       3.84398950       0.00000000       0.00078261      -0.00806492      -0.00430138
C        7.35087323      -0.01723406       3.72019304       0.00000000       0.00015883       0.00027610       0.01043786
C        6.11731151       2.14982424       3.57820452       0.00000000      -0.00327471       0.00139689       0.00167484
C        4.90039288       4.28095898       3.47880657       0.00000000       0.00052312       0.00364470       0.00603618
O        3.79569112       6.41696396       3.87673514       0.00000000       0.00561782       0.00393929      -0.00605089
C        2.42926164       8.48171610       3.89660732       0.00000000      -0.00373343       0.00077666      -0.00582404
C        9.80680689      -0.02879466       3.70719327       0.00000000       0.00334354       0.00428841       0.00140255
C        8.57652152       2.13085460       3.59991222       0.00000000      -0.00353539       0.00015342       0.01011378
C        7.34811827       4.28446500       3.47433635       0.00000000      -0.00079140      -0.01069813       0.00242020
C        6.12519604       6.41950947       3.47813270       0.00000000      -0.00044504       0.00392958      -0.00074317
C        4.88388452       8.52854426       3.68936934       0.00000000      -0.00211954      -0.00158010       0.00214214
C       -0.06037425       1.44495436       3.71083954       0.00000000       0.00201834       0.00138671       0.00114405
C       -1.30667175       3.55314911       3.69871491       0.00000000      -0.00175930       0.00079199      -0.00105941
C       -2.53014138       5.70100509       3.60684139       0.00000000      -0.00001337       0.00496714       0.00153755
C       -3.74986708       7.86003856       3.59579702       0.00000000      -0.00104550      -0.00142464      -0.00170845
C       -4.97949241      10.01669584       3.66453616       0.00000000      -0.00107339      -0.00356201       0.00405185
C        2.40534239       1.54100786       3.72124770       0.00000000      -0.00021171      -0.00238839       0.00394216
O        1.07064880       3.53032006       3.93554443       0.00000000       0.00691042       0.00537140      -0.00184018
C       -0.12066424       5.66796655       3.99647978       0.00000000       0.00430713      -0.00764643      -0.00157359
C       -1.30218714       7.85138915       3.76308956       0.00000000      -0.00292735      -0.00001605       0.00760609
C       -2.53201065      10.02410355       3.69496558       0.00000000      -0.00087288       0.00686114      -0.00560664
C        4.86735218       1.47528008       3.65370416       0.00000000       0.00033795       0.00082065       0.00356148
O        3.71690185       3.59298002       3.66856301       0.00000000       0.00078371       0.00468290      -0.00133878
C        1.15496940       7.83638992       4.04259393       0.00000000      -0.00049855      -0.00533306       0.00275841
C       -0.06086377       9.98850083       3.74981556       0.00000000       0.00263468      -0.00667217      -0.01077313
C        7.34272759       1.41967996       3.62418627       0.00000000      -0.00476645       0.00094053      -0.00418644
C        6.11494541       3.57238262       3.47831774       0.00000000      -0.00280124      -0.00231394      -0.00473408
C        4.93450404       5.69644954       3.51632554       0.00000000       0.00425487       0.00375793      -0.00094239
C        3.68558956       7.81185483       3.81247611       0.00000000      -0.00299154       0.00147418      -0.00046469
C        2.41395851       9.92568553       3.76659532       0.00000000       0.00259649       0.00351307      -0.00257394
C        9.81052708       1.41188312       3.65576446       0.00000000      -0.00127434       0.00308190       0.00041631
C        8.57843646       3.56193592       3.54395237       0.00000000       0.00298773      -0.00228848      -0.00031568
C        7.35777486       5.70774765       3.46903621       0.00000000      -0.00520961      -0.01118222       0.00073837
C        6.12804989       7.84583914       3.58008983       0.00000000       0.00161458       0.00332565      -0.00187524
C        4.87572233       9.96196298       3.69877317       0.00000000       0.00209205      -0.00171521      -0.00724007
Pt       2.25957000       5.49616914       5.38653661       0.00000000       0.00024477       0.00016291       0.00659085
O        4.43374348       4.81251024       5.96723632       1.00000000       0.01113816      -0.00435087       0.00551293
O        3.33957239       4.08659981       6.11189831       1.00000000      -0.01427108       0.01109248      -0.00795359
