49
Lattice="12.336457 0.0 0.0 -6.168228499999997 10.683685154694365 0.0 0.0 0.0 15.0" Properties=species:S:1:pos:R:3:forces:R:3 energy=-439.25804778997775 free_energy=-439.25804778997775 stress="-0.014295166663849805 5.47402785275473e-05 -8.855552312721142e-07 5.47402785275473e-05 0.003314912523624657 -1.0742213084100215e-07 -8.855552312721142e-07 -1.0742213084100215e-07 4.519795767876227e-07" pbc="T T T"
C       -0.00054282       0.01657858       3.75072359      -0.00432463       0.01373936       0.00111619
C       -1.26671847       2.10430079       3.73735028      -0.01344005      -0.00475307      -0.00789712
C       -2.50861417       4.26431103       3.72203270      -0.00116456      -0.00924987       0.00383696
C       -3.70819635       6.43030526       3.73088174      -0.00085001       0.01033077      -0.00443150
C       -4.92102137       8.58918323       3.74780748      -0.00794936       0.00619161      -0.00050449
C        2.47582357       0.08058684       3.75659934       0.00487140      -0.00296305      -0.01611693
C        1.21660240       2.20500160       3.76438387       0.01407724       0.00059543      -0.00185527
C       -0.12121423       4.26331650       3.74860981       0.00279081       0.00553946      -0.00215525
C       -1.30977160       6.43851971       3.72965812      -0.00989860       0.00430533       0.00390299
C       -2.48304215       8.58816150       3.73481131      -0.00475337       0.00004726       0.01606237
C        4.93569833       0.01339432       3.74808990      -0.00196254      -0.00034390       0.01365595
C        3.74423820       2.16170680       3.77212290       0.00566646       0.00431188      -0.00781907
C        1.10455241       6.36517434       3.78082811       0.00010975      -0.00141744      -0.01505736
C       -0.01598227       8.53007384       3.75296812      -0.00151850      -0.00854228       0.00959273
C        7.41114373      -0.05528920       3.75510039       0.00345858       0.00568581       0.00124318
C        6.19435230       2.10864724       3.75319826       0.00838060      -0.01048550       0.00295700
C        5.06128409       4.28499458       3.76973209      -0.00204449      -0.00075642       0.00423093
N        3.85698405       6.38598505       3.78749349       0.01391193       0.00623414       0.00014470
C        2.47930336       8.45265409       3.77486677      -0.00208999       0.00833030      -0.00611117
C        9.86085713      -0.05372371       3.74945481       0.00780732       0.00161881       0.01106543
C        8.63179091       2.09944905       3.73982576       0.00221966      -0.00314454      -0.00800287
C        7.42223357       4.26954059       3.74167071      -0.00185310       0.00084902      -0.00453407
C        6.22508620       6.43270246       3.75619168      -0.00529709      -0.00818243      -0.00440197
C        4.95464683       8.52821646       3.76247095       0.00318755      -0.00769176       0.00609461
C       -0.01285366       1.43815918       3.74857565      -0.00325322       0.00800244       0.01406016
C       -1.31148885       3.52490600       3.72960919       0.00325127      -0.00361980       0.00427390
C       -2.50842165       5.70216635       3.72069946      -0.00596231      -0.00304409       0.01147885
C       -3.70229037       7.86631964       3.73666360      -0.00400807       0.00637677      -0.00486192
C       -4.92136044      10.02183971       3.75251100       0.00059495       0.00514067      -0.00002878
C        2.49301583       1.52019149       3.76725966       0.01328596      -0.00607186      -0.00222134
C        1.10689676       3.60281740       3.77400800      -0.00141351      -0.00804514      -0.00728832
C       -0.12427003       5.69342885       3.75044281      -0.00283702       0.01023175      -0.00152343
C       -1.26584688       7.85984159       3.73713519      -0.00593475       0.00334801      -0.00478957
C       -2.47481258      10.02165807       3.74578721       0.00098727      -0.00468998       0.00325488
C        4.94753536       1.44164132       3.75692850       0.00151020       0.00134164       0.00600942
O        3.85309810       3.58285709       3.80701037      -0.00303058       0.00131984       0.01312083
C        1.21650801       7.77361246       3.77329101       0.00439717      -0.00123517      -0.01229572
C       -0.00262358       9.94982665       3.75154555      -0.00025829      -0.00624607       0.00082504
C        7.40623483       1.38062139       3.74948861       0.01125477      -0.00456354      -0.00476374
C        6.21387049       3.53496593       3.75373677       0.00108550      -0.00625981      -0.00695408
C        5.03737459       5.69024871       3.76954535      -0.00139881      -0.00082173       0.00950030
C        3.74236474       7.75538759       3.77775019       0.00098286      -0.00010760      -0.00987403
C        2.47165742       9.88683008       3.76131895       0.00533348       0.01064879      -0.00938249
C        9.85076541       1.37492159       3.73843557      -0.00914910       0.00091845       0.00984181
C        8.62537150       3.53670548       3.73187386      -0.00159459      -0.00592879      -0.00200679
C        7.42147159       5.69653459       3.74304757      -0.00588477       0.00468595      -0.01269840
C        6.19540313       7.85604941       3.75584152      -0.00417327      -0.00936320       0.00013753
C        4.93748341       9.95130733       3.75251565       0.00005964      -0.00192153       0.00680977
Pt       2.44281655       5.01192030       3.80282616      -0.00317982      -0.00034493       0.00436015
