52
Lattice="12.336457 0.0 0.0 -6.168228499999997 10.683685154694365 0.0 0.0 0.0 15.0" Properties=species:S:1:pos:R:3:forces:R:3 energy=-453.07036123151084 free_energy=-453.07036123151084 stress="-0.007142145167633266 0.0007042029674155032 8.864247394569545e-06 0.0007042029674155032 0.00789681827165552 9.851450448767541e-06 8.864247394569545e-06 9.851450448767541e-06 -1.7332840982765746e-05" pbc="T T T"
C        0.10199116       0.01842052       3.75068451      -0.00639113      -0.00130075       0.00084283
C       -1.14775409       2.11907893       3.59799506       0.00449975       0.00437426       0.01390544
C       -2.37354323       4.27102679       3.55871206       0.00278626       0.00059583       0.00134801
C       -3.59448351       6.42827685       3.65471136       0.00374879      -0.00067785       0.00118982
C       -4.82106695       8.58520737       3.76606475      -0.00806908      -0.00236017      -0.00103586
C        2.56435894       0.09225822       3.79210519      -0.00454708       0.00115911       0.00769353
C        1.30017365       2.17289519       3.67661046       0.00512743       0.00115843      -0.00244166
C        0.02171748       4.27816538       3.42440929       0.00356639       0.00485605      -0.00067114
C       -1.17474440       6.43235509       3.53125687       0.00696010      -0.00562740       0.00719071
C       -2.37882103       8.58828465       3.70518804      -0.00625273      -0.00399191      -0.00916080
C        5.03158728       0.02458925       3.81912437       0.00129886       0.00200288       0.00397188
C        3.82760123       2.21859609       3.93936970       0.00395948      -0.00384314      -0.00728564
N        1.15418656       6.38797916       3.86371874       0.00157169       0.00009975      -0.00745499
C        0.08021553       8.53225592       3.75140795      -0.00206914       0.00596937       0.01504029
C        7.51052623      -0.04728013       3.81662571       0.00289721       0.00275802      -0.01123033
C        6.29749539       2.11497768       3.85163259      -0.00188856      -0.00718289       0.00355925
C        5.13258018       4.24396036       3.96842891       0.00132229       0.00511586       0.00242566
C        3.92087272       6.36248370       4.06272395      -0.01238512       0.00402849      -0.01320514
C        2.55519416       8.45475619       3.88538357      -0.00552533      -0.00447669       0.00425482
C        9.96381927      -0.04700301       3.77245400      -0.00346205      -0.00934604       0.00458954
C        8.74401690       2.10711264       3.71029062      -0.00085201       0.00056397       0.00520478
C        7.53956471       4.26605782       3.74589085       0.00081122       0.00437186      -0.00494975
C        6.33136394       6.42466615       3.83082051       0.00588796       0.00718095       0.00181483
C        5.04694334       8.53150445       3.85855787       0.00372600      -0.00209651      -0.00430868
C        0.10052526       1.45104324       3.66829655       0.00514081       0.00183426       0.00183104
C       -1.15128259       3.54624030       3.49958067       0.00449528       0.00533127      -0.00124674
C       -2.38057165       5.70092463       3.55738397       0.00491216      -0.00284704       0.00350228
C       -3.59890714       7.86451111       3.70214605      -0.00836107      -0.00320873      -0.01228348
C       -4.82381672      10.02415727       3.77199457      -0.00837242      -0.00336760      -0.00052366
C        2.55184901       1.54229246       3.81862283       0.00499123       0.00258351      -0.00847113
O        1.22377126       3.57100635       3.48043089      -0.00235036       0.00015328       0.00119071
C        0.02395382       5.69202460       3.52619158       0.00807888      -0.00010488      -0.01261557
C       -1.15647410       7.85574092       3.65605498       0.00192218      -0.00236617       0.00666064
C       -2.37957673      10.02570208       3.77999407      -0.00228898       0.00088745       0.00044682
C        5.03811734       1.45427851       3.88106994      -0.00130031      -0.00419313      -0.00487455
N        3.94497093       3.58736269       4.09887815       0.00202418      -0.00224951       0.01107218
C        1.28768893       7.75293412       3.82748997      -0.00784453      -0.00154020       0.00946247
C        0.09587976       9.95693830       3.80366876       0.00330937       0.00938206      -0.00653035
C        7.51906085       1.38541871       3.79699944      -0.00131265      -0.00173635      -0.01321412
C        6.33476251       3.52947288       3.85336304       0.00028296      -0.00333985      -0.00317444
C        5.14572377       5.67973846       3.95393691      -0.00201096       0.01314516      -0.00177658
C        3.81799560       7.78182681       3.94008325      -0.00135840       0.00685056       0.00137314
C        2.56504313       9.89315411       3.82622002      -0.00334911      -0.00805890      -0.00712678
C        9.97308089       1.39031179       3.68632847      -0.00006058      -0.00211868      -0.00026678
C        8.75179761       3.54261743       3.66338545      -0.00012507       0.00368087       0.00169614
C        7.53771523       5.69804960       3.73512588       0.00549285       0.00683890       0.00480298
C        6.29589627       7.85482435       3.81873833       0.00099083       0.00037715      -0.00444503
C        5.03860150       9.95583789       3.79005618      -0.00287007      -0.00641939       0.00590292
Pt       2.58415454       5.07789987       4.34581364       0.00087738      -0.01138331       0.00118553
O        1.44082497       4.32930630       5.83018748       0.00672060       0.00395851       0.01311103
O        0.91305790       5.44790123       6.57348751       0.00502302       0.00191085      -0.00075323
H        0.82939414       5.02513644       7.45276214      -0.00937842      -0.00733154       0.00377718
