50
Lattice="12.336457 0.0 0.0 -6.168228499999997 10.683685154694365 0.0 0.0 0.0 15.0" Properties=species:S:1:pos:R:3:forces:R:3 energy=-442.99985770106997 free_energy=-442.99985770106997 stress="-0.0032098816315841716 -0.0013280450887766732 1.9853766923502983e-06 -0.0013280450887766732 0.010012370555845718 -8.46799940000908e-06 1.9853766923502983e-06 -8.46799940000908e-06 2.7287557240707128e-06" pbc="T T T"
C       -0.01507143       0.00596565       3.73474095       0.00081038       0.00256590       0.00715285
C       -1.27764794       2.10085866       3.68073216       0.00339871       0.00182827       0.00293103
C       -2.51642887       4.24906044       3.57274956       0.00195894       0.00453034       0.00063606
C       -3.72404867       6.40833370       3.56391933      -0.00090158       0.00343922       0.01514172
C       -4.94669376       8.56306809       3.64967926      -0.00049822       0.00172613       0.00211049
C        2.45060289       0.06528358       3.83913047       0.00513648      -0.00340269      -0.00590087
C        1.18300520       2.18844157       3.93168473      -0.00393943       0.00323607      -0.00918315
C       -0.10434139       4.23183822       3.83781414      -0.00277128      -0.00351184       0.00594511
C       -1.29428180       6.40320462       3.72845801       0.01003813       0.00432814       0.00899796
C       -2.49172600       8.56426630       3.75097913      -0.00836194      -0.00597224      -0.00013970
C        4.91765865       0.00027450       3.83262766       0.00589920      -0.00246441      -0.01760346
C        3.70506258       2.21258869       3.90778919      -0.00228449       0.00422709      -0.00074243
C        1.10676959       6.31527573       4.17519617      -0.00399032       0.00179490      -0.00293853
C       -0.00947151       8.49416396       3.87920002      -0.00718319      -0.00386580      -0.01007390
C        7.39143663      -0.06419542       3.76352864      -0.00725417       0.00203102       0.00523772
C        6.15302363       2.11335927       3.67359713       0.00231672       0.00638977      -0.01433513
C        4.94356473       4.27654096       3.58173470      -0.00272376      -0.00446730      -0.00326234
O        3.79928484       6.42291893       3.44603109      -0.00302960      -0.01334297      -0.00855449
C        2.48023038       8.43091874       3.81560204       0.00667229       0.00131080      -0.00604173
C        9.84097267      -0.06075057       3.69660787      -0.00133574       0.00581338       0.00480751
C        8.60508575       2.09329592       3.60609029       0.00191394      -0.01041023       0.00047532
C        7.38020043       4.25547699       3.49960416       0.00361871       0.00247229       0.00860832
C        6.16794627       6.40851606       3.49223712      -0.00510460       0.00062184      -0.00576362
C        4.93037009       8.52169938       3.62826771       0.00913885       0.00105249       0.00979496
C       -0.02741666       1.43292976       3.77788183       0.00089819       0.00218998      -0.00428251
C       -1.30129315       3.51852026       3.65626808       0.00073251       0.00101343       0.00514460
C       -2.50742811       5.68271241       3.59877234       0.00956011       0.00995232       0.01066910
C       -3.71456931       7.84465152       3.64797373      -0.00899385      -0.00139582      -0.00276677
C       -4.94116750      10.00301298       3.74900411       0.00164903      -0.00028650       0.00389778
C        2.44724803       1.51035251       3.92984176      -0.00196504       0.00058908      -0.00994894
N        1.06017906       3.56133544       4.05616918      -0.00541627      -0.00154824       0.00336752
C       -0.08833074       5.66311153       3.89310602       0.00317570      -0.00674452       0.00540790
C       -1.26459067       7.82829728       3.78938148      -0.00684275      -0.00004446       0.00842460
C       -2.49183157       9.99899288       3.82159417       0.00574540      -0.00679530      -0.00470197
C        4.91629014       1.43562736       3.80482129       0.00261514       0.00441695      -0.00983811
N        3.79837835       3.59612590       3.94148962      -0.00852600       0.00583750      -0.00873304
C        1.22315823       7.71840795       3.96672737      -0.00305829      -0.00062891       0.00463508
C       -0.01502500       9.92849598       3.82988090      -0.00271080      -0.00675485      -0.00638519
C        7.38061744       1.37463311       3.67264426      -0.00331419      -0.00133169      -0.00007554
C        6.15598941       3.54025184       3.54543881       0.00277552       0.00532879      -0.00406948
C        4.98037486       5.69606060       3.46134979      -0.00253903      -0.00892592       0.00336712
C        3.73260302       7.79864585       3.64108849       0.01180205      -0.00970591      -0.00197782
C        2.45471643       9.87213258       3.75533008      -0.00321261       0.00743032       0.01178528
C        9.83393661       1.37477544       3.65129597       0.00529017      -0.00048581       0.00019182
C        8.60219521       3.52710854       3.53867012       0.00186746      -0.00720260       0.00610968
C        7.39147651       5.68327662       3.49968527      -0.00276162       0.00421655       0.00004773
C        6.17125594       7.83919345       3.56926538       0.00601845       0.00241546      -0.00024076
C        4.91921178       9.94898294       3.68896378       0.00001752       0.00598524       0.00093631
Pt       2.39072022       4.86947478       4.77449445      -0.01288460      -0.00660845      -0.00284553
O        3.52517511       5.68971354       5.94714499       0.00855373       0.00915318       0.00458142
