51
Lattice="12.336457 0.0 0.0 -6.168228499999997 10.683685154694365 0.0 0.0 0.0 15.0" Properties=species:S:1:pos:R:3:initial_magmoms:R:1:forces:R:3 energy=-448.7050093784069 free_energy=-448.7050093784069 stress="-0.00783335467956457 -0.002455975906867138 4.430235696448528e-07 -0.002455975906867138 0.008497931988345942 1.755803041725357e-06 4.430235696448528e-07 1.755803041725357e-06 -8.758617569277963e-06" pbc="T T T"
C       -0.04976572       0.03110529       3.75498510       0.00000000       0.00114305       0.00502118       0.00929308
C       -1.32049229       2.12019881       3.70215789       0.00000000      -0.00782333      -0.00410392      -0.00137304
C       -2.55848910       4.27647689       3.55439498       0.00000000       0.00311140      -0.00630979      -0.01044182
C       -3.75246785       6.44235925       3.52034475       0.00000000       0.00307713       0.00342744       0.00651153
C       -4.97066164       8.59976197       3.64859467       0.00000000      -0.00621596       0.00451971       0.00867064
C        2.42028255       0.10748455       3.76007025       0.00000000       0.00077971      -0.00090655      -0.00205384
C        1.14463282       2.21120248       3.86498245       0.00000000      -0.00443757       0.00046827      -0.00169551
C       -0.15786897       4.24586357       3.75953160       0.00000000      -0.00102368       0.00468329       0.01025810
C       -1.33752733       6.43458805       3.63011397       0.00000000      -0.00325218      -0.00363576       0.00087888
C       -2.52262727       8.60191628       3.66248484       0.00000000       0.00088413      -0.00121351      -0.00237523
C        4.88370379       0.04206904       3.72982458       0.00000000      -0.00119584      -0.00439894      -0.00814042
C        3.66863278       2.26800968       3.77135017       0.00000000      -0.00315626       0.00804454      -0.00801587
C        1.07641668       6.34723313       3.90958804       0.00000000      -0.00037797       0.00477259       0.01108716
C       -0.04981804       8.53631575       3.76141382       0.00000000       0.00866718      -0.00040123      -0.00600172
C        7.36002810      -0.03781988       3.72588981       0.00000000      -0.00340636       0.00195766      -0.00369160
C        6.12615019       2.13735401       3.60128931       0.00000000      -0.00406690       0.00088186       0.01284435
C        4.93214326       4.30582197       3.58283291       0.00000000      -0.00037166       0.00643834       0.00280578
O        3.90606948       6.43400153       4.12179890       0.00000000       0.01082123      -0.00724720      -0.00318442
C        2.45026988       8.45325541       3.86169662       0.00000000       0.00736162      -0.00211407       0.00545892
C        9.80731611      -0.03925371       3.74426175       0.00000000      -0.00518012      -0.00705368       0.00116105
C        8.57203827       2.11750713       3.60277390       0.00000000      -0.00422431       0.00317537      -0.00364367
C        7.35254518       4.28563664       3.47002407       0.00000000      -0.00006412       0.00147588      -0.00150676
C        6.15819504       6.44920504       3.53175563       0.00000000       0.01236526      -0.00004319       0.00977660
C        4.90509557       8.54324561       3.76593704       0.00000000       0.00376750      -0.00258169       0.00093625
C       -0.06840029       1.45433011       3.77847707       0.00000000      -0.00354488       0.00352941       0.00093901
C       -1.35697861       3.53521975       3.65060614       0.00000000       0.00202945      -0.00347943      -0.01130472
C       -2.54652009       5.70997419       3.54520352       0.00000000      -0.00255546      -0.00616999       0.00550208
C       -3.74382743       7.87944958       3.59745184       0.00000000      -0.00364617       0.00506863       0.00620796
C       -4.96992471      10.03844469       3.73088941       0.00000000      -0.00205607       0.00507052       0.00818190
C        2.41382903       1.55005983       3.82105925       0.00000000      -0.00119996      -0.00088211      -0.00343253
N        1.01065516       3.57533525       3.96859724       0.00000000      -0.00702573      -0.00197591      -0.00263692
C       -0.15252750       5.68109291       3.73816579       0.00000000       0.00067804       0.00316349       0.00335390
C       -1.30206419       7.86508362       3.67732338       0.00000000       0.00427049      -0.00242049       0.00349601
C       -2.52330528      10.03897001       3.72424196       0.00000000      -0.00025904      -0.00352133       0.00121405
C        4.88295884       1.47563838       3.70092731       0.00000000      -0.00399448      -0.00174810      -0.00560157
N        3.77260276       3.63416434       3.83687683       0.00000000      -0.00160518       0.00454718       0.00314813
C        1.17421151       7.77446240       3.84728742       0.00000000       0.00983541       0.00198089      -0.00067820
C       -0.05186244       9.96833856       3.74209172       0.00000000       0.00060485      -0.00027608      -0.00325403
C        7.35164170       1.39775736       3.63608493       0.00000000      -0.00387237       0.00225891      -0.00118276
C        6.13658440       3.56267119       3.49243463       0.00000000      -0.00241510       0.00183284      -0.00879086
C        4.99973060       5.71323760       3.62314613       0.00000000       0.00459197       0.00233716       0.00477039
C        3.71857100       7.82157799       3.88570141       0.00000000       0.00569573      -0.00588150      -0.00805255
C        2.42315209       9.89816868       3.77648879       0.00000000      -0.00548473      -0.00330200      -0.00333369
C        9.79635911       1.39553017       3.67801845       0.00000000      -0.00771316      -0.00428641       0.00050456
C        8.56686528       3.55259535       3.52535918       0.00000000      -0.00050228       0.00115455      -0.00219146
C        7.37062497       5.71558435       3.47512788       0.00000000       0.00850510       0.00040812      -0.01057359
C        6.15147988       7.87400604       3.64687779       0.00000000       0.00069136      -0.00370253      -0.00152066
C        4.88613737       9.97155642       3.75542595       0.00000000       0.00273300      -0.00120834       0.00076009
Pt       2.34524398       5.02546884       4.28443594       0.00000000       0.00069382       0.00323887      -0.01390872
O        4.28209528       4.71164454       6.13395954       1.00000000       0.00006459      -0.00214729       0.00499967
O        3.08478991       4.25773935       5.97859633       1.00000000      -0.00170113       0.00155436       0.00582607
