50
Lattice="12.336457 0.0 0.0 -6.168228499999997 10.683685154694365 0.0 0.0 0.0 15.0" Properties=species:S:1:pos:R:3:forces:R:3 energy=-443.0446660747476 free_energy=-443.0446660747476 stress="-0.0030531725854921455 0.0013802199119047765 -8.581055500368122e-06 0.0013802199119047765 0.009259001190349682 4.266396636852771e-06 -8.581055500368122e-06 4.266396636852771e-06 -7.669004600339679e-07" pbc="T T T"
C       -0.00218113       0.04845165       3.81672710       0.00561777       0.01078380      -0.00480624
C       -1.25061531       2.14762351       3.74547023       0.00234537       0.00701863      -0.00592869
C       -2.49328846       4.28912506       3.55967087      -0.00626046       0.00248681      -0.00019511
C       -3.72376453       6.44385598       3.53463985       0.00314817      -0.00832226       0.00193999
C       -4.94279371       8.59715975       3.68800733       0.00244778       0.00239857      -0.00018542
C        2.45842728       0.10352523       3.75515737       0.00178977       0.00467866      -0.00787188
C        1.21729503       2.26358055       3.91341303      -0.00116867      -0.00741692      -0.00911935
C       -0.06578008       4.29105995       3.79847194      -0.00440426      -0.00420858       0.01010129
C       -1.28555055       6.44630884       3.60546116      -0.00324815       0.00037142       0.00341945
C       -2.49425141       8.59619435       3.64150391      -0.00033910       0.00415219       0.00998882
C        4.92490724       0.02047547       3.69638212      -0.00058125       0.00634877      -0.00023233
C        3.73785476       2.16877128       3.64655732      -0.00990026      -0.00538175      -0.00074105
N        1.06056396       6.41384290       4.03590450       0.00476444      -0.00405153      -0.00199889
C       -0.02448028       8.54071463       3.76199369       0.00498665      -0.00684991       0.00561614
C        7.40097592      -0.02658629       3.75424799      -0.00646310      -0.00449633       0.00182857
C        6.17787296       2.13004505       3.58794790      -0.00330706       0.00756613      -0.01351877
C        4.98264952       4.25651437       3.51538718       0.00141312       0.00081882       0.00307738
C        3.79923588       6.37600645       4.08083559      -0.01047090      -0.00413033      -0.00482864
C        2.44303843       8.47884789       3.95287660       0.00285927      -0.00345369       0.00233347
C        9.85448873      -0.02042896       3.81677929      -0.00014780      -0.00620788       0.00069953
C        8.62949237       2.12936129       3.63912631       0.00426011      -0.00042923       0.00586951
C        7.39970657       4.28581321       3.51645184       0.00137100       0.00188676      -0.00080694
C        6.16993797       6.42907156       3.60016321       0.00134965       0.00107713      -0.00843452
C        4.93236247       8.54909186       3.84156685      -0.00161108       0.00456861      -0.00815663
C        0.00648787       1.48809198       3.83245081       0.00075540       0.00793019      -0.00157963
C       -1.27194596       3.56780597       3.66598663      -0.00620175       0.00630615       0.00643564
C       -2.50441322       5.71920387       3.53281312      -0.00036040      -0.00375568       0.01724776
C       -3.72263620       7.87782626       3.60739199       0.00146778      -0.00576622      -0.00538809
C       -4.93551904      10.03631827       3.76538696       0.00492088       0.00639485       0.00190138
C        2.47581053       1.55308156       3.79444079      -0.00497103      -0.00385319       0.00561124
N        1.10761403       3.64640434       4.06975312      -0.00318361      -0.01433086       0.01008220
C       -0.08962830       5.73049015       3.76625560      -0.00698892      -0.00122254       0.00294362
C       -1.26790700       7.87011684       3.65322727       0.00153491       0.00090902       0.00262347
C       -2.49105870      10.03265665       3.69886635       0.00150601       0.00818478       0.00512344
C        4.93393571       1.44739963       3.64473104      -0.00426717       0.00585853       0.00252245
O        3.79598948       3.54478814       3.47154412       0.00100846      -0.00764403      -0.00759633
C        1.18328969       7.78657021       3.92262104       0.00655355       0.00006688       0.01112785
C       -0.00912688       9.96701411       3.73712097      -0.00413514      -0.00592963      -0.00041217
C        7.39704591       1.41029258       3.65680890      -0.00231350       0.00246654      -0.00275855
C        6.17614117       3.55500836       3.51500164       0.00230674       0.00572364      -0.00213202
C        4.95234472       5.67779192       3.67222561       0.00588701      -0.00098432       0.00084511
C        3.70227769       7.78093114       3.96747894       0.00092043       0.00044796      -0.00229224
C        2.45524226       9.91863056       3.84581880      -0.00421883      -0.00707662      -0.00549379
C        9.85734984       1.41274327       3.72922550       0.00611741      -0.00258335       0.00998745
C        8.62207672       3.56382753       3.55463610      -0.00221993       0.00135396       0.00272107
C        7.39007747       5.71702497       3.52446693       0.00242634      -0.00188669      -0.00586041
C        6.16631649       7.85857796       3.71135233      -0.00301419       0.00540148      -0.01387047
C        4.93086733       9.97969320       3.83511226       0.00457745       0.00495968      -0.01002806
Pt       2.40412568       5.15499514       4.82922039       0.01045989      -0.00047973      -0.00108262
O        3.16317942       3.97113562       5.97766247       0.00298118       0.00030132       0.00127198
