49
Lattice="12.336457 0.0 0.0 -6.168228499999997 10.683685154694365 0.0 0.0 0.0 15.0" Properties=species:S:1:pos:R:3:forces:R:3 energy=-432.1626035804047 free_energy=-432.1626035804047 stress="-0.0042022422312775224 0.0010790722874566563 7.013596664360937e-06 0.0010790722874566563 0.004391917552532494 6.1000297664916465e-06 7.013596664360937e-06 6.1000297664916465e-06 -3.14361850339898e-06" pbc="T T T"
C        0.00236267       0.02099583       3.73710918       0.00574891       0.00554310      -0.01148666
C       -1.24197957       2.12128174       3.51103698      -0.00268597       0.00936638      -0.00333517
C       -2.47981758       4.27129962       3.38547122      -0.00265444       0.00153760       0.00934222
C       -3.71457472       6.41996242       3.52800141       0.00071692      -0.01117697       0.00291455
C       -4.94055677       8.56391011       3.75453039       0.00251330      -0.00499227      -0.00287096
C        2.46298307       0.06560843       3.72292193      -0.01101927       0.00966266      -0.00166981
C        1.20886599       2.16901935       3.72249364      -0.00178856      -0.00731750      -0.01257668
C       -0.08187688       4.27304909       3.46327888       0.00624639       0.00653213      -0.01463322
C       -1.27699232       6.42089655       3.47622114      -0.00067192       0.00234235      -0.00426812
C       -2.49054632       8.57232887       3.59636980      -0.00264052      -0.01189178       0.00480132
C        4.92838542       0.00653188       3.65842825      -0.00945723      -0.00473336       0.00674447
C        3.74239999       2.14880301       3.83095456       0.00052247       0.00999851      -0.01459552
C        1.11267383       6.37387980       3.92307863      -0.00034212      -0.00557980       0.01205386
C       -0.02186510       8.53246260       3.69410399       0.01150587       0.00142855      -0.00624301
C        7.40487013      -0.03380081       3.64264697       0.00141688       0.00477858      -0.00158664
C        6.18814489       2.10721137       3.63590855       0.00541734       0.00197772       0.00620992
C        5.07536202       4.21899800       4.06913668      -0.00597052      -0.00611811      -0.00160594
P        3.77101852       6.40409605       5.24113768       0.00405265      -0.00708101       0.00550979
C        2.45804295       8.51498783       3.96194671      -0.01225209       0.00687595      -0.00421948
C        9.86478244      -0.02313909       3.68750186       0.00697851      -0.00411598       0.00614462
C        8.63833589       2.11398130       3.49116984      -0.00075163      -0.00661659       0.00399928
C        7.42186802       4.26400120       3.56721956       0.00839297       0.00278064       0.00146040
C        6.21050308       6.39265103       3.94691624       0.00187478       0.00043217       0.00685565
C        4.94404338       8.55764466       4.00110714      -0.00121121       0.00783639      -0.00561697
C        0.00870170       1.45628211       3.65255690      -0.00592496       0.00290217      -0.00742208
C       -1.25359692       3.54049248       3.40270233       0.00201398       0.01343349      -0.00438668
C       -2.48949781       5.69905456       3.41787258      -0.00122714      -0.00367052       0.00502517
C       -3.71519922       7.85159697       3.61243976      -0.00077216      -0.01502159       0.00996044
C       -4.93066146      10.00858760       3.74758841      -0.00163280       0.00142005      -0.00794478
C        2.46977662       1.52104467       3.77385247       0.00275093       0.00939632      -0.00733270
O        1.13937752       3.58939553       3.61957097       0.00572921      -0.00771945      -0.00272009
C       -0.06928834       5.67694951       3.56680865       0.00112041       0.00684219      -0.00828644
C       -1.26272167       7.84714099       3.57514537       0.00862645       0.00103283       0.00058583
C       -2.48377889      10.00733247       3.66512149      -0.01780680      -0.00521663      -0.00401806
C        4.93461129       1.43608917       3.70283853       0.00267436       0.00070182       0.00466848
O        3.85323751       3.52235937       4.15365975      -0.01388398       0.00147147       0.00796102
C        1.20193436       7.78639985       3.87375710      -0.00098603      -0.00470846       0.00127720
C       -0.00806535       9.95556141       3.66166836       0.00336310       0.00304510       0.00212904
C        7.40547058       1.39434877       3.56514792      -0.00006128       0.00030308      -0.00307725
C        6.21442572       3.52027612       3.70804550       0.00808837       0.00218154       0.00190199
C        5.08671317       5.59590609       4.29479698      -0.00434554      -0.01093241       0.00494894
C        3.70130617       7.89480247       4.24390900      -0.00627733       0.01171847      -0.00596079
C        2.46392405       9.93613971       3.74014339      -0.00233521       0.00459530       0.00380377
C        9.87241711       1.40289625       3.53776252       0.00140785      -0.00547004       0.00858036
C        8.63829377       3.54697666       3.44181140       0.00053610      -0.00572336       0.01252134
C        7.41143617       5.68917335       3.64385045       0.00268676      -0.00052322       0.00251505
C        6.18223626       7.83753540       3.92708753       0.00258378       0.00023126       0.00525058
C        4.93799784       9.97521757       3.79378706       0.01208380       0.00448490      -0.00114148
Pt       2.38191009       5.01032922       4.38410392      -0.00235342      -0.00624368      -0.00016677
