51
Lattice="12.336457 0.0 0.0 -6.168228499999997 10.683685154694365 0.0 0.0 0.0 15.0" Properties=species:S:1:pos:R:3:initial_magmoms:R:1:forces:R:3 energy=-449.06233694077116 free_energy=-449.06233694077116 stress="-0.007635814377642385 0.0005610139878964322 4.917283473655799e-06 0.0005610139878964322 0.007534740114151617 -4.630834161302805e-06 4.917283473655799e-06 -4.630834161302805e-06 -1.191485447169108e-06" pbc="T T T"
C        0.03322052       0.05927022       3.68949627       0.00000000       0.00111712      -0.00225859      -0.00090356
C       -1.21666200       2.16031582       3.56044079       0.00000000      -0.00099227       0.00030951       0.00005659
C       -2.44146111       4.31162915       3.51942385       0.00000000      -0.00028366       0.00235258      -0.00276596
C       -3.66063311       6.47040817       3.58815648       0.00000000      -0.00150224      -0.00053736      -0.00108732
C       -4.88861149       8.62783892       3.69205275       0.00000000       0.00128631      -0.00187721      -0.00478267
C        2.49766458       0.13464354       3.73043866       0.00000000       0.00100558      -0.00116678       0.00348480
C        1.23054577       2.21693611       3.61970434       0.00000000       0.00373830       0.00488720      -0.00663784
C       -0.04669432       4.32138856       3.44067529       0.00000000       0.00857435       0.00489987      -0.00297417
C       -1.23874734       6.47284282       3.53545901       0.00000000       0.00056537      -0.00047774       0.00131459
C       -2.44617995       8.62939049       3.66630362       0.00000000       0.00164849      -0.00085737      -0.00170267
C        4.96457190       0.06522521       3.77335395       0.00000000       0.00250301       0.00145973      -0.00485336
C        3.75927841       2.26034921       3.85707518       0.00000000       0.00162046       0.00204283      -0.00420228
N        1.09095811       6.42628670       3.89085316       0.00000000       0.00409804       0.00256338       0.00131823
C        0.01410434       8.57225866       3.75006725       0.00000000       0.00235679       0.00076071      -0.00447259
C        7.44262720      -0.00447546       3.77113840       0.00000000      -0.00165125      -0.00292507      -0.00061622
C        6.22875205       2.15729865       3.77036540       0.00000000       0.00509536       0.00275818       0.00439865
C        5.06370054       4.28662462       3.86132778       0.00000000      -0.00916585      -0.00395066       0.00080895
C        3.86022574       6.40691664       3.98999158       0.00000000       0.00345014       0.00528002      -0.00688470
C        2.48787602       8.49781816       3.85835221       0.00000000      -0.00222124       0.00249158      -0.00038576
C        9.89534140      -0.00535414       3.72415265       0.00000000      -0.00276291       0.00095484       0.00195547
C        8.67506712       2.14873530       3.65164856       0.00000000      -0.00266984      -0.00229590      -0.00140878
C        7.46949810       4.30827236       3.65310096       0.00000000      -0.00002747       0.00032233       0.00064137
C        6.26451053       6.46765744       3.72673100       0.00000000       0.00132612       0.00138974      -0.00067452
C        4.97994938       8.57483407       3.78816071       0.00000000      -0.00378080      -0.00044485      -0.00211089
C        0.03272121       1.49200953       3.61147931       0.00000000      -0.00192721      -0.00034217      -0.00322829
C       -1.21953484       3.58678396       3.48214330       0.00000000      -0.00375988      -0.00122466      -0.00078634
C       -2.44559239       5.74170391       3.52292604       0.00000000      -0.00204589       0.00127542      -0.00250650
C       -3.66624102       7.90676237       3.63948791       0.00000000      -0.00019471      -0.00012142      -0.00270585
C       -4.89175919      10.06586491       3.70751193       0.00000000       0.00047897      -0.00112098       0.00333244
C        2.48470176       1.58566463       3.75027508       0.00000000       0.00134225       0.00318368       0.00468427
O        1.15510339       3.61808302       3.48465400       0.00000000       0.00518863       0.00895419       0.00595009
C       -0.04286783       5.73285032       3.55652914       0.00000000       0.00050673      -0.00390381       0.00258112
C       -1.22248675       7.89679884       3.64830126       0.00000000      -0.00060670      -0.00192116       0.00321704
C       -2.44681187      10.06654391       3.73300201       0.00000000       0.00187722       0.00074523       0.00214275
C        4.96928561       1.49624591       3.80898744       0.00000000       0.00486879       0.00256179       0.00276783
N        3.88023325       3.63049198       4.01391783       0.00000000      -0.01395196      -0.00409825       0.00123081
C        1.22073562       7.79407187       3.83538627       0.00000000       0.00114611      -0.00318454       0.00170502
C        0.02918988       9.99863567       3.77292002       0.00000000       0.00063621       0.00098798      -0.00175889
C        7.45018147       1.42736349       3.73130263       0.00000000      -0.00105897      -0.00240949       0.00187965
C        6.26563579       3.57142981       3.75142580       0.00000000      -0.00116332       0.00000064      -0.00035091
C        5.08125191       5.72231956       3.84819923       0.00000000       0.00031641      -0.00491457       0.00124263
C        3.75266769       7.82762759       3.88291323       0.00000000      -0.00186303      -0.00025962       0.00078701
C        2.49708982       9.93629043       3.78618986       0.00000000      -0.00294553       0.00354320       0.00095365
C        9.90363307       1.43140765       3.63997700       0.00000000      -0.00090411      -0.00245136       0.00068721
C        8.68240119       3.58356481       3.59766706       0.00000000      -0.00077567      -0.00093596      -0.00053101
C        7.47031246       5.73992059       3.64048674       0.00000000       0.00210489      -0.00018103       0.00646926
C        6.22879396       7.89831228       3.73154415       0.00000000       0.00094537       0.00110567       0.00204446
C        4.97035450       9.99863765       3.73178275       0.00000000      -0.00046677      -0.00086762       0.00392892
Pt       2.53757326       5.12684646       4.32440431       0.00000000       0.00134731      -0.02226473      -0.00333700
O        1.76296211       3.23384814       6.03368970       1.00000000       0.00207069      -0.00475431       0.00093290
O        1.38847380       4.46184830       5.85355942       1.00000000      -0.00449369       0.01691687       0.00115233
