50
Lattice="12.336457 0.0 0.0 -6.168228499999997 10.683685154694365 0.0 0.0 0.0 15.0" Properties=species:S:1:pos:R:3:forces:R:3 energy=-443.5006855360918 free_energy=-443.5006855360918 stress="-0.004479108986552068 -0.002068509194632937 6.045598624017777e-07 -0.002068509194632937 0.008043375176510704 1.1308937136750204e-05 6.045598624017777e-07 1.1308937136750204e-05 -8.816868795847236e-07" pbc="T T T"
C        0.01222360       0.01816494       3.69083614       0.00349100       0.00080649      -0.00282720
C       -1.24532148       2.12464901       3.55691902       0.00412333       0.00065783      -0.00053163
C       -2.46316998       4.28354663       3.49227702      -0.00032696       0.00192324      -0.00911223
C       -3.66958796       6.44350986       3.53088297       0.00152602       0.00067969       0.00303353
C       -4.89940876       8.59584928       3.64694937      -0.00877907      -0.00662328       0.01219478
C        2.47694973       0.09421345       3.74708559      -0.00727088       0.01099778      -0.00425954
C        1.19420575       2.16283472       3.62281596      -0.00216046       0.00417066       0.01318904
C       -0.04866552       4.24805142       3.45297319       0.00931791      -0.00410772       0.00890684
C       -1.22711275       6.42615426       3.54402230      -0.00687243      -0.00510810      -0.00832275
C       -2.45133086       8.59591251       3.66151075       0.00235328       0.00656044      -0.01138231
C        4.94344362       0.04519345       3.81004138      -0.00141418       0.00610685      -0.00838961
C        3.70029118       2.25918896       3.94543128      -0.00193097      -0.00483977       0.01858804
C        1.13833734       6.36628396       4.01480248      -0.00621892       0.00406000      -0.00620216
C        0.00932662       8.54506438       3.80078294       0.00710017      -0.00023800      -0.00043123
C        7.42068655      -0.02202668       3.80664726      -0.00125573      -0.00544414       0.00414149
C        6.19043779       2.14545917       3.77020244       0.00718511      -0.00739708       0.00446917
C        5.01179920       4.30704334       3.89678730       0.00596141       0.00036231       0.00132423
N        3.89437595       6.42385983       4.12715366      -0.01136731      -0.00141779      -0.00424150
C        2.49500632       8.47860424       3.95456775       0.00086026      -0.00076354       0.00160674
C        9.87325816      -0.02896075       3.75148200      -0.00417813      -0.00958535       0.00429489
C        8.64243868       2.12635366       3.63609046       0.00288326       0.00446935      -0.00411244
C        7.43657885       4.28871376       3.59339584      -0.00368486       0.00485134       0.01082880
C        6.23799652       6.45438814       3.66649598       0.00857809      -0.00070434       0.00661286
C        4.96840526       8.54301118       3.79718402      -0.00648621       0.00047566       0.00287332
C       -0.00435175       1.44110728       3.62203285       0.00311552       0.00183413       0.00177249
C       -1.24343823       3.55058926       3.47240232       0.00635216       0.00279303      -0.00527283
C       -2.44887231       5.71490150       3.49370642      -0.00464365      -0.00224526      -0.00273600
C       -3.67159170       7.87694871       3.59570307      -0.00194934       0.00065338       0.00724381
C       -4.90874907      10.02891649       3.69357480      -0.00205950      -0.00269853       0.00374451
C        2.44803080       1.53349888       3.80050978      -0.00589021       0.00713449      -0.00932480
O        1.13142039       3.52982535       3.40730459       0.00638819      -0.00239500       0.00248066
C       -0.00523769       5.67242876       3.60271664      -0.00861824      -0.00406716      -0.00276713
C       -1.22333502       7.85550324       3.66515734       0.00647209      -0.00017904      -0.01150510
C       -2.45981308      10.03175796       3.75151433      -0.00465474       0.01262921      -0.00491718
C        4.93570360       1.47983689       3.85611554       0.00135882       0.00054509      -0.01156998
C        3.81599522       3.65522069       4.15679289       0.00403928      -0.00384807      -0.00178960
C        1.23816888       7.77061209       3.93071234       0.00619722       0.00047468       0.00237635
C        0.00949077       9.97641681       3.81443350      -0.00174901       0.00000082      -0.00078518
C        7.41893718       1.40905353       3.73203919       0.01011607      -0.00419345       0.01288290
C        6.22126609       3.57045729       3.72027682       0.00129256      -0.00608626      -0.00601786
C        5.04223083       5.74369223       3.86588967       0.00380901       0.00576201      -0.00542476
C        3.76007987       7.78957955       3.96953434      -0.00644974       0.00370087      -0.00123935
C        2.48335846       9.91638051       3.84167792      -0.00620740      -0.00844138      -0.00385418
C        9.87368781       1.40631395       3.64233285       0.00168183      -0.00527456      -0.00350640
C        8.65236688       3.56194375       3.55594801      -0.00486824       0.01050372       0.00345914
C        7.44956565       5.72215451       3.57039163       0.00777195       0.00149350      -0.00133327
C        6.21324565       7.87178780       3.69041261      -0.00827836      -0.00383917       0.00814867
C        4.94798717       9.96533354       3.74505088       0.00085782      -0.00053332      -0.00209851
Pt       2.52667907       5.12320825       4.83615914       0.00210859       0.01150338      -0.00601336
O        1.53116624       4.09894886       5.96539764       0.00237359      -0.01511961       0.00579580
