50
Lattice="12.336457 0.0 0.0 -6.168228499999997 10.683685154694365 0.0 0.0 0.0 15.0" Properties=species:S:1:pos:R:3:forces:R:3 energy=-435.97809981784525 free_energy=-435.97809981784525 stress="-0.004634351670843284 0.004601731514399234 -1.2383325150473047e-05 0.004601731514399234 0.0045890795667489544 -1.7622997676494863e-05 -1.2383325150473047e-05 -1.7622997676494863e-05 2.251070753048876e-06" pbc="T T T"
C        0.02482751       0.01973912       3.73171024      -0.00021441       0.00488230      -0.00990530
C       -1.20013146       2.15319359       3.44715163       0.00254293       0.00099078      -0.01112137
C       -2.46104077       4.29453585       3.49874717       0.00088601      -0.01205137      -0.00130019
C       -3.69848028       6.43158946       3.74566446       0.00243462       0.00556733       0.00056723
C       -4.92001731       8.57558014       3.87317946      -0.00434481      -0.00220554       0.00466044
C        2.49559882       0.05306901       3.90061396       0.00642818      -0.00217315      -0.00310590
C        1.30737320       2.13168660       3.46163782      -0.00566910      -0.00147888       0.00946792
C       -0.08701591       4.39601184       3.04602377      -0.00817316      -0.00171287       0.00018451
C       -1.29931582       6.48513459       3.40430540      -0.00359313      -0.00578518       0.00818733
C       -2.46693246       8.58343248       3.79109156       0.00340419       0.00360776      -0.00357418
C        4.96164844       0.01327881       3.90901099       0.00122065       0.00528383      -0.00879155
C        3.78798937       2.14205259       4.02112636      -0.00490801       0.00220880      -0.00107157
O        1.07073067       6.45534371       3.50674811       0.00681147      -0.00103646      -0.00644428
C       -0.00616368       8.55786402       3.70750133      -0.00485852       0.00939815      -0.00076946
C        7.44131610      -0.02724784       3.80964724       0.00011767      -0.00360582      -0.00395248
C        6.23666471       2.11881908       3.96648965       0.00434246      -0.01043610      -0.00185098
C        5.06528885       4.24571066       4.15731647       0.00589762       0.01002881       0.00440438
C        3.79620303       6.36996606       4.12607810      -0.00490214       0.00759755       0.00103851
C        2.45392016       8.47475109       3.81030883      -0.00347765      -0.00335899      -0.00196561
C        9.89474569      -0.02094009       3.71310583      -0.00518189      -0.00229979       0.00495273
C        8.68280813       2.12883377       3.70693183       0.00779714       0.00487368       0.00157422
C        7.45468980       4.27321350       3.86066797      -0.00550833       0.00698244      -0.00800939
C        6.21404229       6.41072670       3.96715647      -0.00147330      -0.00717629      -0.00804311
C        4.94608393       8.53059666       3.88037430       0.00930129      -0.00891854      -0.00625196
C        0.05080769       1.44992746       3.53039382      -0.00230810       0.00675299      -0.00291763
C       -1.23773660       3.59164970       3.29226724       0.00143632      -0.00763224       0.00264687
C       -2.49435630       5.72291102       3.54043606      -0.00327851      -0.01150901      -0.00134021
C       -3.69875424       7.86163303       3.81026016       0.00010845       0.00817362       0.00025682
C       -4.91149628      10.00737846       3.84701957      -0.00089843       0.00187757       0.00910803
C        2.52600563       1.48922372       3.83943531      -0.00493524      -0.00481370       0.00221831
P        1.50041319       3.71355729       2.64485309      -0.00644308      -0.00153292       0.01558327
C       -0.13363503       5.79046590       3.17482583      -0.00160605      -0.00208412      -0.00560846
C       -1.26007113       7.88418486       3.63316600       0.00096615      -0.00163445       0.01136640
C       -2.45309168      10.01152856       3.89995412       0.00912736       0.00101818      -0.00833997
C        4.98432826       1.43897542       3.99291332      -0.00249453       0.00044337       0.00294074
O        3.88892975       3.51550317       4.34454679       0.00539163      -0.00047061      -0.00037861
C        1.19114021       7.84922568       3.69330388      -0.00453591       0.00202696      -0.00349292
C        0.02473494       9.97596141       3.82498705      -0.00263094       0.00945038       0.00241304
C        7.45128660       1.41074288       3.83579688       0.01114680      -0.00608518      -0.00260662
C        6.24326251       3.53859281       4.01016866       0.00126210      -0.00478807      -0.00072865
C        5.00950369       5.66065547       4.09974554       0.00083650       0.00865518       0.00247609
C        3.71378277       7.76451287       3.93233109       0.00333130       0.00235853       0.00373444
C        2.49093358       9.91916746       3.77046671      -0.00623854      -0.00869661       0.00101022
C        9.91358299       1.41880130       3.61189228       0.00523473       0.00378443       0.00629369
C        8.67308485       3.56182773       3.69172196      -0.00383177       0.00390760       0.00092084
C        7.42917857       5.69832874       3.86553176       0.00160056       0.00492709      -0.00209958
C        6.18847755       7.84121196       3.91158942       0.00352849      -0.01424376      -0.00349316
C        4.95885237       9.96404133       3.76645436      -0.00127258      -0.00289523       0.00119494
Pt       2.33174039       5.07997340       4.46452997      -0.00613373       0.00735624       0.00370276
O        1.26124087       4.30821753       5.75872404       0.00375722       0.00647130       0.00625939
