49
Lattice="12.336457 0.0 0.0 -6.168228499999997 10.683685154694365 0.0 0.0 0.0 15.0" Properties=species:S:1:pos:R:3:forces:R:3 energy=-433.8655924370485 free_energy=-433.8655924370485 stress="-0.004435781016543638 2.363177857843219e-06 -1.3870964371003136e-05 2.363177857843219e-06 0.0032198118519292294 4.257528793393977e-06 -1.3870964371003136e-05 4.257528793393977e-06 3.6809499846752918e-06" pbc="T T T"
C       -0.00735661       0.01868187       3.58109172       0.00032555       0.00252036      -0.00230563
C       -1.25193018       2.12081334       3.38947762      -0.00267318      -0.00381068      -0.00098391
C       -2.48884789       4.26764786       3.25491057      -0.00647858      -0.00067054       0.00532594
C       -3.70648741       6.42112458       3.40186351      -0.00097917      -0.00145731       0.00867596
C       -4.93771363       8.56791499       3.60427939       0.00261047       0.00629758      -0.00259572
C        2.45291664       0.04354922       3.62378689       0.00588168      -0.00163980      -0.00556274
C        1.18881811       2.20566680       3.74781989       0.00186016       0.00431669       0.00004637
C       -0.06557631       4.25947570       3.45640841       0.00347031      -0.00255493       0.00661313
C       -1.26891703       6.42578644       3.28984598       0.00178562       0.00682172       0.00726931
C       -2.48297714       8.57070876       3.42165617      -0.01106047       0.00233895      -0.00387151
C        4.93093637      -0.00377943       3.63977697       0.00437927      -0.00307444      -0.00824463
C        3.69970355       2.06321189       4.15705682      -0.00876246      -0.00654228      -0.00858514
N        1.05851237       6.38892414       3.82600599       0.00360911       0.00049819       0.00218013
C       -0.01463063       8.51840949       3.54473623      -0.00132189      -0.00607004      -0.01294178
C        7.39768060      -0.03510393       3.58657205       0.00129198      -0.00389876      -0.00302496
C        6.19567634       2.11116755       3.85203427       0.00215980       0.00447571      -0.00196577
C        5.22298976       4.27935769       4.60319120       0.00176476      -0.00673166       0.00452857
P        3.76701254       6.49256193       5.26500387       0.00083177      -0.00776811      -0.00240888
C        2.45065021       8.49630631       3.84595768      -0.00162667       0.00761265       0.00277883
C        9.85403308      -0.03136140       3.55286477      -0.00045106       0.00131752       0.00007106
C        8.62525084       2.11352313       3.45199981       0.00280570      -0.00218308      -0.00035345
C        7.44041565       4.26688929       3.65733041      -0.00233768       0.00187045       0.00957942
C        6.27339383       6.43158717       4.02874808      -0.00896238      -0.00677156       0.00022711
C        4.94329460       8.56079184       3.89032314       0.00106558      -0.00031800       0.00107860
C       -0.01504786       1.44802151       3.54244780       0.00089763       0.00142247      -0.00704394
C       -1.26913256       3.54036301       3.29005626      -0.00146731      -0.00262000       0.00322458
C       -2.48893579       5.69873000       3.25481301       0.00094292       0.00371890       0.00318447
C       -3.71045430       7.85317638       3.45156020      -0.00609012      -0.00142076       0.00302263
C       -4.93885852      10.00146463       3.58596026       0.00621167       0.00645008      -0.00180462
C        2.45065037       1.47012655       3.84422535      -0.00697971      -0.00664539       0.00263202
N        1.05810816       3.57688678       3.82530455       0.01055956       0.00523273       0.00408202
C       -0.06535423       5.70673584       3.45654617       0.00153674       0.00009661       0.00685513
C       -1.25109147       7.84535265       3.39010454      -0.01049588       0.00680523      -0.00075783
C       -2.48235621       9.99777902       3.55273403       0.00331129      -0.00199615       0.00002350
C        4.94303384       1.40618855       3.88824159      -0.00020409      -0.00036841       0.00351933
P        3.76653205       3.47353961       5.26392872       0.01329748       0.00083328       0.00089919
C        1.18908534       7.76035535       3.74959620       0.00210226      -0.00073952       0.00049212
C       -0.00734108       9.94794020       3.58231781       0.00143292      -0.00884293      -0.00264887
C        7.39822936       1.39853921       3.60385103       0.00631974      -0.00307586      -0.00192830
C        6.27299595       3.53535174       4.02763085      -0.00639738       0.00333660       0.00123542
C        5.22281312       5.68729704       4.60291922       0.00361807       0.00425943       0.00993050
C        3.69980551       7.90413040       4.15973996      -0.00225046       0.00074892      -0.01052464
C        2.45304524       9.92271451       3.62433588       0.00063670       0.00437217      -0.00251239
C        9.85252698       1.39569918       3.42171961       0.00029091      -0.00266215      -0.00431861
C        8.62994215       3.54558665       3.40233280      -0.00674917      -0.00022937       0.00580024
C        7.44049618       5.69999579       3.65768666      -0.00026134      -0.00149594       0.00748501
C        6.19612158       7.85566030       3.85392331       0.00211380      -0.00119314      -0.00675464
C        4.93113620       9.97044759       3.63994189      -0.00210181       0.00056179      -0.00660950
Pt       2.32459565       4.98261140       4.61006043       0.00053734       0.00887281      -0.00301316
