52
Lattice="12.336457 0.0 0.0 -6.168228499999997 10.683685154694365 0.0 0.0 0.0 15.0" Properties=species:S:1:pos:R:3:forces:R:3 energy=-446.9954416588223 free_energy=-446.9954416588223 stress="-0.010101855126427327 0.004123567533447491 5.198799736173181e-06 0.004123567533447491 -0.0013314982305943203 -1.251913153904631e-05 5.198799736173181e-06 -1.251913153904631e-05 5.5960030694760786e-06" pbc="T T T"
C       -0.06796053      -0.02647999       3.78523784       0.00057750      -0.00341183       0.00737086
C       -1.29870902       2.10772922       3.77814766       0.00617326       0.00211916      -0.00023554
C       -2.55022037       4.25425021       3.98115896      -0.00079672      -0.00179953      -0.00127605
C       -3.80581866       6.39239130       3.99756311       0.00494384       0.00128243      -0.01167445
C       -5.02553020       8.52499726       3.84104399      -0.00429403       0.00335365       0.00470366
C        2.39750296       0.00551977       3.92110683       0.00366201       0.00074583      -0.00561107
C        1.18952109       2.08478519       3.55656238      -0.00249792       0.00237399      -0.00589817
C       -0.19376706       4.34243464       3.55952353       0.00480139       0.00669568      -0.00038437
C       -1.39093570       6.43515928       4.02737423       0.00870281       0.00110970      -0.00853800
C       -2.57329944       8.55003383       4.07316005      -0.00659170      -0.00130034       0.00806148
C        4.86992074      -0.02423725       4.04381556       0.00163808       0.00526107       0.00018954
C        3.69711490       2.14544647       3.82770848      -0.00748537       0.00053665       0.00714242
N        0.99423222       6.40323908       3.94106650       0.00604267      -0.00743021       0.01384323
C       -0.09427900       8.51463179       4.06116823      -0.00248291       0.00288420      -0.00146502
C        7.35175082      -0.06427550       4.04998996      -0.00146290       0.00399551      -0.00413596
C        6.14774615       2.06940334       3.94560101      -0.00586045      -0.00457494      -0.00374423
C        4.99590793       4.16538299       3.52401613      -0.00024662      -0.00262116      -0.01587409
P        3.56305850       6.31074499       2.52368568       0.00624339       0.00074849       0.00559327
C        2.38949543       8.47279155       3.80817075      -0.00262219      -0.00243062      -0.00762006
C        9.80686737      -0.05301984       3.89083369      -0.00061496      -0.00313935      -0.00337629
C        8.59345902       2.08624213       3.99809671      -0.00124240      -0.00305260       0.00100036
C        7.37164385       4.22774964       3.89416948      -0.00956644      -0.00375753       0.00987932
C        6.12489424       6.35882376       3.57828421       0.00675616       0.00011612       0.00039972
C        4.85476970       8.50625624       3.61857465       0.00691256      -0.00307792      -0.00023903
C       -0.05841461       1.40411244       3.70277425       0.00338414      -0.00418038       0.00062377
C       -1.33033380       3.54675834       3.79015378       0.00544161       0.00376100      -0.00441061
C       -2.58643208       5.68137593       4.03979480       0.00625929       0.00109499      -0.00363641
C       -3.80099971       7.82300829       3.98638309      -0.00703894       0.00187291       0.00427165
C       -5.00625289       9.95849343       3.85349094       0.00274955       0.00103176       0.00463620
C        2.41933221       1.43400218       3.78993051      -0.00425485       0.00125444      -0.00935330
P        1.21184569       3.66236293       2.70335114      -0.00880758       0.00412246       0.00782786
C       -0.19298870       5.74905362       3.81929276       0.00865748      -0.00035588      -0.00189516
C       -1.34753008       7.84201071       4.09597913      -0.00159567       0.00120254      -0.01169140
C       -2.55048885       9.97263430       4.03421048       0.00324360       0.00080857       0.00337148
C        4.90250598       1.39076599       3.94857014      -0.00638399       0.00284208       0.00712590
N        3.82640304       3.50757860       3.75726353      -0.00261696      -0.00016142      -0.00711850
C        1.11793816       7.76698160       3.94154016      -0.00333158      -0.00573048       0.00911315
C       -0.06714908       9.93230252       4.07333925       0.00051267       0.00620202      -0.00138231
C        7.36913227       1.36004085       4.02937380      -0.00391629       0.00001440       0.00269529
C        6.18556498       3.47213091       3.77613375      -0.00655904      -0.00652998       0.00186366
C        5.00055557       5.57438675       3.26670758       0.00056784       0.00418371       0.01002943
C        3.60443917       7.83240310       3.46697562       0.00577846       0.00314416      -0.00585497
C        2.40582987       9.89868464       3.95388616      -0.00349306      -0.00147372      -0.00377100
C        9.82239743       1.38035138       3.91507221       0.00304594       0.00073032      -0.00738337
C        8.58801447       3.51690430       3.99685584      -0.00674629      -0.00266089       0.00440221
C        7.33708532       5.65647324       3.84611237       0.00238231      -0.00176839       0.00345871
C        6.09597829       7.79985525       3.64571789       0.00440917      -0.00147916       0.00479157
C        4.86748030       9.93242266       3.77828451       0.00032444      -0.00464248       0.00945193
Pt       2.38909420       4.92168119       4.09945500       0.00126956      -0.00849475      -0.00598751
O        3.14307614       5.84827885       5.73651743      -0.00644525       0.00662302       0.00227120
O        4.13868698       4.97630835       6.35134814      -0.00174338      -0.00877450      -0.00877709
H        4.19054843       5.39279495       7.23857255       0.00421778       0.01273718       0.00721608
