50
Lattice="12.336457 0.0 0.0 -6.168228499999997 10.683685154694365 0.0 0.0 0.0 15.0" Properties=species:S:1:pos:R:3:forces:R:3 energy=-445.30132596386255 free_energy=-445.30132596386255 stress="-0.009440614916918905 4.026309733393468e-06 -6.100198564417568e-06 4.026309733393468e-06 0.008052512042193968 -7.326880560623683e-08 -6.100198564417568e-06 -7.326880560623683e-08 6.698991893405786e-07" pbc="T T T"
C       -0.00017157       0.01823736       3.75652056       0.00011816      -0.00201366       0.00465308
C       -1.25719789       2.11141977       3.69367478      -0.00021278       0.00172622      -0.00688359
C       -2.49251053       4.26695569       3.58529480      -0.00219266      -0.00054306      -0.00032264
C       -3.70085797       6.43054496       3.59514283       0.00023967       0.00278494       0.00306523
C       -4.92332213       8.58906004       3.69658841      -0.00052414      -0.00141207      -0.00172367
C        2.46745113       0.09323650       3.77732196      -0.00057008      -0.00114681       0.00656711
C        1.20232445       2.21617667       3.83229412      -0.00094083      -0.00386016      -0.00793877
C       -0.09286936       4.26636569       3.70341645       0.00236138      -0.00036479      -0.00267346
C       -1.28363282       6.43127082       3.63942799      -0.00022943      -0.00217471      -0.00566694
C       -2.47834941       8.58907917       3.69401479       0.00093813      -0.00087604      -0.00364202
C        4.93495068       0.01836926       3.75901335      -0.00099832      -0.00202807       0.00273428
C        3.73237921       2.21624959       3.83945333       0.00136686      -0.00339348      -0.00919635
N        1.08251732       6.37219124       3.88230251      -0.00044708       0.00440324      -0.00168050
C       -0.00880192       8.51935118       3.76113180      -0.00215823       0.00334306       0.00798062
C        7.41241459      -0.05905664       3.74802899       0.00095125       0.00190816       0.00810632
C        6.19211528       2.11154328       3.70284260      -0.00053581       0.00138056      -0.00729390
C        5.02824964       4.26645941       3.72136787      -0.00195961      -0.00005304      -0.00421812
N        3.85216470       6.37219601       3.89419913      -0.00046065       0.00447128      -0.00035685
C        2.46740189       8.42883619       3.83343398      -0.00032700       0.00235615       0.00933351
C        9.85880443      -0.05908224       3.74641430       0.00017461       0.00174982       0.01043616
C        8.63566619       2.09929667       3.65385046      -0.00070194      -0.00151115      -0.00521964
C        7.42736136       4.26694055       3.59306792       0.00125098       0.00046440      -0.00058786
C        6.21863005       6.43118397       3.65167304      -0.00046532      -0.00284944      -0.00479025
C        4.94348175       8.51925449       3.76631097       0.00245361       0.00164244       0.00847603
C       -0.00876001       1.44707560       3.76054519      -0.00259281      -0.00246198       0.00789596
C       -1.28362303       3.53518834       3.63888490       0.00032271       0.00242856      -0.00531496
C       -2.49253455       5.69955674       3.58550682      -0.00206126      -0.00022435      -0.00053458
C       -3.70086569       7.86716801       3.65414683       0.00042608       0.00186606      -0.00484479
C       -4.92400245      10.02555348       3.74785242       0.00012552      -0.00219597       0.00856075
C        2.46739443       1.53763588       3.83402113       0.00016015      -0.00235393       0.01062871
N        1.08245869       3.59427012       3.88233276       0.00057451      -0.00427334      -0.00155351
C       -0.09285400       5.70009305       3.70358758       0.00161419       0.00061901      -0.00302413
C       -1.25727174       7.85502407       3.69455118       0.00057820      -0.00133151      -0.00668167
C       -2.47757454      10.02556208       3.74777359      -0.00122129      -0.00215683       0.01034963
C        4.94356015       1.44727392       3.76791999       0.00200828      -0.00278928       0.00799576
N        3.85215591       3.59427146       3.89493142       0.00064709      -0.00417351      -0.00121405
C        1.20234756       7.75028418       3.83222522      -0.00152010       0.00395623      -0.00742173
C       -0.00017324       9.94820582       3.75734853       0.00015758       0.00267360       0.00564698
C        7.41317981       1.37745315       3.69687476      -0.00081216       0.00085895      -0.00109670
C        6.21865639       3.53529842       3.65226514      -0.00036755       0.00236203      -0.00444633
C        5.02826568       5.69995972       3.72098894      -0.00272657       0.00064988      -0.00417008
C        3.73237652       7.75020100       3.83821327       0.00062516       0.00360995      -0.00835308
C        2.46738579       9.87323811       3.77657986       0.00059347       0.00102175       0.00715170
C        9.85817142       1.37737755       3.69291747       0.00008756       0.00104796      -0.00255697
C        8.63566522       3.53591671       3.59510615      -0.00083129      -0.00231247       0.00257167
C        7.42732347       5.69948039       3.59288696       0.00188266       0.00054516      -0.00032892
C        6.19205078       7.85498853       3.70175602      -0.00009275      -0.00252045      -0.00657062
C        4.93487141       9.94814520       3.75733324       0.00029168       0.00114539       0.00465581
Pt       2.46611956       4.98327437       4.25540420       0.00015987      -0.00008994      -0.00543392
O        2.44174227       4.98344498       6.14297699       0.00484032       0.00009524      -0.00106870
