49
Lattice="12.336457 0.0 0.0 -6.168228499999997 10.683685154694365 0.0 0.0 0.0 15.0" Properties=species:S:1:pos:R:3:forces:R:3 energy=-432.58175519497536 free_energy=-432.58175519497536 stress="-0.009619491397730322 0.004145267205581968 5.507856069059479e-07 0.004145267205581968 -0.0019234255177352638 1.117638442246266e-06 5.507856069059479e-07 1.117638442246266e-06 2.5028942361183136e-06" pbc="T T T"
C        0.00004753       0.00184163       3.72582873      -0.00021741       0.00270123       0.00369620
C       -1.22611109       2.13782728       3.62552215       0.00061363      -0.00544647      -0.00435500
C       -2.47509964       4.28218208       3.75634519      -0.00952458       0.00753945       0.01498586
C       -3.72608722       6.41968374       3.84510975       0.00318326      -0.00255287       0.00919587
C       -4.95565656       8.55247213       3.79725742       0.00038016       0.00348391      -0.00301260
C        2.46302448       0.02441649       3.90410631      -0.01087909       0.00542465      -0.00822882
C        1.26559454       2.10749944       3.49777203       0.00831738       0.00454977      -0.00421115
C       -0.09396740       4.36142082       3.39463231      -0.00505773      -0.00512550       0.00251246
C       -1.31031733       6.46313492       3.78451732       0.00021483       0.00221403       0.01085350
C       -2.49978570       8.57209298       3.96299160      -0.00101806       0.00117463       0.00029998
C        4.93497170       0.00355520       4.02419135      -0.00348104       0.00033779      -0.00912184
C        3.74370184       2.17232951       3.90088856      -0.00190134       0.00117943      -0.00268303
N        1.06938342       6.42228943       3.85995607      -0.00510073       0.00248379      -0.00816301
C       -0.02813021       8.54483500       3.96489725       0.00406156      -0.00161139      -0.00648226
C        7.41554791      -0.02756162       3.98935055       0.01144972      -0.00737272       0.00250807
C        6.20650568       2.10225483       3.96247195       0.00123021      -0.00305441      -0.01063049
C        5.03671244       4.20175879       3.66495811       0.00585158       0.00415616       0.01676852
P        3.57403710       6.27239156       2.67213714      -0.00545109       0.01536134      -0.00427921
C        2.45417546       8.51031235       3.78487466      -0.00302871      -0.00169178      -0.00410788
C        9.87244937      -0.01705103       3.80768995       0.00684369      -0.00154683      -0.00376310
C        8.66070328       2.11853469       3.87589982      -0.00164692       0.00305188       0.00288053
C        7.43953394       4.25761322       3.83302059      -0.00105577      -0.00256240       0.00902403
C        6.18431594       6.39278062       3.61772612       0.01023024      -0.00252534      -0.00035485
C        4.92288168       8.53612314       3.61720972      -0.00822597      -0.00134817       0.00063773
C        0.01138533       1.43061280       3.60668268       0.00769941       0.00145266       0.00241025
C       -1.25135380       3.57422468       3.58124830      -0.01106078      -0.00019379       0.00743705
C       -2.50510078       5.70930796       3.80816470       0.00083830       0.00474189       0.00938368
C       -3.72639076       7.84824953       3.87890453       0.00043324      -0.00155857       0.00339478
C       -4.93905384       9.98423251       3.81673369      -0.00631105       0.00435230      -0.00619981
C        2.47909947       1.45643930       3.79609550       0.00070362       0.00385959      -0.00226711
P        1.37005417       3.68727264       2.65653183       0.00838887      -0.01237941      -0.00230652
C       -0.10396344       5.76605156       3.61733376      -0.00521075      -0.00430624       0.00958711
C       -1.27275166       7.86465608       3.93505105       0.00160026       0.00241868      -0.00738405
C       -2.48172173       9.99432755       3.99249314      -0.01107774       0.00381350       0.00786604
C        4.96160437       1.42195567       3.98735139      -0.00272215       0.00040867      -0.00852294
N        3.86160063       3.54326775       3.89063806       0.00245427      -0.00021165      -0.01251634
C        1.18889245       7.79374509       3.87707161       0.00004352       0.00060393      -0.00139208
C       -0.00110995       9.96295086       4.01821536       0.00423302      -0.00320086      -0.00938526
C        7.43410816       1.39485165       3.97079355       0.00310502      -0.00334982       0.00217894
C        6.24356287       3.50502222       3.82765090       0.00259584      -0.00234113       0.00352878
C        5.02588638       5.60528480       3.43914453       0.00454207       0.00299654      -0.00286149
C        3.67007338       7.85874094       3.50090221      -0.01000846      -0.00709334      -0.00418205
C        2.47023931       9.94249526       3.89412302       0.01219964      -0.00555723      -0.00477910
C        9.88948696       1.41468304       3.78333190      -0.00108661      -0.00224357      -0.00338896
C        8.66102225       3.54712128       3.84383683      -0.00510033       0.00370650       0.01022809
C        7.40910705       5.68452787       3.78092028       0.00775264      -0.00605899       0.01354309
C        6.15979340       7.82896544       3.64801105      -0.00091627       0.00320068      -0.00795017
C        4.93379819       9.96548811       3.72558332       0.00161350      -0.00169591       0.00142093
Pt       2.46069374       4.98133731       4.20855171      -0.00049690      -0.00018464      -0.00181236
