50
Lattice="12.336457 0.0 0.0 -6.168228499999997 10.683685154694365 0.0 0.0 0.0 15.0" Properties=species:S:1:pos:R:3:forces:R:3 energy=-438.4985708796026 free_energy=-438.4985708796026 stress="-0.005014191293210942 -0.0027634387734178836 3.0576612036358235e-06 -0.0027634387734178836 0.006222026562000878 3.97576506138367e-06 3.0576612036358235e-06 3.97576506138367e-06 1.3027381906773456e-05" pbc="T T T"
C       -0.02743358       0.01799763       3.92231897       0.00074229      -0.00255219      -0.00618221
C       -1.29360004       2.11578876       4.00050671      -0.00688824      -0.00583965      -0.00807889
C       -2.52825441       4.26630321       3.99831554       0.00197974       0.00343110       0.00530245
C       -3.71941330       6.42537057       3.90595673      -0.00806073      -0.00688365      -0.00509513
C       -4.94552992       8.58015873       3.87139197       0.00681761      -0.00256745      -0.00370198
C        2.44310133       0.04968524       3.87917641      -0.00568855      -0.00352775      -0.00144773
C        1.16861654       2.19214125       3.90327829       0.00710758      -0.00275150       0.00723538
C       -0.10546794       4.25428319       4.07865160      -0.00221108      -0.00439956       0.00279165
C       -1.29298255       6.42009987       4.06215918       0.00140058      -0.00114022      -0.00651779
C       -2.48659004       8.57113775       3.95510688      -0.00362490       0.00373976       0.00457110
C        4.91761586      -0.00037274       3.74291433      -0.00252353       0.01060607      -0.00283328
C        3.65142487       2.09622193       3.37014984       0.00530503       0.01239343       0.01318508
N        1.09913006       6.36326978       3.99658220       0.01060890       0.00117954      -0.00096088
C       -0.00932596       8.50716396       3.90521298      -0.00411800      -0.00135839      -0.00509822
C        7.38424315      -0.04540247       3.74962805      -0.00467526      -0.00497251       0.00891859
C        6.15158725       2.13301830       3.48958900       0.00833369       0.00187356      -0.00680074
C        5.06691990       4.38121434       3.01133051       0.00411318       0.00488228      -0.00009670
O        3.85583199       6.45586296       3.28769187      -0.00231199       0.00214983       0.00774597
C        2.47048835       8.43488020       3.77852282      -0.00271770       0.00685564       0.00071179
C        9.82875895      -0.04468227       3.85240241       0.00189244      -0.00248680       0.00583360
C        8.59173735       2.11465490       3.81214412      -0.00689411      -0.00259365      -0.00910585
C        7.39289756       4.28250501       3.63967671       0.00789308      -0.00703827       0.00231057
C        6.22616511       6.47037439       3.49522521       0.01093017       0.00557877       0.00565919
C        4.92964207       8.54424162       3.73845776       0.00144330      -0.00500262      -0.00042562
C       -0.04431982       1.44428910       3.96616116      -0.00047555      -0.00144803       0.00300097
C       -1.31347716       3.53683154       4.06022557      -0.00607597      -0.00691581      -0.00259159
C       -2.51149469       5.69500881       4.01602997      -0.00430877       0.00257119       0.00661216
C       -3.71472932       7.85827352       3.92695161       0.00113408      -0.00576951      -0.00623554
C       -4.95030582      10.01109421       3.91933233      -0.00226019      -0.00594518      -0.00035819
C        2.42896527       1.48086924       3.73927776       0.00699101      -0.00001652       0.01376131
N        1.07319680       3.56528316       4.00777871      -0.00434208      -0.00406734      -0.00713463
C       -0.08855031       5.69577045       4.07128404       0.00755473      -0.00434467      -0.00616549
C       -1.25998537       7.84027657       3.99088946      -0.00326457      -0.00077207      -0.00720644
C       -2.48963563      10.00059181       3.86941928      -0.00415112       0.00706743      -0.00217996
C        4.90700140       1.41953118       3.51592567       0.00785537       0.01274802       0.00572802
P        3.58172228       3.60073766       2.38075903      -0.01496483      -0.00311981      -0.00579503
C        1.20271179       7.73762639       3.88971664       0.00294595       0.00426874      -0.00431805
C       -0.01657895       9.94135913       3.79236606      -0.00754240       0.00034007       0.00315112
C        7.36710420       1.40055962       3.68047245      -0.00314808      -0.00739048      -0.00145466
C        6.19004594       3.57687994       3.35647604       0.00897464       0.00093860       0.00155889
C        5.08743146       5.78243808       3.13228935       0.00757159       0.00490223       0.01223045
C        3.73812161       7.82836352       3.64911850      -0.00545724       0.00260416      -0.00220253
C        2.44446020       9.88745779       3.79444052      -0.00000780       0.00615433       0.00587118
C        9.81771751       1.39360074       3.90743258      -0.01053762      -0.00395686      -0.00242785
C        8.59211468       3.54918055       3.83810437       0.00878616      -0.00196909      -0.01064718
C        7.41567713       5.71219597       3.69244425      -0.00245408      -0.00980272       0.00071561
C        6.18471034       7.87239080       3.70948157       0.00771068       0.00242282       0.00542247
C        4.90939393       9.96671029       3.86171507       0.00292054      -0.00532370      -0.00653846
Pt       2.57876952       4.86954360       3.96256659      -0.01213952       0.01071649       0.00205880
O        3.36950444       4.86237472       5.63217723      -0.00016843       0.00653196      -0.00277573
