52
Lattice="12.336457 0.0 0.0 -6.168228499999997 10.683685154694365 0.0 0.0 0.0 15.0" Properties=species:S:1:pos:R:3:forces:R:3 energy=-448.17372019655943 free_energy=-448.17372019655943 stress="-0.005431147095532929 -5.149817311073955e-05 -1.59852976970693e-05 -5.149817311073955e-05 0.0014376566039951404 -2.9810513605742725e-05 -1.59852976970693e-05 -2.9810513605742725e-05 1.6720137237041093e-05" pbc="T T T"
C        0.05449041       0.12780777       3.70571769      -0.00128635      -0.00270023      -0.00416814
C       -1.19484012       2.23162347       3.50114393      -0.00082076       0.00042688       0.00120935
C       -2.42756547       4.38137059       3.38555707      -0.00227495       0.00130341       0.00088679
C       -3.64880915       6.53542206       3.49345522      -0.00095796       0.00325092       0.00361570
C       -4.87914952       8.67882018       3.72405700      -0.00219802      -0.00309527      -0.00010983
C        2.51917836       0.17248858       3.75561346       0.00078417       0.00177153       0.00100741
C        1.25468827       2.29737839       3.84046962      -0.00238218      -0.00176419      -0.00809108
C       -0.03679448       4.32465428       3.85709535       0.00286371      -0.00184861      -0.00218483
C       -1.22559900       6.51528919       3.79223209      -0.00261288      -0.00245713       0.00262264
C       -2.41872153       8.67860818       3.71663860       0.00183839      -0.00233770       0.00189285
C        4.98417946       0.12721594       3.69829317      -0.00168585      -0.00152192      -0.00077496
C        3.78487014       2.29642779       3.85304731       0.00101888       0.00025581      -0.00074220
P        1.08115668       6.45832480       5.22070145       0.00184600       0.00133390      -0.00121074
C        0.03604693       8.68074124       3.99951066       0.00025526       0.00146628       0.00772928
C        7.45666250       0.09902535       3.66795180       0.00156220      -0.00319360      -0.00133046
C        6.23295357       2.23231910       3.50400223       0.00106655      -0.00066078       0.00022210
C        5.07858164       4.32538531       3.87576137      -0.00135374       0.00119766       0.00105179
P        3.95388506       6.45827460       5.23593119      -0.00031999      -0.00548371       0.00198177
C        2.51918662       8.70182509       4.20827085       0.00226461       0.00629474       0.00475268
C        9.91912671       0.09897812       3.67201075      -0.00301161       0.00143125       0.00037931
C        8.68749050       2.22849329       3.38227350       0.00197436      -0.00286446      -0.00104834
C        7.46644701       4.38191270       3.39339201       0.00162740      -0.00030292      -0.00336844
C        6.26606021       6.51523022       3.80930330      -0.00182939      -0.00392139       0.00296426
C        5.00305123       8.68110847       4.01231833      -0.00335599       0.00243318       0.00329401
C        0.04388578       1.55058198       3.64788543      -0.00061394      -0.00208337      -0.00870841
C       -1.21929987       3.64379771       3.49641815      -0.00042812       0.00107881      -0.00163270
C       -2.42973229       5.81063332       3.49013627      -0.00395193       0.00110318       0.00496792
C       -3.64908971       7.96352189       3.62828976       0.00067935       0.00105217       0.00434384
C       -4.87471607      10.11547388       3.73996809       0.00088868      -0.00146948       0.00092087
C        2.51953366       1.61188994       3.83899844      -0.00031628       0.00126329      -0.00427086
N        1.10820513       3.62983763       4.10861402       0.00026802      -0.00442008       0.00229304
C       -0.10237180       5.72379004       4.10767312       0.00069537      -0.00147403      -0.00096809
C       -1.20068298       7.95947854       3.85346535       0.00220557      -0.00237582      -0.00262312
C       -2.42328896      10.11527555       3.73487312      -0.00056694      -0.00216563      -0.00330258
C        4.99442272       1.55080848       3.64856444      -0.00123189      -0.00073013      -0.00495760
N        3.93138008       3.63037766       4.12844116       0.00259655      -0.00146156       0.00077067
C        1.25444161       8.04285874       4.37627230       0.00352599       0.00374727      -0.00063612
C        0.04853234      10.08988583       3.76454984      -0.00039844       0.00033303       0.00471622
C        7.45955002       1.51283951       3.47174607       0.00218275      -0.00339394      -0.00274671
C        6.25792704       3.64448003       3.50758436      -0.00159175       0.00199605      -0.00219204
C        5.14390966       5.72285513       4.13069748      -0.00539168       0.00179455       0.00353609
C        3.78299277       8.04319884       4.38422658       0.00033708       0.00666923       0.00285609
C        2.51955789      10.08067231       3.81978199       0.00031278       0.00080753       0.00293493
C        9.91525049       1.51246296       3.47263471       0.00054280      -0.00097423      -0.00252804
C        8.68737518       3.66060140       3.32179643       0.00091739      -0.00248520       0.00242890
C        7.46880102       5.81087978       3.50033603       0.00078349       0.00004804      -0.00115982
C        6.24005128       7.95964713       3.86724480      -0.00385404      -0.00395789      -0.00198386
C        4.99070870      10.09015887       3.77468165      -0.00505286       0.00177227       0.00046322
Pt       2.51544105       4.82862198       4.97016943       0.00305736      -0.00686240       0.01938315
O        2.59332854       3.14348341       6.18361660       0.00808633       0.01746104      -0.00967101
O        1.33677002       3.03263563       6.85589169       0.01023562       0.00111822      -0.00894012
H        1.64368503       2.66088948       7.71046826      -0.00692913       0.00459542      -0.00387476
