50
Lattice="12.336457 0.0 0.0 -6.168228499999997 10.683685154694365 0.0 0.0 0.0 15.0" Properties=species:S:1:pos:R:3:forces:R:3 energy=-438.30738562154 free_energy=-438.30738562154 stress="-0.006492903468809144 0.0027929704179011305 1.6366356933296273e-05 0.0027929704179011305 0.0050740969720944355 -1.0550897454055406e-05 1.6366356933296273e-05 -1.0550897454055406e-05 7.795479528605323e-06" pbc="T T T"
C       -0.01701591       0.01346940       3.82011638       0.00100388       0.00517858       0.00125010
C       -1.25518563       2.11890426       4.04386915      -0.00774102      -0.00300707      -0.00511129
C       -2.49842407       4.26550369       4.07103952      -0.00483679       0.00512245      -0.00749200
C       -3.73182701       6.41002607       3.85529632      -0.00806580      -0.00011704       0.00503019
C       -4.96572163       8.56004517       3.69108498       0.01235812       0.01005951      -0.00333678
C        2.44332261       0.07175547       3.78845979      -0.01166270      -0.01039125      -0.00209227
C        1.20126049       2.21379021       3.88813588      -0.00485575      -0.01083672       0.00112668
C       -0.08517020       4.28062071       4.12031368      -0.00282334       0.00693417      -0.00714280
C       -1.30086493       6.42267833       4.08532061      -0.00108633       0.00848683       0.00000541
C       -2.50919749       8.56674276       3.90320416       0.01917056       0.00245407      -0.00385951
C        4.91432954       0.00047198       3.82755356      -0.00164474      -0.00526360       0.00224547
C        3.73378325       2.17233357       3.59974240       0.00136939      -0.00064646       0.00654614
O        1.05803991       6.41230896       3.95857025       0.00456181       0.01192276       0.00136439
C       -0.04048506       8.52166001       3.93812511       0.00624062      -0.00462879      -0.00124928
C        7.39009520      -0.05147145       3.91059305       0.00318774      -0.00453005       0.00025578
C        6.19727581       2.08572221       3.70059243       0.00429781       0.00773829      -0.01000276
C        5.08568720       4.16879332       3.16950178      -0.00208057       0.00060396       0.00337898
P        3.61348006       6.35658033       2.36899676      -0.00086912      -0.00637593       0.00103005
C        2.41564888       8.47613187       3.71390668      -0.00615435      -0.00982905       0.00879193
C        9.84798849      -0.04498024       3.89422722       0.00742127      -0.00034792       0.00155166
C        8.63093612       2.10021079       3.95965327      -0.00318326       0.00621597      -0.00004217
C        7.43584876       4.24572767       3.70506593      -0.00148631      -0.00835213      -0.01091250
C        6.20849290       6.38743329       3.35532525       0.00746406      -0.00035855      -0.00227873
C        4.90573832       8.53677758       3.52211148      -0.00182750       0.00443578       0.00046859
C       -0.01446026       1.44298697       3.93732171      -0.00916460      -0.00367054       0.00147282
C       -1.28457396       3.54294608       4.12743639      -0.01209328      -0.00317637      -0.00877016
C       -2.51765449       5.69113341       4.03712498      -0.00342377       0.00589415      -0.00290727
C       -3.73988538       7.84554846       3.81992253       0.01540920       0.00543622      -0.00373925
C       -4.95215760      10.00398601       3.76372374      -0.00689445       0.00519826       0.00145042
C        2.45763018       1.51694469       3.75756312      -0.00370735      -0.00847328       0.00493352
N        1.09772978       3.58528031       3.98254080      -0.01074858      -0.00498653       0.00008650
C       -0.13394594       5.68946492       4.11220061       0.00423321       0.01200297      -0.00204906
C       -1.29260662       7.84685809       3.99569628       0.01708747       0.00212405      -0.00118474
C       -2.50382605      10.00589301       3.83459780      -0.00401381       0.00012568       0.00174717
C        4.94268373       1.41485056       3.69878847       0.00941779       0.00074824      -0.00251860
N        3.88738483       3.52129567       3.34220562       0.00109354       0.00613768       0.00936303
C        1.15524546       7.82116425       3.84953278       0.00648110      -0.00558684      -0.00018186
C       -0.02347584       9.95163161       3.89552230       0.00255761      -0.01025534      -0.00019821
C        7.40691096       1.37712881       3.87691434       0.00100243       0.00495142       0.00299873
C        6.25740929       3.48619293       3.50167441       0.00426719      -0.00132009      -0.00764606
C        5.10061578       5.58980294       2.98782400       0.00183309      -0.00391775       0.01445268
C        3.65790100       7.86938268       3.34810883      -0.00939559      -0.01285882       0.01206848
C        2.44228567       9.90589321       3.87702986       0.00603316      -0.00273349       0.00746096
C        9.85574161       1.38578460       3.99854338      -0.00596917       0.00006738      -0.00453170
C        8.63122738       3.53234584       3.94239206      -0.00273225       0.00074380      -0.00788529
C        7.41211867       5.67865482       3.64922192      -0.00306005      -0.01398949      -0.00130693
C        6.15880752       7.83038599       3.49354487       0.00485276       0.00839476      -0.00500525
C        4.91777947       9.95594631       3.76781756       0.00887352       0.00723609       0.00253447
Pt       2.60316135       4.94119330       3.79000070      -0.00608838       0.00815809       0.00097561
O        3.14090696       5.31355276       5.52606762      -0.01460850      -0.00071804       0.00885474
