51
Lattice="12.336457 0.0 0.0 -6.168228499999997 10.683685154694365 0.0 0.0 0.0 15.0" Properties=species:S:1:pos:R:3:initial_magmoms:R:1:forces:R:3 energy=-437.23412345646324 free_energy=-437.23412345646324 stress="-0.0037610053531990533 -0.0014563485808507485 -1.3377604361377925e-05 -0.0014563485808507485 -0.003993382778156606 9.239317906819507e-06 -1.3377604361377925e-05 9.239317906819507e-06 -1.6510012152401863e-05" pbc="T T T"
C       -0.02887377      -0.08734991       4.00652336       0.00000000      -0.00245156      -0.00016583       0.00495676
C       -1.27442229       2.05474422       3.96889807       0.00000000      -0.00051123       0.00522423      -0.00188585
C       -2.53179403       4.18680712       3.70725533       0.00000000      -0.00196294      -0.00128289       0.00000477
C       -3.74204652       6.32804943       3.69813434       0.00000000      -0.00288065      -0.00051453       0.00532629
C       -4.95630128       8.45987282       3.86550065       0.00000000       0.00391803      -0.00146772      -0.01086083
C        2.44742739      -0.12600143       3.89809316       0.00000000       0.00023679      -0.00415542       0.00197034
C        1.22912277       1.99780479       4.11057724       0.00000000       0.00471551       0.00497089      -0.00316373
C       -0.11450816       4.23612064       3.58895307       0.00000000       0.00406992      -0.00572749       0.00275088
C       -1.31216620       6.33108723       3.36556743       0.00000000       0.00019076      -0.00260295      -0.00330208
C       -2.48501285       8.44517910       3.66228901       0.00000000      -0.00438264       0.00301722       0.00394005
C        4.90716005      -0.10282556       3.72453229       0.00000000       0.00277880      -0.00128710       0.00205328
C        3.64908918       1.97460280       3.57068252       0.00000000      -0.00105972       0.00166905       0.00661813
S        1.30926637       6.29570986       2.53704930       0.00000000      -0.00012193      -0.00235677      -0.00301522
C       -0.02309241       8.45367578       3.51841745       0.00000000      -0.00257335       0.00498047       0.00145156
C        7.36782444      -0.08826131       3.79062007       0.00000000      -0.00034032       0.00064094      -0.00593949
C        6.12047429       2.05983456       3.66980487       0.00000000      -0.00189992      -0.00572336       0.00342164
C        4.91627628       4.25865753       3.55387059       0.00000000       0.00547252       0.00265384      -0.00077742
N        3.78422321       6.38924908       4.09041968       0.00000000       0.00021336       0.00148342       0.00657206
C        2.44194796       8.45017202       3.74401453       0.00000000       0.00298196      -0.00044001       0.00076696
C        9.83369567      -0.08363925       3.95129420       0.00000000      -0.00462891      -0.00111347       0.00070071
C        8.58978480       2.05348164       3.84559362       0.00000000      -0.00229852      -0.00399347       0.00379317
C        7.34927416       4.19636681       3.75091575       0.00000000       0.00311769       0.00219092       0.00255855
C        6.15224193       6.35232212       3.80172557       0.00000000      -0.00143145       0.00497287       0.00695333
C        4.91344307       8.46772806       3.88247361       0.00000000       0.00726100      -0.00197490       0.00314176
C       -0.03350652       1.33837542       4.06173460       0.00000000       0.00244739       0.00547470      -0.00530441
C       -1.30364279       3.47159562       3.77296535       0.00000000      -0.00044052       0.00279979       0.00089357
C       -2.52916214       5.60843608       3.58683207       0.00000000      -0.00386275      -0.00158843      -0.00837303
C       -3.72738300       7.74547957       3.73855486       0.00000000      -0.00016428      -0.00196119      -0.00033061
C       -4.96414413       9.87506309       3.94704899       0.00000000      -0.00095855      -0.00394588      -0.00072115
C        2.44813940       1.28798824       3.90147288       0.00000000       0.00067600      -0.00339342      -0.00185029
P        1.37657486       3.71551923       4.39064747       0.00000000      -0.00373100       0.00732840      -0.00121553
C       -0.13815068       5.57924591       3.17795781       0.00000000       0.00362771      -0.00705539      -0.00142020
C       -1.26362055       7.74574854       3.46868854       0.00000000      -0.00522828       0.00238685       0.00175016
C       -2.48668691       9.86332963       3.76449085       0.00000000       0.00204392       0.00185276       0.00286174
C        4.90114774       1.33037777       3.65893922       0.00000000      -0.00257338      -0.00371825       0.00443190
S        3.51030368       3.53900511       2.80864438       0.00000000      -0.01040324       0.00399866      -0.00624305
C        1.23278948       7.80638103       3.39070453       0.00000000       0.00025933       0.00633932      -0.00384857
C       -0.02455792       9.87666011       3.69951762       0.00000000       0.00182807       0.00339504      -0.00359326
C        7.35200610       1.34738616       3.78544372       0.00000000      -0.00253810      -0.00337842      -0.00471018
C        6.10549393       3.49193705       3.66774396       0.00000000       0.00470556      -0.00215748       0.00128951
C        4.90736378       5.66729271       3.80221017       0.00000000      -0.00039583       0.00386934       0.00012871
C        3.69054063       7.73005328       3.87442529       0.00000000       0.00677939      -0.00017894       0.00350713
C        2.43571088       9.87820535       3.85810511       0.00000000      -0.00318923      -0.00021795      -0.00132678
C        9.82991354       1.34406867       3.94138552       0.00000000      -0.00079879       0.00015902      -0.00323235
C        8.57884860       3.47606389       3.78243699       0.00000000       0.00070406      -0.00356716       0.00000672
C        7.36319215       5.61807696       3.76000807       0.00000000      -0.00450194       0.00417203      -0.00257674
C        6.14656687       7.76179036       3.86553335       0.00000000       0.00671708       0.00261057      -0.00443916
C        4.90230865       9.89173820       3.95555275       0.00000000      -0.00294834      -0.00212692      -0.00024980
Pt       2.39057200       5.30263237       5.25098889       0.00000000      -0.00564489      -0.00234052      -0.00764993
O        4.05639494       6.66608642       6.68874427       1.00000000       0.00564728      -0.00809376      -0.00373856
O        2.82731382       6.88128305       6.32626261       1.00000000       0.00353011       0.00033928       0.01791853
