50
Lattice="12.336457 0.0 0.0 -6.168228499999997 10.683685154694365 0.0 0.0 0.0 15.0" Properties=species:S:1:pos:R:3:forces:R:3 energy=-433.81631634715836 free_energy=-433.81631634715836 stress="-0.0008496510933821695 -0.0014469446418999656 -6.883467449323624e-06 -0.0014469446418999656 0.0012948026153966066 1.3942633692839169e-05 -6.883467449323624e-06 1.3942633692839169e-05 5.841903179963808e-06" pbc="T T T"
C       -0.02783155      -0.03163025       3.90720101      -0.00186555      -0.00121954      -0.00546138
C       -1.27528046       2.10682688       4.06922794       0.00598571      -0.00376194       0.00077856
C       -2.51172242       4.25043207       3.83447595       0.00071611       0.00224080      -0.00129285
C       -3.72213425       6.38956107       3.62005853      -0.00331339      -0.00255903       0.01021000
C       -4.95891663       8.52629582       3.68648096      -0.00139526       0.00035670      -0.00188169
C        2.44722643      -0.03923087       3.79696750       0.00188788       0.00518643      -0.00231838
C        1.22932544       2.04558137       4.24795012       0.00370118       0.00070969       0.00034994
C       -0.13844225       4.32834831       4.38504926      -0.00167523      -0.00208855      -0.00700862
C       -1.28725980       6.40545597       3.82491033      -0.00455266      -0.00013696       0.00611093
C       -2.48910753       8.52340442       3.67340597       0.00648855      -0.00696580       0.00519638
C        4.91561069      -0.03218475       3.62554203      -0.00701736      -0.00296637      -0.00259454
C        3.64452440       2.05786105       3.47397549      -0.00644708      -0.00459513      -0.00823943
N        1.09822129       6.41920097       4.21437158       0.00228537       0.00852605      -0.00539733
C       -0.01530972       8.50073925       3.75159309       0.00274663       0.00242792       0.00212369
C        7.38327982      -0.04541570       3.67851353       0.00595381      -0.00921944       0.00820852
C        6.13668656       2.11902954       3.44599330      -0.00455547       0.00227491      -0.00178930
C        4.96947768       4.33910912       3.14873347       0.00172863      -0.00030311       0.00064016
O        3.76479189       6.42030998       3.45448287       0.00016119       0.01400839      -0.00572386
C        2.46267712       8.45100967       3.79233444      -0.00124145       0.00046263      -0.00062431
C        9.83636542      -0.04553628       3.82541312       0.00145318       0.00630664       0.00221280
C        8.60471015       2.10560732       3.71976471      -0.00118821       0.01283507      -0.00169098
C        7.38022079       4.25370180       3.50319257       0.00398091       0.00731031      -0.00935869
C        6.17259963       6.41786317       3.44720910      -0.00279814      -0.00933799       0.00016305
C        4.91226499       8.51579462       3.69446937      -0.00597466      -0.00324450      -0.00382926
C       -0.02793512       1.38931339       4.10119672       0.00688128      -0.00275018      -0.00522297
C       -1.29427039       3.54852859       4.10481816      -0.00095473      -0.00418111      -0.00111833
C       -2.50285060       5.67348749       3.74642631      -0.00310177      -0.00150985      -0.00721574
C       -3.72141557       7.81369122       3.64802763       0.00266564      -0.00295587       0.00557227
C       -4.96015793       9.94467671       3.81341887       0.00195507       0.00487821       0.00547414
C        2.44470318       1.37942226       3.87854949      -0.00243523       0.00316770      -0.00841758
P        1.26349135       3.57903896       5.18403103       0.00042085      -0.00975035       0.01099135
C       -0.08623076       5.72600121       4.12971016      -0.00259881       0.00538081       0.00312619
C       -1.25996551       7.81153952       3.72579593       0.00663360      -0.00263579       0.00312488
C       -2.48616928       9.94500748       3.68630284      -0.00242246      -0.00553012      -0.00291290
C        4.90387146       1.40058738       3.49903139      -0.00850037       0.00097600       0.01179486
S        3.45726113       3.60097081       2.69440388       0.00778445      -0.00942581       0.00297048
C        1.19661255       7.75866341       3.90452825       0.00158232       0.00789595      -0.00574365
C       -0.01595060       9.92955051       3.66620687      -0.00215098      -0.00160688       0.00448417
C        7.36861215       1.39623357       3.60387787       0.00025731      -0.00175725       0.00311367
C        6.14234639       3.55189166       3.34437030       0.00347029       0.00599239       0.00253966
C        4.98624541       5.72857385       3.28664693      -0.00553648       0.00011286      -0.00043946
C        3.70863517       7.81145991       3.66631159      -0.00477501       0.00238398       0.00619596
C        2.44467732       9.89892749       3.76238513       0.00853579      -0.00459747       0.00043874
C        9.83857886       1.39390630       3.87664528       0.00075426       0.00981635      -0.00148505
C        8.60552264       3.53308581       3.68148847       0.00018195       0.01314425      -0.00082183
C        7.39227325       5.67668339       3.51184098      -0.00152060      -0.00082078       0.00631453
C        6.15715069       7.82857289       3.61184584      -0.00386372      -0.00700419      -0.00663606
C        4.90601224       9.94043829       3.82316063      -0.00455082      -0.00234392      -0.00019563
Pt       2.61999406       5.24910159       4.99544840       0.00444840      -0.00377972       0.00193095
O        3.89733381       5.87963354       6.06542057       0.00177507      -0.00934637      -0.00664604
