52
Lattice="12.336457 0.0 0.0 -6.168228499999997 10.683685154694365 0.0 0.0 0.0 15.0" Properties=species:S:1:pos:R:3:forces:R:3 energy=-448.53448395771755 free_energy=-448.53448395771755 stress="-0.007711221940438983 0.0030323401903972944 1.691779425282249e-05 0.0030323401903972944 0.0044462963643239276 3.069002316075321e-05 1.691779425282249e-05 3.069002316075321e-05 -3.0218624730437005e-06" pbc="T T T"
C        0.03396099       0.03206352       3.82624505       0.00069222      -0.00863092       0.00423997
C       -1.20125524       2.13684100       4.01740900      -0.00142324       0.00262766       0.00253106
C       -2.43917981       4.28412423       4.04852126      -0.01058350      -0.00549793       0.00401179
C       -3.67926353       6.42846012       3.86551863       0.00293707       0.00081030       0.00665884
C       -4.91293023       8.57815165       3.71308900      -0.00080542      -0.00695234       0.00340831
C        2.49417657       0.08847927       3.80631015       0.00207753       0.00609156       0.00957062
C        1.25066421       2.24017412       3.83374986      -0.00111474       0.00025580       0.00211967
C       -0.02547074       4.30162956       4.03322133       0.00955866      -0.00228701      -0.00086055
C       -1.25020020       6.44220170       4.08650388      -0.00133468      -0.00475792       0.00491411
C       -2.45788794       8.58541991       3.93667186      -0.01064453      -0.00470179       0.01320240
C        4.96741406       0.01628835       3.89311728      -0.00410126      -0.00182137      -0.00192464
C        3.78688419       2.18692610       3.66754532       0.00013894       0.00947385       0.00781724
O        1.09692254       6.44991413       4.22134997      -0.00364223      -0.00244360      -0.00203376
C        0.00800630       8.54214778       4.03085981      -0.00187261       0.00253467      -0.00528327
C        7.44396306      -0.03628802       3.98714865       0.00607732       0.00362112       0.00915902
C        6.25061184       2.10003732       3.77813692       0.00594688      -0.00148098       0.00657094
C        5.13382432       4.17895907       3.28651096       0.00450401      -0.00133447       0.00074609
P        3.63620440       6.35761068       2.45225554      -0.00801323       0.00935370      -0.00247388
C        2.46894617       8.48898930       3.83083024       0.00524105      -0.00075103      -0.00426440
C        9.90201427      -0.02889873       3.94191205      -0.00244117       0.00395045       0.00172647
C        8.68668987       2.11640915       3.99051305       0.00190880      -0.00008659       0.01003305
C        7.49248576       4.26055336       3.74697733       0.00207281       0.01162852      -0.00761682
C        6.25786909       6.40318062       3.41400095      -0.00529853      -0.00139266       0.00484033
C        4.95511558       8.54971722       3.58546571       0.00042009       0.00239104      -0.00634626
C        0.03659691       1.46292848       3.90822044      -0.00259179      -0.00503081       0.00381215
C       -1.22690317       3.56109564       4.07133598      -0.00183363       0.00409860      -0.00001449
C       -2.46406290       5.71050850       4.02368347      -0.00231340      -0.00667710      -0.00211246
C       -3.68680732       7.86431153       3.83786133      -0.00373895      -0.00604420       0.00149461
C       -4.90152047      10.02076693       3.77697645       0.00587405      -0.00477308      -0.00068496
C        2.50781889       1.52913717       3.76274811       0.00156510       0.00936227       0.00500072
N        1.14200652       3.60506273       3.89627808       0.01015162       0.00038663       0.00075105
C       -0.08302606       5.71074430       4.10500119       0.00668224      -0.00238732       0.00795772
C       -1.24257911       7.86738607       4.04732089      -0.00605118      -0.00195870      -0.01261689
C       -2.45222952      10.02306091       3.87778780      -0.00595302      -0.00392480      -0.00078504
C        4.99752406       1.42951810       3.77129169      -0.00009007       0.00101007       0.00355745
N        3.95100758       3.54041240       3.51947998      -0.00352603       0.00621231      -0.01320550
C        1.20567523       7.83420434       3.98734862       0.00074069      -0.00136915      -0.01041254
C        0.02887263       9.96837975       3.97568415       0.00225563       0.00558562       0.00428739
C        7.46211918       1.39086973       3.94015882       0.00788694       0.00006129       0.00124122
C        6.31439198       3.49785586       3.58557111       0.00714143       0.00297858       0.00154331
C        5.14358966       5.59946269       3.07470370      -0.00206331      -0.00488107      -0.01041493
C        3.70391371       7.87308038       3.45347942       0.00476418       0.00014862      -0.00303436
C        2.49666830       9.92164182       3.96019981       0.00310295       0.00050559      -0.00720107
C        9.90961856       1.40224292       4.01413021       0.00077555       0.00318237       0.00154259
C        8.69063569       3.54808198       3.95711634      -0.00826087      -0.00290302      -0.00581058
C        7.46511100       5.69277555       3.68196519       0.00242223       0.01041980      -0.00252815
C        6.20959988       7.84685289       3.53670008      -0.00259508      -0.00293107       0.00128901
C        4.96938148       9.97279782       3.80566550      -0.00564888       0.00069605      -0.00657400
Pt       2.61839264       4.98913294       3.74154864       0.00985433      -0.00305386      -0.01346156
O        2.72179330       4.37348556       5.65615188       0.00145063       0.01398395      -0.00160524
O        1.67076165       4.98478916       6.40837806       0.00696412      -0.01356778      -0.00176649
H        1.94347398       4.73327320       7.31504879      -0.01726570      -0.00972984      -0.00099531
