50
Lattice="12.336457 0.0 0.0 -6.168228499999997 10.683685154694365 0.0 0.0 0.0 15.0" Properties=species:S:1:pos:R:3:forces:R:3 energy=-436.47394442980783 free_energy=-436.47394442980783 stress="-0.0015189958461503577 -0.0015711424063850757 7.664943447461827e-06 -0.0015711424063850757 -0.004496463112208187 -1.2096562588277307e-05 7.664943447461827e-06 -1.2096562588277307e-05 1.5507217850209893e-05" pbc="T T T"
C        0.07097549       0.01732455       3.91867833      -0.01055965      -0.00788956       0.00587653
C       -1.17722254       2.15045242       4.11423761       0.00237004       0.00261115       0.00401229
C       -2.43480465       4.25931246       4.18830798       0.00549765       0.00104720       0.00571444
C       -3.65176004       6.40009112       3.98855855       0.00384830       0.00622777      -0.01092272
C       -4.88344844       8.53289929       3.87829200      -0.00788803       0.00016787      -0.00711088
C        2.52036349      -0.03212669       3.86751924       0.00001555      -0.00189785      -0.00157580
C        1.29857201       2.13706629       3.68058642      -0.00135939       0.01513231       0.00019576
C       -0.02407232       4.28018238       4.77304469      -0.00257417       0.00716784      -0.00029018
C       -1.20421262       6.39070214       4.05365604       0.00886961      -0.00554539       0.00497161
C       -2.40361727       8.52355222       3.95953543      -0.00370158      -0.00199506      -0.00962203
C        4.99039853      -0.02696594       3.85269471       0.01741796      -0.00238373      -0.00377574
C        3.74356108       2.02027222       3.44135737       0.00614722       0.00250263       0.01639175
B        1.33126505       6.34845677       3.73131819      -0.00198679       0.00526286       0.01016691
C        0.07482575       8.52087244       3.91740672      -0.00675718       0.00274892      -0.00411925
C        7.44832448       0.00432631       3.93857032       0.00149988       0.00854551       0.00160212
C        6.21247030       2.12683995       3.72658799      -0.01422369      -0.00915348      -0.00548242
C        5.09037167       4.29475974       3.28867408       0.00831089      -0.00129556      -0.00025112
S        3.64559972       6.44365711       2.65557158      -0.00522116       0.00342109      -0.00928306
C        2.53868007       8.59371937       3.77479636       0.00641729      -0.00067032      -0.00141573
C        9.93335599       0.02396618       3.95793904      -0.00176706      -0.01028849      -0.00250361
C        8.67818256       2.13747228       4.02422177      -0.01042583      -0.00907186      -0.00644137
C        7.45261077       4.26910819       3.86592473      -0.00575450       0.00243382      -0.00214976
C        6.24222767       6.42099583       3.63536910      -0.00685244       0.01345585       0.00133909
C        5.00592289       8.57642417       3.69417229       0.00979256      -0.00170015      -0.00155562
C        0.09189080       1.46849420       3.93169020       0.00177972      -0.00181560       0.00489145
C       -1.23498369       3.52736776       4.33116035       0.01037595       0.00882108      -0.00083170
C       -2.42895406       5.68556349       4.10709190       0.00684501       0.00090657      -0.00276741
C       -3.64285949       7.82061043       3.94951648      -0.00896292       0.00507342       0.00149723
C       -4.88093246       9.96289032       3.90386796      -0.00855932      -0.00678364       0.00025926
C        2.49809934       1.39803220       3.67224934       0.00092665       0.00727634       0.00601193
S        0.59552719       4.60183520       1.28641908       0.00233962      -0.01502764       0.00311112
C        0.01505164       5.61889358       4.08166360       0.00141089      -0.00174751      -0.00328771
C       -1.16628657       7.80870081       3.96540689      -0.00637832      -0.00538850      -0.00050544
C       -2.41152397       9.94851282       3.89601560       0.01178626       0.00087092       0.00629223
C        4.98895886       1.39636667       3.67735246       0.00037247      -0.00963323      -0.00443952
S        3.64152254       3.54123094       2.67969001      -0.00017832       0.00013885       0.00746406
C        1.32936268       7.84449203       3.82084947      -0.00317674       0.00480808       0.01013853
C        0.05742609       9.95471615       3.91625944       0.01253967       0.00393809       0.00265849
C        7.43638296       1.42835164       3.91372729      -0.01710564       0.00079517      -0.00265039
C        6.23310054       3.54821849       3.64323528      -0.00273230      -0.01152046      -0.00495495
C        5.09231940       5.68510606       3.28612246       0.00220348       0.00117437       0.00423685
C        3.76359176       7.94581986       3.49002884       0.01407651       0.00401125      -0.01221521
C        2.52988041      10.00432464       3.92845641      -0.00275729       0.00007382       0.00068423
C        9.92030235       1.43769598       4.05272241       0.00027493      -0.00737071      -0.00318089
C        8.67102452       3.55364869       4.04523067      -0.00110677      -0.00325508      -0.00911570
C        7.45759344       5.69160777       3.85367210      -0.00659791       0.01392847       0.00707088
C        6.22771230       7.84129357       3.71647732      -0.00006175       0.00583606      -0.00051143
C        5.00480528      10.00260509       3.88667813      -0.00418282      -0.01275618       0.00294736
Re       1.36804269       4.36116348       3.21985148       0.00736529       0.00344321       0.00910635
O        0.66364106       4.07634585       5.82224733      -0.00161181      -0.00463051      -0.00568086
