53
Lattice="12.336457 0.0 0.0 -6.168228499999997 10.683685154694365 0.0 0.0 0.0 15.0" Properties=species:S:1:pos:R:3:forces:R:3 energy=-464.47358616682345 free_energy=-464.47358616682345 stress="-0.0008529533481541439 -0.0006847983400764723 1.1986192485286218e-05 -0.0006847983400764723 -0.008473145290314496 2.4832436922740394e-05 1.1986192485286218e-05 2.4832436922740394e-05 -7.731418692815089e-07" pbc="T T T"
C        0.06850037       0.00747119       3.95841074       0.00447321      -0.00444607      -0.01180899
C       -1.16157294       2.15645956       3.87888300       0.00541182      -0.00087896      -0.00401274
C       -2.40305239       4.29149957       3.75610072      -0.00470074      -0.00230367       0.00993371
C       -3.64226325       6.42092375       3.79512881      -0.00484549       0.00269911       0.00185142
C       -4.88065646       8.53980588       3.89039711      -0.00516357      -0.00184203       0.00983097
C        2.53697031      -0.02426425       3.87225367      -0.00030453       0.01549440      -0.00271383
C        1.30287743       2.11312440       3.73197281      -0.00620728       0.00821351      -0.00328906
C        0.05236683       4.25057107       3.57365960      -0.00192906       0.00319334       0.00753406
C       -1.16832863       6.41921783       3.67216453       0.00200068      -0.00876871       0.00105522
C       -2.38056865       8.53241135       3.89552226       0.00395662       0.00151465       0.01490106
C        5.00616706       0.00096991       3.95740270       0.00063458      -0.00424976       0.00043071
C        3.76820575       2.10485630       3.72209969       0.00499939      -0.00748918      -0.00692392
C        2.54059403       4.18930491       3.55269796      -0.00096192      -0.01213256       0.00385762
O        1.00248019       6.21153960       2.67165089       0.00685595       0.00686574       0.00942861
C        0.08705480       8.55643025       4.10605494      -0.00323537       0.00827141       0.01419132
C        7.45468866       0.06811499       4.16727012      -0.00235131       0.00055928       0.00071255
C        6.22510031       2.15637726       3.87758413      -0.00197966       0.00310880      -0.00632619
C        4.99840397       4.25718451       3.54468307       0.00411097       0.00307361       0.00020439
S        3.92475432       6.32768021       2.12535618       0.00412949      -0.00125732      -0.00762322
C        2.53655641       8.70388205       4.33278041      -0.00070587      -0.00918514      -0.00597176
C        9.95486162       0.07060948       4.16229403      -0.00296710       0.00185468       0.01147643
C        8.70002303       2.17821269       3.97054401      -0.00257319       0.00061441      -0.00482207
C        7.46014558       4.29194109       3.76438276       0.00128842       0.00537370       0.00666923
C        6.21289561       6.42537561       3.67455235       0.00426219      -0.00178965      -0.00409231
C        4.99172533       8.56657057       4.07422283       0.00003910       0.00249593      -0.01504554
C        0.06876306       1.42893026       3.86122322       0.00535812      -0.00212964       0.00083185
C       -1.17194221       3.57127079       3.74247960      -0.00137168      -0.00049214      -0.00385786
C       -2.39965250       5.71279646       3.73288295      -0.00755452      -0.00276410      -0.00287243
C       -3.63446379       7.83395469       3.85066277      -0.00175071       0.00434321      -0.00885597
C       -4.87139234       9.96301076       3.91465629       0.00604538       0.00102607      -0.00456631
C        2.53542255       1.39629430       3.77675285      -0.00429092       0.01431070      -0.00558777
C        1.31104930       3.54671007       3.59842041      -0.00822605       0.00125122       0.00008776
C       -0.00009451       5.65037470       3.32247113       0.00225064      -0.00316627      -0.00715635
C       -1.14336403       7.82583489       3.88953267       0.00640039      -0.00302405      -0.00357253
C       -2.39117248       9.95875095       3.91431915      -0.00276252       0.00634098       0.00929790
C        5.00170034       1.42268752       3.85579196       0.00468804      -0.00710270       0.00114603
C        3.76164123       3.53658368       3.57361218       0.00274826      -0.00789256       0.00169428
C        1.33962605       7.98135607       4.29109581      -0.00356882       0.00040039       0.00755402
C        0.06946801       9.99820135       4.09601466      -0.00047615       0.00439942       0.00259275
C        7.45726803       1.47639971       4.01984599      -0.00474579       0.00366889       0.00167074
C        6.22661193       3.57384197       3.73759965       0.00189171       0.00727470       0.00793921
C        5.01812563       5.67490609       3.32276620       0.00828124       0.00245908       0.00256926
C        3.73779132       7.96635570       4.25782447       0.00369637       0.00493920      -0.01145575
C        2.53825640      10.10978461       4.29498446      -0.00489980      -0.00607214      -0.00480376
C        9.94426375       1.47673888       4.01793120       0.00129507       0.00446384       0.00523882
C        8.69731708       3.58880243       3.83536168      -0.00517467      -0.00105445      -0.00267398
C        7.44793633       5.71546970       3.74654809       0.00129481       0.00017437      -0.01122006
C        6.21227742       7.83469330       3.86559622      -0.00319447      -0.00549291       0.00274790
C        5.00621173      10.00585484       4.08702635       0.00025427       0.00382261       0.00217726
Re       2.53676700       6.32694780       3.95181006       0.00033352      -0.01168466       0.00739861
O        2.62358077       5.75993493       5.73929430      -0.00225864      -0.00207794      -0.01404983
O        1.19566716       5.78427311       6.29323511       0.00010390      -0.00487625       0.00049961
H        1.34098233       6.43632103       7.01299935       0.00139567      -0.01003443       0.00777894
