51
Lattice="12.336457 0.0 0.0 -6.168228499999997 10.683685154694365 0.0 0.0 0.0 15.0" Properties=species:S:1:pos:R:3:forces:R:3 energy=-456.3748777972899 free_energy=-456.3748777972899 stress="-0.0008441528560744539 -0.0002063280443842314 3.6062067896282747e-06 -0.0002063280443842314 -0.00872098014460654 1.0897083704693653e-05 3.6062067896282747e-06 1.0897083704693653e-05 -6.575852916287596e-06" pbc="T T T"
C        0.00428156      -0.00508549       3.89006859       0.00021183      -0.00177440       0.00217523
C       -1.22044954       2.14677304       3.84324176      -0.00237237      -0.00202122       0.00196407
C       -2.45965249       4.28313536       3.75224763       0.00181289      -0.00464204      -0.00493635
C       -3.70138600       6.41234803       3.77249600      -0.00090765      -0.00355282       0.00148731
C       -4.94603317       8.52904371       3.83110703       0.00624781       0.00136669       0.00726179
C        2.47391152      -0.03366409       3.81403929      -0.00304324      -0.00548118      -0.00352343
C        1.24237606       2.10035169       3.66437123       0.00482494      -0.00266318       0.00464276
C       -0.00080841       4.24355002       3.56794937      -0.00262984      -0.00037563      -0.00957301
C       -1.22758299       6.41174626       3.69029220      -0.00793840       0.00709669      -0.00612189
C       -2.44706578       8.52494395       3.87833470       0.00394847       0.01062541       0.00427156
C        4.94236969      -0.00575773       3.92783858      -0.00300983       0.00241863      -0.00183468
C        3.70781677       2.09439547       3.64859470      -0.00157358      -0.00377297       0.00443329
C        2.48218257       4.18105795       3.43135237       0.00304150       0.00452582      -0.00018574
O        0.89340428       6.20103191       2.58820956      -0.00130261       0.00349309      -0.00572168
C        0.02127682       8.55176812       4.09310434       0.00016173       0.00393110      -0.00359234
C        7.39260326       0.06025842       4.14092823       0.00059425       0.00020834      -0.00154637
C        6.16509954       2.14732007       3.84253438      -0.00057649      -0.00383927       0.00465019
C        4.94540609       4.24291473       3.47184525       0.00201638       0.00207023      -0.00644153
S        3.87480860       6.29222722       2.05263681      -0.00050587       0.00781934       0.00767710
C        2.47527840       8.68910427       4.25991861      -0.00284792      -0.00389730       0.00614022
C        9.89275393       0.05852124       4.11263514       0.00130146       0.00038442      -0.00460254
C        8.64050019       2.16930416       3.94989710       0.00007243      -0.00052691      -0.00998138
C        7.40259533       4.28236229       3.73590359       0.00536646      -0.01105525      -0.00125155
C        6.15921760       6.41188426       3.60418151       0.00289762       0.00594152      -0.00586043
C        4.92258796       8.55030614       3.98173051      -0.00592106      -0.00673050       0.00661525
C        0.00788467       1.41748281       3.80475821      -0.00070997       0.00010028      -0.00349399
C       -1.22800821       3.56431449       3.73043395      -0.00404278      -0.00472206      -0.00390553
C       -2.45706951       5.70430969       3.73271568      -0.00250626      -0.00583401       0.00582901
C       -3.69852872       7.82506948       3.81803605       0.00757413       0.00120084      -0.00423761
C       -4.93506921       9.95232548       3.84920361      -0.00100266      -0.00177555       0.00200657
C        2.47448685       1.38572553       3.70419602       0.00126316      -0.00700066       0.00601499
C        1.25223096       3.53520107       3.53473218       0.00083630       0.00212715       0.00817986
C       -0.05159326       5.64943662       3.32520700       0.00272776       0.00910265      -0.00325802
C       -1.20924540       7.81802043       3.89100110       0.00050878       0.00638188      -0.00231450
C       -2.45534645       9.95072822       3.87885304      -0.00213811       0.00710418       0.01000622
C        4.94000680       1.41466531       3.80977259      -0.00024372      -0.00066225      -0.00281419
C        3.70466237       3.52478357       3.47850810       0.00417923       0.00016034      -0.00112211
C        1.27432213       7.97258511       4.24518293       0.00215215       0.00117499      -0.00572396
C        0.00471916       9.99432478       4.07884911       0.00014922       0.00232467      -0.00665816
C        7.39657467       1.46854858       3.99584694       0.00209789       0.00133906       0.00040238
C        6.16982469       3.56336425       3.69660792       0.00342746      -0.00590551      -0.00482913
C        4.97737140       5.65482077       3.23171270      -0.00601185       0.01080831       0.00012883
C        3.66683466       7.95094458       4.15187200      -0.00974301      -0.01404976      -0.00593165
C        2.47604697      10.09757872       4.24897991       0.00222438      -0.00003753      -0.00116104
C        9.88470871       1.46689383       3.98480540      -0.00347248       0.00292998       0.00615607
C        8.63927136       3.58030625       3.82129435       0.00648135      -0.00563197      -0.00785658
C        7.39220468       5.70504567       3.70448020      -0.00081734      -0.00973829       0.00563428
C        6.14929367       7.82158183       3.78867094      -0.00105761       0.00252714      -0.00004681
C        4.94135195       9.99271198       4.01616075      -0.00272405      -0.00449579      -0.00395729
Re       2.44062758       6.29411141       3.90577288       0.00383756       0.00729989       0.01559918
O        2.43448188       5.75917492       5.55794830      -0.00285842       0.00572342       0.01120736
