51
Lattice="12.336457 0.0 0.0 -6.168228499999997 10.683685154694365 0.0 0.0 0.0 15.0" Properties=species:S:1:pos:R:3:forces:R:3 energy=-458.90213576335043 free_energy=-458.90213576335043 stress="-0.0006656191760927113 7.978543906956948e-07 -1.1998549067150483e-07 7.978543906956948e-07 -0.00940299289769512 9.661176880601303e-06 -1.1998549067150483e-07 9.661176880601303e-06 -6.11131927723796e-06" pbc="T T T"
C       -0.00287371      -0.00446672       3.88607689       0.00053154       0.00330977       0.01083595
C       -1.22625309       2.14723018       3.82655620      -0.00158673       0.00061774      -0.01223530
C       -2.46424477       4.28326356       3.72158184       0.00872496       0.01227232      -0.00701752
C       -3.70183456       6.41290318       3.74213757      -0.00000165      -0.00299898      -0.00762241
C       -4.95511173       8.52634590       3.83262439       0.01296824      -0.01341521       0.00161200
C        2.46638254      -0.03437026       3.77857739      -0.00024771      -0.00581791      -0.00664046
C        1.23406397       2.09951395       3.62227485      -0.00129943       0.00343438       0.00898302
C       -0.00984661       4.23890930       3.51691295       0.01567403       0.00508392       0.00527727
C       -1.22513443       6.40956497       3.63951054      -0.00876607       0.00090688       0.00084033
C       -2.44861076       8.52634610       3.83290569      -0.01274335      -0.01329826       0.00144586
C        4.93560406      -0.00443321       3.88639492      -0.00021261       0.00293626       0.01098513
C        3.69869530       2.09951417       3.62245009       0.00130989       0.00373087       0.00883700
C        2.46638945       4.19164204       3.41923690      -0.00010145       0.01623497      -0.00984567
O        0.93992169       6.19876880       2.61224788       0.00022169       0.00281829      -0.00443867
C        0.01914183       8.55415302       4.05686105      -0.00537689       0.00617504       0.00602302
C        7.38278306       0.06804093       4.14176536       0.01088007      -0.00995355      -0.01180147
C        6.15903100       2.14722371       3.82676654       0.00150701       0.00084553      -0.01235594
C        4.94263144       4.23888284       3.51703351      -0.01551767       0.00500961       0.00518370
O        3.99269185       6.19859455       2.61240050      -0.00020031       0.00334282      -0.00464447
C        2.46639045       8.71113306       4.30886816      -0.00017823       0.01409637       0.01321179
C        9.88644357       0.06804584       4.14155257      -0.01096218      -0.01041277      -0.01180734
C        8.63461725       2.17360609       3.94615324       0.00004847      -0.01021248      -0.01385921
C        7.39704579       4.28326291       3.72158429      -0.00897096       0.01210157      -0.00685152
C        6.15793729       6.40954567       3.63920781       0.00866959       0.00069370       0.00087885
C        4.91358009       8.55410412       4.05637849       0.00531438       0.00662851       0.00643264
C        0.00100790       1.41665241       3.77991120      -0.00193698       0.00516917       0.00170626
C       -1.23565079       3.56124229       3.69571484       0.01150169       0.00657180      -0.01122510
C       -2.45723234       5.70443037       3.69258399      -0.00551154       0.00953210      -0.00594483
C       -3.70185694       7.82612553       3.79033282       0.00019704      -0.01853583      -0.00626726
C       -4.94241680       9.95209330       3.83554390      -0.00157116      -0.01080040       0.00432071
C        2.46637927       1.38454953       3.66497565      -0.00003177      -0.00011180       0.00731592
C        1.24258393       3.53302718       3.49158722      -0.00132898      -0.00486208       0.00724445
C       -0.05038610       5.64209713       3.30348062      -0.00894633       0.00111898       0.00937686
C       -1.20934887       7.82033981       3.83803509      -0.00934894       0.00307720       0.00773010
C       -2.46129136       9.95209723       3.83578121       0.00138084      -0.01068652       0.00422558
C        4.93175005       1.41666918       3.78013443       0.00194961       0.00512665       0.00194552
C        3.69017817       3.53301901       3.49175147       0.00139116      -0.00446176       0.00687888
C        1.27567341       7.97939565       4.23902786       0.01120969      -0.00144243       0.00537000
C       -0.00206410       9.99690001       4.04824651       0.00039822       0.00174240       0.01385019
C        7.39018922       1.47243122       3.98970450       0.00095483      -0.01412146      -0.00665810
C        6.16844155       3.56123394       3.69586450      -0.01144243       0.00646516      -0.01141376
C        4.98319053       5.64201818       3.30336882       0.00867937       0.00094911       0.00967340
C        3.65706762       7.97938367       4.23877159      -0.01134631      -0.00209603       0.00539831
C        2.46639854      10.11553346       4.28717056      -0.00015762       0.00321732      -0.01182288
C        9.87904922       1.47245231       3.98958149      -0.00099195      -0.01472136      -0.00679352
C        8.63462786       3.58190913       3.80305015      -0.00013573       0.00428195      -0.01271234
C        7.39003496       5.70442743       3.69246849       0.00544988       0.00932009      -0.00598888
C        6.14209448       7.82032616       3.83759681       0.00934470       0.00322276       0.00796841
C        4.93478274       9.99685248       4.04781775       0.00008578       0.00221804       0.01409590
Re       2.46626941       6.30344822       3.82462764       0.00037644      -0.01771349      -0.00464338
O        2.46621375       5.73875291       5.45968034       0.00014585       0.00341103       0.00494299
