52
Lattice="12.336457 0.0 0.0 -6.168228499999997 10.683685154694365 0.0 0.0 0.0 15.0" Properties=species:S:1:pos:R:3:initial_magmoms:R:1:forces:R:3 energy=-462.07306158655837 free_energy=-462.07306158655837 stress="-0.0005742508885572664 5.327467042160759e-06 -1.5168711054685175e-07 5.327467042160759e-06 -0.008547673248984413 -1.6311466722682996e-05 -1.5168711054685175e-07 -1.6311466722682996e-05 6.575437637857073e-06" pbc="T T T"
C       -0.00273138      -0.00171338       3.88662418       0.00000000       0.00141699       0.00191603       0.00063176
C       -1.22701363       2.15184482       3.83207219       0.00000000       0.00067529      -0.00216391      -0.00695039
C       -2.46527011       4.28653544       3.69264550       0.00000000       0.00426710      -0.00538465      -0.00475177
C       -3.70289490       6.41584431       3.68684287       0.00000000       0.00245672      -0.00373652      -0.00221087
C       -4.95494431       8.52905991       3.79084561       0.00000000      -0.00297742       0.00464255       0.00523144
C        2.46523319      -0.03010238       3.78253421       0.00000000       0.00682874       0.00385726       0.00654584
C        1.23329865       2.10701355       3.66276854       0.00000000      -0.00293533      -0.00069400      -0.00670421
C       -0.00840005       4.24599103       3.51836471       0.00000000      -0.00608416      -0.00017714       0.00119781
C       -1.22292689       6.41197411       3.58295528       0.00000000      -0.00378172       0.00004268      -0.00220303
C       -2.45045848       8.52920008       3.78976845       0.00000000      -0.00006484       0.00097766       0.00916706
C        4.93381749      -0.00195587       3.88427449       0.00000000      -0.00206907      -0.00052594      -0.00046061
C        3.69822648       2.10675803       3.65954485       0.00000000      -0.00283047      -0.00143516      -0.00390352
C        2.46582385       4.19699227       3.44391731       0.00000000      -0.00282819      -0.00181205      -0.00767741
O        0.92959397       6.17533733       2.50136412       0.00000000       0.00425041      -0.00233181       0.00401482
C        0.01492215       8.55485799       4.00127299       0.00000000       0.00443714      -0.00333688       0.00309318
C        7.38181627       0.06712722       4.12146570       0.00000000      -0.00560042       0.00072296      -0.00181576
C        6.15812423       2.15130001       3.82865247       0.00000000       0.00068946      -0.00235467      -0.00433500
C        4.93996917       4.24584172       3.51446279       0.00000000       0.00334062      -0.00218826       0.00549266
O        4.00078666       6.17631683       2.50159466       0.00000000       0.00122313      -0.00192904      -0.00042840
C        2.46539836       8.70730951       4.23872322       0.00000000       0.00311389       0.00603347      -0.00831922
C        9.88585158       0.06729124       4.12245830       0.00000000       0.00062580       0.00091714      -0.00512866
C        8.63359737       2.17440832       3.92934481       0.00000000       0.00338843       0.00767410       0.00120173
C        7.39583695       4.28599083       3.69173454       0.00000000       0.00407478       0.00419565      -0.00550954
C        6.15422042       6.41205662       3.58161279       0.00000000      -0.00119264      -0.00101773       0.00006883
C        4.91607443       8.55500156       4.00072574       0.00000000      -0.00434961      -0.00550221       0.00417219
C       -0.00010850       1.42105591       3.79995336       0.00000000      -0.00031102       0.00157693       0.00527747
C       -1.23545647       3.56643495       3.69186238       0.00000000      -0.00110439      -0.00686695      -0.00310496
C       -2.45738204       5.70805925       3.64405305       0.00000000       0.00165212      -0.00746668      -0.00254824
C       -3.70268787       7.82885901       3.73916441       0.00000000      -0.00215179      -0.00025017       0.00190260
C       -4.94334819       9.95435167       3.82449742       0.00000000       0.00505351       0.00754524      -0.00261099
C        2.46566829       1.39097152       3.69952365       0.00000000      -0.00124983       0.00128679       0.00485175
C        1.24157805       3.53815338       3.52744889       0.00000000      -0.00507177       0.00093400      -0.00100728
C       -0.04944524       5.64067375       3.25890037       0.00000000      -0.00546956       0.00050666       0.00475050
C       -1.21076749       7.82388932       3.78305856       0.00000000       0.00094986       0.00080616       0.00541833
C       -2.46242703       9.95450570       3.82232763       0.00000000       0.00257400       0.00086896       0.00346460
C        4.93147513       1.42060131       3.79588409       0.00000000      -0.00333504      -0.00011169       0.00892427
C        3.69010437       3.53799907       3.52466077       0.00000000      -0.00065532      -0.00003660      -0.00227643
C        1.27555623       7.96755421       4.15021109       0.00000000       0.00788490      -0.00342669       0.00270204
C       -0.00381640       9.99601016       4.02549173       0.00000000      -0.00328816      -0.00370186      -0.00470594
C        7.38952152       1.47272108       3.97933369       0.00000000       0.00262310       0.00298471      -0.00582637
C        6.16633103       3.56578378       3.68896453       0.00000000       0.00719093      -0.00171206      -0.00459887
C        4.98109331       5.64089165       3.25703522       0.00000000      -0.00006048      -0.00233409       0.00349706
C        3.65538359       7.96784105       4.14978772       0.00000000      -0.00614801      -0.00510037       0.00125051
C        2.46558489      10.11074178       4.25370584       0.00000000      -0.00236074       0.00470956       0.00347743
C        9.87785442       1.47295789       3.98060002       0.00000000       0.00082180       0.00321021      -0.00328564
C        8.63353369       3.58340050       3.77581634       0.00000000       0.00336611       0.00581046       0.00334328
C        7.38820674       5.70760307       3.64401593       0.00000000       0.00101227       0.00099810      -0.00694875
C        6.14185782       7.82403978       3.78244519       0.00000000      -0.00336909      -0.00262452       0.00869155
C        4.93489031       9.99615533       4.02596335       0.00000000       0.00058414      -0.00360016      -0.00004410
Re       2.46553507       6.32864387       3.66100187       0.00000000      -0.00516221      -0.00154163      -0.00518539
O        2.47219664       6.36597337       6.51211915       1.00000000       0.00068363       0.00237440      -0.01190593
O        2.46629919       5.63020180       5.41149806       1.00000000      -0.00073361       0.00877178       0.01607857
