53
Lattice="12.336457 0.0 0.0 -6.168228499999997 10.683685154694365 0.0 0.0 0.0 15.0" Properties=species:S:1:pos:R:3:forces:R:3 energy=-466.8446854116583 free_energy=-466.8446854116583 stress="-0.00045110712383615554 5.469297127896311e-06 1.561997383200387e-05 5.469297127896311e-06 -0.008435204691150031 -3.8733051301601574e-06 1.561997383200387e-05 -3.8733051301601574e-06 -1.0513926118563416e-06" pbc="T T T"
C        0.00404921      -0.00744095       3.94297872      -0.00033923      -0.00475623      -0.00419547
C       -1.22052681       2.14457413       3.85735232       0.00333465       0.00253161       0.00006004
C       -2.45710426       4.28095984       3.72760785      -0.00162140       0.00260493       0.00195713
C       -3.69520317       6.41042305       3.75574376       0.00073746      -0.00579802      -0.01199517
C       -4.94758819       8.52366279       3.87335901      -0.00994127      -0.00611571      -0.00061312
C        2.47299973      -0.03500338       3.85127829      -0.00363734      -0.00261701      -0.00640646
C        1.24059299       2.10075325       3.71083721      -0.00623759      -0.00848508       0.00694150
C        0.00032989       4.24281434       3.57570658      -0.00145786       0.00085631       0.00449052
C       -1.21334803       6.40785741       3.66547761      -0.00053274       0.00281251      -0.00918401
C       -2.44345963       8.52342322       3.87403508       0.01086330      -0.00198464       0.00522647
C        4.94138368      -0.00709396       3.94160390       0.00349932      -0.00227411      -0.00115202
C        3.70502267       2.10077092       3.70985311       0.00719805      -0.00296405       0.00295923
C        2.47306797       4.18895815       3.53092168       0.00244701      -0.00472760      -0.00504641
O        0.95429671       6.18741140       2.60821597      -0.00710889       0.01020761      -0.00084697
C        0.02360845       8.54971617       4.10037191       0.00226588       0.00364360      -0.00058973
C        7.39044025       0.06139905       4.15497288      -0.00141920       0.00070968       0.00578729
C        6.16638669       2.14492892       3.85324525      -0.00142988      -0.00114900      -0.00422491
C        4.94570014       4.24289132       3.56986012       0.01111358       0.00200154      -0.00167746
O        3.98858431       6.19049957       2.61325222      -0.01763429       0.00862027      -0.00044672
C        2.47262765       8.70193328       4.34802511      -0.00169005      -0.00859466       0.00218302
C        9.89145289       0.06083073       4.15620374       0.00692157      -0.00099965       0.00799782
C        8.64124872       2.16707352       3.94027819      -0.00044222       0.00831659       0.00016965
C        7.40378061       4.28091065       3.72407629      -0.00775928       0.00129600       0.00465617
C        6.15959059       6.40790149       3.65897967       0.00246332       0.00307048       0.00033948
C        4.92182149       8.54887819       4.09968114      -0.00038878       0.00749704      -0.00226874
C        0.00713868       1.41453961       3.84174409      -0.00393933      -0.00770162      -0.00513897
C       -1.22749010       3.56050974       3.72535944      -0.00200845       0.00135490      -0.00453015
C       -2.44910510       5.70321780       3.70458937       0.00292187      -0.00118382       0.00199731
C       -3.69552031       7.82317437       3.82079761       0.00185679      -0.00495040       0.00161619
C       -4.93542954       9.94948559       3.89586602      -0.00495371      -0.00545208       0.00294925
C        2.47290072       1.38559849       3.75653356       0.00056728      -0.00278611      -0.00596381
C        1.24993484       3.53310010       3.58659040      -0.00348425      -0.00532694       0.00735950
C       -0.03422002       5.64278348       3.34103087      -0.00480379       0.00177041       0.00140472
C       -1.20341318       7.81794357       3.87507620       0.01222842       0.00044376       0.00196568
C       -2.45531316       9.94928647       3.89569343       0.00220239       0.00080649       0.00117776
C        4.93848278       1.41474460       3.83929745       0.00476026      -0.00413265      -0.00512639
C        3.69584748       3.53329176       3.58466975       0.00923708       0.00073201       0.00380993
C        1.27858237       7.96553384       4.28773060      -0.00710635      -0.00364926       0.00008418
C        0.00401769       9.99136700       4.08591667       0.00143014      -0.00121998       0.00049844
C        7.39791343       1.46557964       3.99364118      -0.00274071       0.00534835       0.00627599
C        6.17372516       3.56070104       3.71901882       0.00226732      -0.00527896       0.00384721
C        4.98110036       5.64244557       3.33579203       0.01319512       0.00018336       0.00487678
C        3.66620120       7.96327851       4.29141836       0.00723980      -0.00016275      -0.00682861
C        2.47270694      10.10556033       4.29919942       0.00153770      -0.00504932       0.00538251
C        9.88431229       1.46537608       3.99717405       0.00405785       0.00279857      -0.00397693
C        8.64161241       3.57715983       3.79736718      -0.00697244       0.00862241      -0.00093626
C        7.39535105       5.70323141       3.70277926      -0.00164005      -0.00241227      -0.01189373
C        6.14855005       7.81801926       3.87168618      -0.01064482       0.00294970       0.00339158
C        4.94132754       9.99012030       4.08643079       0.00303177      -0.00004775       0.00108037
Re       2.46848917       6.33290611       3.80282751       0.01167987       0.00648059       0.00424149
O        2.47103644       5.66691080       5.52051627      -0.00213621       0.00834471      -0.00009276
O        2.28960978       6.59594653       6.72602426      -0.00993304      -0.00025857      -0.00863444
H        3.12124162       6.38501345       7.20354603      -0.00705465       0.00607485       0.00704207
