52
Lattice="12.336457 0.0 0.0 -6.168228499999997 10.683685154694365 0.0 0.0 0.0 15.0" Properties=species:S:1:pos:R:3:forces:R:3 energy=-450.8137369169905 free_energy=-450.8137369169905 stress="0.0005586184687371461 -0.0033200030876534515 2.0862691172827957e-05 -0.0033200030876534515 0.007522156805762189 -0.0001271205865911032 2.0862691172827957e-05 -0.0001271205865911032 0.0010041398196018042" pbc="T T T"
C       -0.03810907      -0.03708496       4.02269570       0.01809459      -0.07764000      -0.07535140
C       -1.31972245       2.03892527       4.31000643       0.13541215       0.09371038      -0.07756871
C       -2.57608234       4.19025802       4.36648322       0.12080036       0.04539976      -0.03092779
C       -3.75775232       6.35433253       4.13177335      -0.06608443      -0.08996836      -0.01319197
C       -4.97177997       8.50545409       3.92307081       0.08052887      -0.04978892      -0.00188079
C        2.43024845      -0.00031910       3.89769896       0.01211380       0.03495884       0.02029416
C        1.15713516       2.13245931       4.00061951      -0.06652172       0.04831805       0.02779009
C       -0.12776192       4.13418638       4.28760394       0.10395465      -0.22094288      -0.05407747
C       -1.29953437       6.32361409       4.16160266       0.13046621      -0.02878299       0.04320476
C       -2.49588239       8.48728232       3.97881027      -0.01676120       0.02705991       0.00428585
C        4.89120862      -0.06782969       3.83001915       0.02247955      -0.01351682       0.06929944
C        3.66462134       2.17079174       3.70101804      -0.01968909      -0.00854075      -0.06264988
S        1.01325842       5.45178921       1.41051230       0.02892269       0.00703326       0.04255359
C       -0.00251439       8.40963603       3.79345396       0.05451294       0.01801254       0.09022024
C        7.34863975      -0.09338011       3.90606512       0.03357490      -0.04925392       0.08767602
C        6.11874925       2.05226859       3.89983360      -0.06337842       0.13287837       0.05672258
C        4.90599921       4.17879297       3.54911546      -0.04368325      -0.07761748      -0.02286372
S        3.80437201       6.42167420       2.39428734      -0.22161069      -0.11197165       0.22505735
C        2.44252140       8.47169618       3.60819712       0.00683402      -0.04690094      -0.01527808
C        9.81728184      -0.08289691       3.99885161      -0.09616248       0.07930736       0.05247633
C        8.55552751       2.04670952       4.20059181      -0.00201277       0.01668707      -0.05766660
C        7.32706975       4.20763476       4.06927193       0.05140984      -0.11651231      -0.02357820
C        6.14208000       6.34890560       3.72335988      -0.03219671      -0.00719912      -0.03694418
C        4.92818547       8.51778125       3.66564511      -0.04312255       0.03773411       0.00869888
C       -0.06259859       1.37569249       4.14455760       0.09967654       0.07395200      -0.01823841
C       -1.36056764       3.44837529       4.42672365      -0.02914656      -0.05671273      -0.01343591
C       -2.55211239       5.61972132       4.26260676       0.02943281       0.05704814      -0.02410193
C       -3.73655053       7.78399824       4.03307289       0.00638826      -0.02045306      -0.09254492
C       -4.96745760       9.94597597       3.94234359      -0.01118480       0.01012681       0.03430749
C        2.41786526       1.43331741       3.84559796      -0.04849966       0.11200533       0.04303817
N        1.03618446       3.49265992       4.03737521      -0.20004644       0.56440964       0.01444389
C       -0.11394281       5.55812200       4.17297476      -0.03099742      -0.14367164      -0.07503127
C       -1.26403642       7.74919209       3.97264226      -0.01458865      -0.01995287      -0.00990004
C       -2.50937724       9.92320715       3.89152193      -0.00129099       0.01955616      -0.06939420
C        4.88197001       1.37121214       3.80464191       0.04785848      -0.01983953      -0.06154591
N        3.71565652       3.52263934       3.48585173       0.02160975      -0.08673845       0.03927099
C        1.24892708       7.69264588       3.63088890      -0.02005672       0.02309182      -0.12161679
C       -0.03963257       9.86781881       3.82542888       0.05243408       0.03478657      -0.01761848
C        7.34127044       1.33062577       4.02902684      -0.09605766       0.06404272      -0.07757689
C        6.12962590       3.47591414       3.86028708      -0.07332398       0.07885573       0.03509534
C        5.00807123       5.59523431       3.35293464       0.00028928      -0.00735231       0.03390668
C        3.70745423       7.89148486       3.33799615      -0.02953579      -0.04654326       0.03750810
C        2.42182344       9.89221451       3.87256247      -0.00853417      -0.02334915      -0.09218150
C        9.79186934       1.32946280       4.20373003       0.06335399       0.01969138       0.03490397
C        8.53739395       3.47728434       4.25805719       0.10166645      -0.02524060      -0.00446073
C        7.34687192       5.63846016       4.01494668       0.05546766      -0.10220985       0.02764817
C        6.14654370       7.78722912       3.74898556       0.01539655       0.03589005      -0.05892395
C        4.90012107       9.92549309       3.91892758      -0.01992441      -0.03044332       0.04651473
Re       1.76218577       5.63234294       3.40006845       0.20315696      -0.19298101       0.70624754
O        2.63614253       5.33507845       5.20676029      -0.14129116       0.15671947      -0.20839756
O        2.75967836       6.52967095       6.05167898       0.08119827      -0.12237297      -0.30653989
H        3.72855694       6.48994644       6.23344207      -0.18133193       0.00522143      -0.05767720
