51
Lattice="12.336457 0.0 0.0 -6.168228499999997 10.683685154694365 0.0 0.0 0.0 15.0" Properties=species:S:1:pos:R:3:initial_magmoms:R:1:forces:R:3 energy=-445.5697414586534 free_energy=-445.5697414586534 stress="0.0018894491535605509 -0.004930293828357184 2.0865360749435838e-05 -0.004930293828357184 0.001653308404951099 3.986974603568225e-06 2.0865360749435838e-05 3.986974603568225e-06 -2.559040632786206e-05" pbc="T T T"
C        0.04190299       0.00115670       3.94978061       0.00000000      -0.00073600      -0.00196019      -0.00532366
C       -1.20739071       2.13978686       3.79494023       0.00000000       0.00476636      -0.00033022      -0.00690730
C       -2.41898969       4.27096616       3.82265697       0.00000000       0.00044562       0.00034497       0.00553208
C       -3.64803380       6.41955766       3.95809469       0.00000000      -0.00757708      -0.00252951       0.00071071
C       -4.87069821       8.56226134       3.99426472       0.00000000       0.00370452      -0.00856608      -0.00945719
C        2.51264140       0.01408603       4.05524761       0.00000000      -0.00657052       0.00288892       0.00678359
C        1.21128025       2.11326556       4.11682858       0.00000000       0.00376712      -0.00573992       0.00619609
C        0.06345506       4.22037346       3.88923527       0.00000000      -0.00128566      -0.00022635       0.00837929
C       -1.19769284       6.38939119       4.14337302       0.00000000      -0.00179546      -0.00938924       0.00510951
C       -2.39598909       8.53840384       4.03853904       0.00000000       0.00487732       0.00464339       0.00171790
C        4.97876297      -0.00315612       3.86176621       0.00000000       0.00191086      -0.00058531      -0.00625868
C        3.68443404       2.10700530       3.66617429       0.00000000       0.00423139       0.00520403      -0.00641348
S        1.08781733       5.64343973       1.31420680       0.00000000       0.01563209       0.00120312      -0.00697846
C        0.08861595       8.50169383       3.83446496       0.00000000      -0.00598775      -0.00341263       0.00236378
C        7.43082855       0.00793070       3.71340596       0.00000000       0.00245305      -0.00245379       0.00002176
C        6.17172891       2.16425577       3.62633431       0.00000000      -0.00365817      -0.00223695      -0.00370188
C        5.02331897       4.37776619       3.40194640       0.00000000       0.00005350      -0.00091563      -0.00727772
N        3.82629160       6.50558928       3.44239893       0.00000000       0.01258488       0.00606706       0.00650551
C        2.52625560       8.54370790       3.62208972       0.00000000      -0.00650446       0.00103729       0.00320737
C        9.90355784       0.00494360       3.75420392       0.00000000       0.00052608      -0.00077933      -0.00663937
C        8.65557641       2.14812615       3.70393993       0.00000000      -0.00141605       0.00362272       0.00064895
C        7.44150175       4.29700807       3.72088559       0.00000000      -0.00344412       0.00027412      -0.00812934
C        6.23653237       6.45689001       3.74774501       0.00000000       0.00481175       0.00190635      -0.00955148
C        5.01050578       8.56668081       3.77400058       0.00000000      -0.00007295       0.00381235      -0.00948249
C        0.01919163       1.42459251       3.95294423       0.00000000       0.00314163      -0.00368605       0.00322669
C       -1.19023005       3.55715020       3.73186261       0.00000000       0.00033275      -0.00005499      -0.00151613
C       -2.41398352       5.69089230       3.99660868       0.00000000      -0.00977201      -0.00148922       0.00017361
C       -3.63444950       7.83925023       4.02602357       0.00000000       0.00674693      -0.00195457       0.00099647
C       -4.88532525       9.98509956       4.03546282       0.00000000      -0.00505055      -0.00677728       0.00183019
C        2.47620080       1.44633873       4.01339822       0.00000000       0.00696321       0.00324003       0.00173536
O        1.11233046       3.44408485       4.44999122       0.00000000      -0.01339240      -0.00624037       0.00081277
C        0.00249242       5.57336155       4.42366738       0.00000000       0.00761457       0.00551287       0.00603661
C       -1.15482912       7.80046152       4.02859512       0.00000000      -0.00167014      -0.00690957       0.00743510
C       -2.41291494       9.97152317       3.99964298       0.00000000      -0.00170063       0.00755294       0.00821896
C        4.94137740       1.44119464       3.71147304       0.00000000       0.00097232      -0.00120237      -0.00036080
S        3.53102039       3.68352993       2.93648582       0.00000000      -0.00373465      -0.00086448      -0.00400776
C        1.31978008       7.80909660       3.62682597       0.00000000      -0.00625941      -0.00084611       0.00629902
C        0.04869123       9.95773021       3.80034330       0.00000000       0.00225122      -0.00426173      -0.00753856
C        7.40883110       1.44555974       3.68022444       0.00000000      -0.00240255      -0.00030041       0.00038959
C        6.19343879       3.59769664       3.58187574       0.00000000      -0.00531387      -0.00118042       0.00653638
C        5.00065499       5.78996983       3.51017252       0.00000000       0.01060122       0.00211659      -0.00361776
C        3.79213012       7.84926522       3.60092285       0.00000000      -0.00197444       0.00587050      -0.00106905
C        2.50549438       9.98322221       3.69407186       0.00000000       0.00023601      -0.00156299       0.01089773
C        9.89990285       1.43490535       3.74726409       0.00000000       0.00114405      -0.00038456       0.00125599
C        8.66980451       3.57177739       3.74684516       0.00000000      -0.00015946       0.00463450       0.00138110
C        7.45324210       5.71932454       3.81364649       0.00000000      -0.00429690      -0.00205982      -0.00379687
C        6.23817881       7.86445491       3.85600467       0.00000000      -0.00075213      -0.00057195      -0.00292441
C        4.97801403       9.98025626       3.83338745       0.00000000      -0.00013872       0.00112182      -0.00855537
Re       1.77830423       5.77673658       3.31838313       0.00000000      -0.00486244       0.01170074       0.00402730
O        0.64542644       5.69489477       5.69081461       1.00000000      -0.00072887       0.00628586       0.00421419
O        2.05044684       5.64417567       5.32427401       1.00000000       0.00148892       0.00043189       0.00686415
