50
Lattice="12.336457 0.0 0.0 -6.168228499999997 10.683685154694365 0.0 0.0 0.0 15.0" Properties=species:S:1:pos:R:3:forces:R:3 energy=-442.78159103236084 free_energy=-442.78159103236084 stress="-0.0011876971439420446 -0.003237188481308478 -8.19398399033134e-06 -0.003237188481308478 0.002712214633628774 -3.403724581292591e-06 -8.19398399033134e-06 -3.403724581292591e-06 -1.1232666244088827e-05" pbc="T T T"
C       -0.00476797      -0.02716704       3.85905786       0.00146061      -0.00642343      -0.00021136
C       -1.27057213       2.06512535       4.11049114       0.00004675      -0.00531929       0.00095191
C       -2.50335623       4.23579005       4.17818584      -0.00827849       0.00213255      -0.00071501
C       -3.68147969       6.38297942       3.97142682       0.00272907       0.00257526       0.00121133
C       -4.92768513       8.52565657       3.77885862      -0.00032647      -0.00495460       0.00028711
C        2.46633517       0.01903909       3.83512677      -0.00299843       0.00132145      -0.00446053
C        1.19241276       2.12359712       3.92461884       0.00127391       0.00624344       0.00277965
C       -0.09682545       4.15506829       4.11888130      -0.00149378      -0.00014327       0.00021217
C       -1.18760704       6.35976067       3.97718151       0.00748487       0.00289911      -0.00639514
C       -2.44715642       8.52127476       3.84612744      -0.00626173      -0.00012831      -0.00750434
C        4.91559971       0.00138178       3.81078402       0.00510182      -0.00196965       0.00276627
C        3.68194445       2.21011135       3.80184858       0.00356004      -0.00506790      -0.00227136
S        1.10859368       6.56622194       1.98192538       0.00385844      -0.00463929       0.00209651
C        0.00243514       8.52090566       3.59990373      -0.00507790       0.00915103      -0.00168735
C        7.38658713      -0.02549186       3.79232969       0.00671107       0.00533619       0.00106015
C        6.14787063       2.11005282       3.93036902       0.00164203       0.00434587       0.00567890
C        4.94396410       4.22077871       3.72446236      -0.00063785       0.00695254       0.00016458
S        3.78338520       6.28914731       2.48126054      -0.00335388      -0.00014793      -0.00443738
C        2.47450099       8.55949269       3.32604452      -0.00636308      -0.00501441       0.00490339
C        9.85513716      -0.03999983       3.83162582      -0.00255703      -0.00540541      -0.00643638
C        8.60810799       2.09565537       4.06087926      -0.00008428      -0.00279474      -0.00503472
C        7.38939401       4.24566623       4.02332488      -0.00374041       0.00521956      -0.00767504
C        6.19812037       6.38105489       3.69139772      -0.00128696       0.00370024       0.00458663
C        4.94480871       8.53034904       3.51996092       0.00055229      -0.00153295      -0.00269810
C       -0.02511403       1.38858054       3.98309768       0.00442271      -0.00254347       0.00462131
C       -1.30664068       3.47268917       4.22259938      -0.00316428      -0.00096121       0.00570229
C       -2.45691700       5.66195358       4.07729208       0.00381834       0.00398036      -0.00355525
C       -3.68426454       7.81011463       3.87029728      -0.00353273      -0.00148068       0.00116280
C       -4.92866225       9.96347097       3.81575293       0.00041375      -0.00725706       0.00416632
C        2.45272071       1.46032111       3.84506965      -0.00372758       0.00316868       0.00245787
N        1.09099070       3.49487606       3.93499886       0.01245666       0.00411665       0.01426423
C       -0.00094769       5.57504685       4.05164028       0.00494602      -0.00085035       0.00769347
C       -1.20842901       7.79636386       3.80003495      -0.00512817       0.00504094      -0.00352480
C       -2.47109362       9.96396621       3.81951679      -0.00121333       0.00055262      -0.00487841
C        4.90377397       1.43797784       3.84277521       0.00483620      -0.00267837       0.00619297
N        3.73349767       3.59176826       3.68874210       0.00655527      -0.00570721      -0.00938739
C        1.22671397       7.86134686       3.19069947      -0.01193409       0.00323712      -0.00022553
C       -0.01353443       9.95112386       3.73585618       0.00774598       0.00749625       0.00015687
C        7.37949923       1.39060907       3.94997964       0.00153764       0.00367555      -0.00069189
C        6.16776960       3.52143857       3.94101230      -0.00186691       0.00631409      -0.00584661
C        5.03319805       5.61419046       3.48547691      -0.00066540       0.00632849      -0.00845508
C        3.71481733       7.90746136       3.19014840      -0.00222958      -0.00239806       0.00618253
C        2.45543313       9.95545398       3.67998622      -0.00123314      -0.00293623      -0.00373522
C        9.83881411       1.36956912       4.03039753      -0.00058343      -0.00644705      -0.00045495
C        8.60661977       3.52213152       4.12286307      -0.00758683      -0.00159603      -0.00152168
C        7.41828993       5.66992876       3.93295489       0.00083862       0.00573570       0.00205193
C        6.18236675       7.81112611       3.63215662       0.00108146      -0.00007688      -0.00109593
C        4.92850125       9.94537039       3.75120992      -0.00154874      -0.00443823       0.00058853
Re       2.05693235       5.29221917       3.74834051      -0.00204239      -0.01469961      -0.00173864
O        2.54634187       5.78885235       5.32199083       0.00584336      -0.00191206       0.01269841
