50
Lattice="12.336457 0.0 0.0 -6.168228499999997 10.683685154694365 0.0 0.0 0.0 15.0" Properties=species:S:1:pos:R:3:forces:R:3 energy=-448.584680665257 free_energy=-448.584680665257 stress="0.0029898191037901305 -0.0015468685520977164 -4.048679228078721e-06 -0.0015468685520977164 -0.0017085079447140498 -2.1390139041197084e-06 -4.048679228078721e-06 -2.1390139041197084e-06 8.218380055124487e-06" pbc="T T T"
C        0.00966538      -0.00488180       3.98419644      -0.00181841      -0.00103235      -0.00780615
C       -1.22278598       2.14248748       3.95623079      -0.00307546       0.00604237      -0.00027968
C       -2.46578982       4.26861637       3.77941082      -0.00305894      -0.01106503      -0.00647723
C       -3.71528545       6.39923351       3.74034329       0.01009873       0.00476153      -0.00278051
C       -4.93503059       8.52645025       3.85825393      -0.00595231       0.00119034       0.00528278
C        2.47493252      -0.02727032       3.91582514       0.00056334       0.00172039      -0.00004214
C        1.25093837       2.12550998       3.91695381       0.00939640       0.00405783      -0.01359766
C        0.02366358       4.24967996       3.75487664       0.00816643      -0.00277763       0.00357870
C       -1.23502552       6.38870045       3.59718453      -0.00613481      -0.00020615       0.00625349
C       -2.44857535       8.51592383       3.82026124      -0.00551689       0.00694119      -0.01375004
C        4.94100325      -0.01736599       3.90059722       0.00061749      -0.00797997      -0.01216764
C        3.68806876       2.11475257       3.83825994       0.00326237       0.00372775      -0.00057118
N        2.47223547       4.21187970       3.73282700       0.00126581       0.00401738       0.00577459
O        0.80389048       5.96131155       2.34475047       0.00214177      -0.00321107       0.00744406
C        0.02359365       8.51919905       3.88454674       0.01063224      -0.00358375       0.00392287
C        7.39624954       0.01941522       3.97709636      -0.00101702       0.00271642       0.00662423
C        6.15068407       2.14396144       3.85793159       0.00214888      -0.00777398      -0.01379610
C        4.88962407       4.26891283       3.60227836      -0.00203465      -0.00953437      -0.00441222
S        4.05540789       6.29623730       1.76832214      -0.00214275       0.00130282       0.00058597
C        2.48552382       8.59916364       3.97347366       0.00859649      -0.00249885       0.00868552
C        9.88465642       0.02658484       4.03638631      -0.00578149      -0.00668673      -0.00194493
C        8.63092355       2.14781343       3.92076066      -0.00235759       0.00361544       0.00086699
C        7.38295198       4.27026871       3.74315079      -0.00346677       0.00722472       0.00568677
C        6.12457935       6.40518513       3.64432786       0.00229309       0.00248903       0.00457515
C        4.94691714       8.54271871       3.98779565      -0.00603500      -0.00297340       0.01439480
C        0.01241197       1.42611045       3.96720309       0.00130949       0.00609403      -0.00100742
C       -1.22298796       3.56230315       3.85223848       0.00515932       0.00432427      -0.00002431
C       -2.46789604       5.68812446       3.69688121      -0.00133196      -0.01253914      -0.00485792
C       -3.69781644       7.81561119       3.79573986      -0.00274334       0.00575300      -0.00347033
C       -4.93045528       9.95062187       3.93046919       0.00056021       0.00058836      -0.00185422
C        2.47131899       1.40094663       3.90300848       0.00830517       0.00045685      -0.00312053
C        1.27325912       3.55189025       3.82159629       0.00763426      -0.00417097      -0.00381094
C       -0.04137857       5.60050334       3.28768618      -0.01136922      -0.00005306       0.00048873
C       -1.21289514       7.80024045       3.75191189      -0.00293342       0.00539903       0.00050798
C       -2.45541073       9.94349844       3.88515522      -0.00437464       0.00172019      -0.00856112
C        4.92675139       1.41614153       3.86996370       0.00049439      -0.00751174       0.00067255
C        3.66090580       3.54408428       3.71733231      -0.00255713       0.00159480       0.00574629
C        1.27523402       7.87242016       3.93996757       0.00750489       0.00637274       0.00914274
C        0.00681136       9.96154419       3.92832972       0.00508822      -0.00242725      -0.00319022
C        7.38885351       1.44291936       3.93026114       0.00247186       0.00083250      -0.00412479
C        6.13654737       3.56757828       3.74744468      -0.00103890      -0.00584060      -0.00170610
C        4.87152068       5.68923878       3.32106115      -0.00422134      -0.00704492       0.00353802
C        3.70919694       7.86996977       4.04681014       0.00053114       0.00885960       0.00164524
C        2.47493331      10.03074730       4.03453945      -0.00493362      -0.00397749      -0.00167005
C        9.87649525       1.44495262       3.98560317      -0.00538137       0.00003572       0.00099448
C        8.62729829       3.56513446       3.82008066      -0.00788857       0.00238118       0.01218079
C        7.36812294       5.69490532       3.70779536       0.00744892       0.01067109      -0.00475523
C        6.16008107       7.81440027       3.81881926      -0.00677500      -0.00044240       0.00755418
C        4.94672812       9.98123527       4.02122421      -0.00436314      -0.00703845       0.00102892
Re       2.54763262       6.44509625       3.39349547       0.00261285       0.00547871       0.00260282
