51
Lattice="12.336457 0.0 0.0 -6.168228499999997 10.683685154694365 0.0 0.0 0.0 15.0" Properties=species:S:1:pos:R:3:initial_magmoms:R:1:forces:R:3 energy=-448.8909529823259 free_energy=-448.8909529823259 stress="-0.0036823565435910896 0.00426372355300159 -2.1418558180001183e-05 0.00426372355300159 -0.003521204375738681 -5.092438080451327e-06 -2.1418558180001183e-05 -5.092438080451327e-06 1.0015706193115241e-05" pbc="T T T"
C        0.00568244      -0.03377372       3.67030595       0.00000000      -0.00286025       0.00558313       0.00889132
C       -1.20454446       2.12000475       3.64594618       0.00000000      -0.00658991      -0.00077937      -0.01184581
C       -2.43913105       4.24339703       3.88268191       0.00000000      -0.00137711       0.00291732      -0.01674176
C       -3.71323281       6.37775993       3.97013133       0.00000000      -0.00391340      -0.00212277       0.00424792
C       -4.95637744       8.50676903       3.82942140       0.00000000       0.00610260       0.00456811      -0.00418988
C        2.46628110      -0.02186371       3.82608351       0.00000000      -0.00282018      -0.00881068      -0.00543573
C        1.27946414       2.05490643       3.34139236       0.00000000       0.00993958      -0.00186691      -0.01330462
C       -0.01048093       4.33210048       3.38690067       0.00000000      -0.00564438       0.00297750       0.01618959
C       -1.28822948       6.42990404       3.79382944       0.00000000      -0.00171095       0.00142810      -0.00175993
C       -2.49402709       8.53486144       3.94949899       0.00000000       0.00033095      -0.00104487      -0.00679495
C        4.93461597      -0.02235789       3.96995673       0.00000000      -0.00361609      -0.00548056      -0.00069249
C        3.74176781       2.12110110       3.82546366       0.00000000      -0.00122768      -0.00610445       0.00051994
N        1.05236235       6.47944697       3.33277199       0.00000000       0.00775006       0.00180679       0.00982338
C       -0.03296652       8.54037700       3.79194751       0.00000000      -0.00441073      -0.00066376       0.00234598
C        7.41606666      -0.04006529       3.90222378       0.00000000       0.00971781       0.00251289      -0.00293359
C        6.20501058       2.07515080       4.05359476       0.00000000       0.00088126       0.00176139      -0.01126021
C        4.98654941       4.15409931       3.88122229       0.00000000       0.00102628      -0.00440970      -0.00205012
P        3.55333387       6.14460900       2.86396692       0.00000000       0.00875413       0.00333663       0.00255707
C        2.44450020       8.52542170       3.54362107       0.00000000      -0.00627978      -0.00802880       0.01468958
C        9.88088531      -0.03212318       3.72975685       0.00000000       0.00441962       0.00137439       0.01130841
C        8.67368097       2.09590451       3.94793552       0.00000000       0.00084527       0.00734554       0.00110451
C        7.43517062       4.22249227       4.03695133       0.00000000       0.00653386      -0.00068349      -0.00093426
C        6.17484711       6.34802473       3.79499832       0.00000000      -0.00451827       0.00672275       0.00544111
C        4.92302729       8.50109599       3.58082840       0.00000000      -0.01059677      -0.00440070      -0.00600638
C        0.02369527       1.39258890       3.54309481       0.00000000       0.00119883       0.00722304      -0.00217183
C       -1.22080502       3.54162508       3.65491426       0.00000000      -0.00606242      -0.00013324       0.00071766
C       -2.47999783       5.67497619       3.91838034       0.00000000      -0.00357271      -0.00064746      -0.01324861
C       -3.72325771       7.80534700       3.93489052       0.00000000       0.00427532       0.00108808      -0.00218323
C       -4.93755555       9.93716833       3.77228329       0.00000000      -0.00369426       0.00241624       0.00781477
C        2.49156601       1.39983604       3.66344396       0.00000000       0.00468780      -0.01099521      -0.00341649
P        1.24761075       3.53963077       2.24712366       0.00000000      -0.00569163      -0.00182422       0.01036855
C       -0.08599245       5.76692082       3.51581093       0.00000000       0.00215528       0.00495444      -0.00127323
C       -1.26651222       7.83883258       3.87003798       0.00000000      -0.00248154      -0.00049748       0.00626966
C       -2.47822391       9.95701421       3.94127852       0.00000000      -0.00441380      -0.00672075      -0.00570209
C        4.96147441       1.39124232       3.97839317       0.00000000      -0.00075440      -0.00541819       0.00596387
N        3.80341297       3.47477355       3.80742209       0.00000000      -0.00615565       0.00066890      -0.00928788
C        1.17351945       7.83608133       3.54498294       0.00000000      -0.00501656       0.00122942       0.00617264
C       -0.00110870       9.94927717       3.91607072       0.00000000       0.00241575      -0.00039122      -0.00405299
C        7.43823938       1.37421909       4.00310033       0.00000000       0.00429768       0.00680866       0.00021076
C        6.22172579       3.48053348       4.05232286       0.00000000       0.00504172       0.00123597      -0.01526577
C        5.00946245       5.55498727       3.66126978       0.00000000       0.00257601      -0.00313436       0.00456217
C        3.67074550       7.84659109       3.37713152       0.00000000      -0.01351029      -0.00953537       0.00541328
C        2.47054447       9.94060818       3.74282692       0.00000000       0.00820825      -0.00553780       0.00970747
C        9.90129637       1.39558390       3.79280051       0.00000000      -0.00581040       0.00275856      -0.00777046
C        8.67460778       3.51992222       3.99073186       0.00000000       0.00491813       0.00331183      -0.00616818
C        7.41022386       5.64867989       3.96733824       0.00000000      -0.00422178      -0.00139182       0.00936937
C        6.15325703       7.78263108       3.71750811       0.00000000      -0.00093084       0.00775675      -0.00732526
C        4.93708268       9.93514050       3.66242460       0.00000000      -0.00101170      -0.00349142       0.00226259
Re       2.00238131       4.82512858       3.90739108       0.00000000       0.01031374       0.01015010       0.00637071
O        1.84912891       6.09011681       6.16871888       1.00000000       0.01889149       0.00373646       0.00271656
O        2.49405838       4.96251784       5.79860132       1.00000000      -0.00638794      -0.00155841       0.00677687
