51
Lattice="12.336457 0.0 0.0 -6.168228499999997 10.683685154694365 0.0 0.0 0.0 15.0" Properties=species:S:1:pos:R:3:forces:R:3 energy=-456.17504075265236 free_energy=-456.17504075265236 stress="0.0021396349349886577 -0.00047428609727380314 -2.3690364491228927e-06 -0.00047428609727380314 -0.007513267562333802 1.3088985255977766e-05 -2.3690364491228927e-06 1.3088985255977766e-05 6.7077577581259214e-06" pbc="T T T"
C        0.00506725      -0.00397419       3.89195402       0.00121892       0.00879984       0.00490218
C       -1.21480659       2.15455692       3.87362179      -0.00020908      -0.00439608       0.00188243
C       -2.45189912       4.28566740       3.76023099      -0.00525279       0.00017326       0.00041318
C       -3.70152670       6.41064513       3.73981015       0.00222463       0.00142651       0.00819029
C       -4.94499647       8.52760345       3.80805424      -0.00560433      -0.00129425      -0.00363354
C        2.47356592      -0.03154765       3.81281956       0.00455822      -0.00193599       0.01054452
C        1.24973474       2.10510319       3.72376917       0.00323066       0.00583935       0.00273186
C        0.03200084       4.25143614       3.64818115      -0.00548018      -0.00015536      -0.00835579
C       -1.21330731       6.40714486       3.66253938       0.00160149      -0.00754248       0.00612230
C       -2.44427879       8.52364611       3.83878374      -0.00376993      -0.00233826       0.00628783
C        4.94170031      -0.00529737       3.91091295       0.00379415       0.01103654       0.00337229
C        3.69746709       2.10104524       3.69444764      -0.00962871       0.00733943      -0.00043586
N        2.47768262       4.14865195       3.50830227       0.00303258      -0.00392149       0.00475928
O        0.90261210       6.12896272       2.51619937       0.00770480      -0.00190285      -0.00841099
C        0.02418266       8.55216646       4.04289054       0.00590147      -0.01166313      -0.00311130
C        7.39277688       0.06163696       4.10945851       0.00249942      -0.00747652      -0.00649717
C        6.15745979       2.15488373       3.85650307      -0.00078899       0.00024342      -0.00541289
C        4.91222360       4.25266064       3.52659973       0.00239056       0.00756537      -0.00939113
S        3.87518004       6.30257783       2.01342790      -0.00729811       0.00264459       0.01059119
C        2.47540240       8.67930625       4.21825464       0.00218883       0.00489496      -0.00413817
C        9.89151675       0.06059447       4.09270963      -0.00385033      -0.00532971       0.00301431
C        8.63953469       2.17379598       3.94739677       0.00026160       0.00082431      -0.00363497
C        7.39476922       4.28397216       3.73870063      -0.00545353       0.00649876      -0.00137716
C        6.14291559       6.40922145       3.59930540       0.00459620      -0.00307377       0.00911236
C        4.92563400       8.55347826       3.97029325      -0.00270213      -0.00053521      -0.00151669
C        0.01055159       1.42220154       3.83656994       0.00831124       0.00758993       0.00674014
C       -1.21015302       3.57399359       3.77576186      -0.00255484      -0.00364154      -0.01208301
C       -2.45059178       5.70418814       3.71322321      -0.00048463       0.00067495      -0.00174459
C       -3.69661935       7.82341718       3.78299824      -0.00506299       0.00185701      -0.00686105
C       -4.93616413       9.95083326       3.84036011       0.00008702       0.00157680       0.00393779
C        2.47397910       1.38741888       3.74121694      -0.00340773      -0.00140069      -0.00067691
C        1.27542008       3.52310653       3.62368334       0.00375204       0.00113801      -0.00687553
C       -0.02040225       5.63997647       3.33700803       0.00244609      -0.00194052      -0.00311726
C       -1.20381792       7.81695189       3.84522066      -0.00456577      -0.00436819      -0.00364953
C       -2.45374233       9.94909489       3.85836427       0.00821184       0.00115867      -0.00049790
C        4.93537363       1.41976090       3.82426100      -0.01114215       0.01267246       0.00824534
C        3.67331220       3.51896849       3.55166734       0.00000191       0.00207568      -0.00047086
C        1.27425591       7.95891122       4.19194748       0.00077337      -0.00647346       0.00507478
C        0.00608524       9.99473729       4.04129721      -0.00137363      -0.00400384      -0.00496618
C        7.39405483       1.47331356       3.98690110       0.00054928      -0.00606671       0.00065260
C        6.15013240       3.57217409       3.72413531      -0.00449230       0.00267031      -0.01322365
C        4.93199349       5.66320185       3.26785884       0.00988098       0.00466015      -0.00129129
C        3.67363533       7.94580175       4.13664440       0.00189098       0.00787131       0.01435407
C        2.47510568      10.09365889       4.21029721      -0.00150571      -0.00601291      -0.00841501
C        9.88527612       1.47195762       3.98580649       0.00003245      -0.00690000       0.00228066
C        8.63909722       3.58485284       3.82265720      -0.00708495       0.00429988      -0.01609564
C        7.38440386       5.70520062       3.68926893       0.00353275       0.00536432       0.01186865
C        6.14834479       7.82103897       3.77340747       0.00081368      -0.00341972       0.00978726
C        4.94116617       9.99524968       4.00309873       0.00288369       0.00145062       0.00191063
Re       2.45532833       6.32660405       3.86856989      -0.00026855      -0.01006173       0.00365219
O        2.46927507       5.79524987       5.52007771       0.00361055      -0.00649203      -0.00454405
