50
Lattice="12.336457 0.0 0.0 -6.168228499999997 10.683685154694365 0.0 0.0 0.0 15.0" Properties=species:S:1:pos:R:3:forces:R:3 energy=-443.6532278652325 free_energy=-443.6532278652325 stress="-0.003532234236941238 -1.7727217243668992e-05 -8.183284919468885e-06 -1.7727217243668992e-05 -0.005182402990270977 6.620889263435991e-06 -8.183284919468885e-06 6.620889263435991e-06 -6.716596087691778e-06" pbc="T T T"
C       -0.00128346      -0.02445906       4.03555374       0.00113037       0.00922888      -0.00532424
C       -1.24108919       2.11041309       4.04993850       0.00345534       0.00152364       0.00697359
C       -2.47432116       4.25300302       4.07624006       0.00143092       0.00073481       0.00164493
C       -3.70233250       6.39068373       4.06752849      -0.00008860      -0.01018326      -0.00203166
C       -4.93484403       8.52460349       4.02031244      -0.00062998       0.00521143       0.01027395
C        2.46536075      -0.02132487       4.01304557       0.01562650       0.00708789      -0.00127925
C        1.21524289       2.08644326       3.79105206       0.01258463      -0.00098484      -0.00014234
C       -0.05030716       4.22127541       3.64369290      -0.00653447      -0.00656904      -0.00126243
C       -1.24221110       6.39048401       3.79642705      -0.00122651      -0.00553274      -0.00348785
C       -2.46755498       8.52533526       4.01757367      -0.00358893      -0.00575344      -0.00295588
C        4.93357806      -0.02438044       4.02351710       0.00055934       0.00374111      -0.01009184
C        3.71495621       2.08618067       3.78563816      -0.00130106      -0.00381508       0.00272050
P        2.46526834       4.21958989       2.61606028      -0.00918597       0.01430526      -0.00047148
P        0.80913876       6.50683369       2.02520205      -0.00505110       0.01381236      -0.00601178
C       -0.03645653       8.56039979       3.67228746      -0.00109709       0.00207018       0.00762810
C        7.39927788      -0.01409605       3.94615608       0.00206106      -0.00344503       0.01325847
C        6.17281395       2.11057982       4.03634675      -0.00748253      -0.00076326       0.01077060
C        4.98040177       4.22253779       3.64215400       0.00105728      -0.00748567      -0.00319967
P        4.13237099       6.51654333       2.02102938       0.00546366      -0.00125169      -0.00575134
C        2.46813269       8.60753408       3.38829105      -0.00250968      -0.00476663       0.00695133
C        9.86951155      -0.01452045       3.95701248      -0.00594747      -0.00015558       0.00515963
C        8.63399294       2.11421329       4.12329046      -0.00147543       0.00944771      -0.00407946
C        7.40558609       4.25267494       4.07238776       0.00062742       0.00591621       0.00293322
C        6.17308974       6.39073800       3.80140382      -0.00091080      -0.00070631      -0.00668101
C        4.97135026       8.56195266       3.68247811      -0.00519498       0.00120046      -0.00917799
C       -0.01058105       1.39221475       3.99830837       0.00885912       0.00735553      -0.00244210
C       -1.25394470       3.53186879       3.97398961      -0.00349739      -0.00216125      -0.00552156
C       -2.46470346       5.68190105       4.02180261       0.00092764      -0.00650425      -0.00802715
C       -3.70117600       7.81386022       4.05814636      -0.00353223      -0.00965267      -0.00831097
C       -4.93599841       9.94729940       4.04059481       0.00951374       0.01274494       0.00205891
C        2.46505568       1.39080077       3.84895747       0.00924012       0.00108215       0.00088779
C        1.12326923       3.46262477       3.47498546      -0.01004988      -0.01061292       0.00474808
C       -0.04347508       5.65268082       3.46522084       0.00509207      -0.00460046      -0.00034535
C       -1.23967336       7.82058663       3.83168384      -0.00398862      -0.00303269      -0.00227347
C       -2.46858386       9.94811775       4.03674945       0.00734393      -0.00154032      -0.01051448
C        4.94224130       1.39222712       3.98519373      -0.00718941      -0.00002862       0.00623748
C        3.80695345       3.46367894       3.47473975       0.01122493      -0.01504633       0.00159057
C        1.19773888       7.91708285       3.23711010      -0.00202143       0.00969744       0.00335256
C       -0.00498325       9.95501803       3.91955918       0.00039260       0.00300082       0.00190818
C        7.40210238       1.39928560       4.07558225      -0.00300060       0.00041605       0.01208211
C        6.18528160       3.53211036       3.96519061       0.00166541       0.00103045       0.00280251
C        4.97023379       5.65575436       3.47045962       0.00026181      -0.00819542      -0.00653227
C        3.74126766       7.92288481       3.23386547      -0.00204974       0.00066629       0.01139624
C        2.46677580       9.97421575       3.77886696      -0.00221096      -0.00619861       0.00137875
C        9.86611744       1.39888347       4.08579887      -0.00112864       0.00338967       0.00741614
C        8.63379427       3.54068270       4.13747661       0.00120393       0.01109248       0.00105998
C        7.39578059       5.68172000       4.02236141      -0.00094355      -0.00034373      -0.00778253
C        6.17331539       7.82016563       3.83926921      -0.00262683       0.00251157      -0.00481225
C        4.93773955       9.95511558       3.93457196      -0.00528287       0.00359428      -0.00588387
Re       2.47405861       6.37068748       3.49555531       0.00002493      -0.01153179      -0.00083942
