53
Lattice="12.336457 0.0 0.0 -6.168228499999997 10.683685154694365 0.0 0.0 0.0 15.0" Properties=species:S:1:pos:R:3:forces:R:3 energy=-459.5980023139438 free_energy=-459.5980023139438 stress="-0.0053250312383052965 0.0021085088902281744 1.1891608211590563e-05 0.0021085088902281744 -0.004090988101285395 -8.485460132451573e-06 1.1891608211590563e-05 -8.485460132451573e-06 2.7389837553322122e-05" pbc="T T T"
C        0.08451363      -0.10697165       3.92387062      -0.00018391       0.00100103      -0.00192422
C       -1.14133599       2.03225949       3.97423002      -0.00509272       0.00283503       0.00436856
C       -2.36890645       4.18397634       3.88927326       0.00612917      -0.00195386       0.00342267
C       -3.59398840       6.31870792       3.81191694       0.00079239       0.00210028       0.00144712
C       -4.85234776       8.44845801       3.80352356      -0.00020138      -0.00461868       0.00369227
C        2.55449799      -0.09636626       4.01803407      -0.00132669      -0.00226556       0.00191515
C        1.31301462       2.02143362       4.20410665       0.00180815      -0.00510727      -0.00337256
C        0.06952534       4.16633011       3.97910847      -0.00544358       0.00246275       0.00309955
C       -1.13108850       6.33115360       3.67917239       0.00124545      -0.00733330       0.01218751
C       -2.38405429       8.46011649       3.75814284       0.01069173       0.00511212       0.00414980
C        5.02164425      -0.09243381       3.87805485       0.00124799      -0.00524770      -0.00314302
C        3.81087669       2.02429603       4.21060018       0.01066259      -0.00357553      -0.00661368
P        2.57102050       4.44557117       4.82417293       0.00965822       0.00729139      -0.00290555
P        1.28690589       6.18819765       2.28171484       0.00139260      -0.01489559      -0.00035941
C        0.03599392       8.51113227       3.36269948       0.00788264      -0.00373127       0.01003153
C        7.48734957      -0.07491703       3.69820537      -0.00412153       0.01381312       0.00042430
C        6.28080752       2.02358049       3.99835612      -0.00317324       0.00494553       0.01142351
C        5.09335508       4.14308333       3.97929016      -0.00751510       0.00487973       0.00280308
P        3.70338693       6.14303119       2.59877476      -0.00158434       0.01259774       0.01344728
C        2.53295416       8.56367086       3.16277003      -0.00597617       0.00138347       0.00433915
C        9.96170524      -0.08446956       3.73776110      -0.00110459      -0.00153959      -0.00286865
C        8.73937073       2.03978384       3.90234498       0.00258123       0.00109163       0.00378654
C        7.52607091       4.17474531       3.90980135       0.00806109      -0.00514207      -0.00539027
C        6.27922118       6.29681272       3.68259475      -0.00509699       0.00009544      -0.00699524
C        5.03591137       8.46246574       3.56628220      -0.01056149      -0.00509122       0.01104543
C        0.08348704       1.31180565       4.04065012      -0.00316919       0.00242470       0.00078094
C       -1.15057522       3.45920748       3.95002408      -0.00252836       0.00064639       0.00235875
C       -2.35689047       5.61357084       3.81438651      -0.00088060      -0.00398141       0.00194477
C       -3.61184828       7.74309028       3.79912851       0.00776144       0.00540639      -0.00840502
C       -4.84956642       9.86970505       3.92266670      -0.00090466      -0.00376672      -0.00552639
C        2.55878276       1.31961298       4.18753004       0.01141041      -0.00665537       0.00774914
C        1.23557945       3.43723639       4.29070143      -0.01246745      -0.00524448      -0.00433814
C        0.11063473       5.59644020       3.68776310       0.00994781       0.00403559      -0.00327745
C       -1.15180314       7.75696718       3.57536272       0.00521742      -0.00821676       0.00707163
C       -2.38263053       9.87907541       3.88541809      -0.00108909       0.00405826       0.00191456
C        5.04022327       1.31515902       4.04191276       0.00604382      -0.00724645       0.00358827
C        3.89845358       3.43386554       4.29134866      -0.01006617       0.00482060      -0.01100587
C        1.28297904       7.89402786       2.91520218       0.00187139       0.00338852      -0.00098081
C        0.07430647       9.89716849       3.65140279       0.00283698       0.00163459      -0.00321144
C        7.50509706       1.32666792       3.88503415      -0.00325887       0.01469900      -0.00265673
C        6.31172351       3.44160723       3.98822163      -0.00244077       0.00486328      -0.00005163
C        5.10657995       5.51690057       3.60336688      -0.00354823      -0.00032411      -0.00958067
C        3.74847861       7.80426556       3.28007602      -0.00284284      -0.00731145      -0.00069875
C        2.55229903       9.94360826       3.52286423      -0.00588982       0.00204846       0.00300025
C        9.96779200       1.32621968       3.88289417      -0.00232181      -0.00204059       0.00023482
C        8.74768780       3.46487613       3.91594000       0.01285145      -0.00465871      -0.00353350
C        7.51839682       5.59935994       3.82405854      -0.00041198      -0.00203824       0.00195692
C        6.25059500       7.73715863       3.66542372      -0.00748742      -0.00125717      -0.00974994
C        5.02473345       9.86805844       3.75142433      -0.00107117       0.00024739      -0.00793894
Re       2.25163729       6.75285291       4.31816061       0.00557797       0.00420910      -0.00922610
O        2.15122628       6.87805605       6.28496248      -0.01003329      -0.00016890      -0.00516516
O        0.73635749       7.32787244       6.55396839      -0.00160643       0.00499723      -0.00830312
H        0.97083893       8.15975746       7.01733999      -0.00227204      -0.00367674       0.00503875
