50
Lattice="12.336457 0.0 0.0 -6.168228499999997 10.683685154694365 0.0 0.0 0.0 15.0" Properties=species:S:1:pos:R:3:forces:R:3 energy=-442.4328492024487 free_energy=-442.4328492024487 stress="-0.0033485601550808817 -0.0024309919512338985 -3.957900367557139e-06 -0.0024309919512338985 0.007584064272093715 6.602427589730631e-06 -3.957900367557139e-06 6.602427589730631e-06 8.261621531451105e-06" pbc="T T T"
C       -0.01164171      -0.00959737       3.70652686       0.00549553      -0.00010479      -0.00311230
C       -1.27806794       2.09175314       3.65122450      -0.00744918       0.00388222       0.00319135
C       -2.50507393       4.24781436       3.58817180      -0.00509328       0.00487216       0.00230414
C       -3.71260643       6.40179346       3.58690325       0.00321251       0.00100792      -0.00466171
C       -4.93646623       8.55403135       3.64043573      -0.00084892      -0.00384868      -0.00504026
C        2.44849012       0.04512936       3.80723708      -0.00481840       0.00819078       0.00276397
C        1.17034220       2.12562175       3.83985555      -0.00199780      -0.00184765       0.00160361
C       -0.10210684       4.22946046       3.73879630       0.00940960       0.00191000      -0.00572392
C       -1.27279034       6.39022027       3.69740757       0.00379387      -0.00363889       0.00000355
C       -2.48251593       8.55516634       3.73271689       0.00216659      -0.00743634       0.00056811
C        4.92222872      -0.00361442       3.82523815      -0.00753080      -0.00971229      -0.00308989
C        3.68655279       2.21181868       3.94434125       0.00698515       0.00512370      -0.00217417
C        1.12477455       6.32324375       4.12348961      -0.00306280       0.00373592       0.00241773
C       -0.00343082       8.49240044       3.84507211       0.00501752      -0.00849115      -0.00021823
C        7.39396684      -0.06049821       3.76718086      -0.00028229      -0.00058562       0.00094919
C        6.15686336       2.11539917       3.72403964      -0.00011275       0.00503547      -0.00692498
C        4.93180935       4.29447118       3.69542587      -0.00507261      -0.00425619      -0.00698184
O        3.80413660       6.42732810       3.50577548       0.00575552       0.00092647       0.00235331
C        2.48480396       8.43864205       3.80277292      -0.00083838       0.00228886       0.00476549
C        9.84400006      -0.06237725       3.68922336       0.00666180       0.00185108       0.00786924
C        8.60818065       2.09310843       3.63408563      -0.00513733       0.00355866      -0.00099054
C        7.38556735       4.25205387       3.56445794      -0.00292843       0.00494078      -0.00194652
C        6.18318896       6.41353363       3.51824440       0.00151493      -0.00484004       0.00053803
C        4.93946151       8.52159099       3.62282536      -0.00357612       0.00401292       0.00136907
C       -0.03101109       1.41444068       3.72791584      -0.00694076      -0.00109289      -0.00129622
C       -1.28609608       3.51477226       3.62711570      -0.00036840       0.00735524       0.00551584
C       -2.48960921       5.67595293       3.60755116       0.00011114       0.00189573       0.00373918
C       -3.70453184       7.83616792       3.64640596       0.00243457      -0.00286191      -0.00178145
C       -4.93731908       9.99200459       3.72186091       0.00293375      -0.00091644      -0.00103097
C        2.42454128       1.48759787       3.89781160       0.00301020       0.01088961       0.00021729
O        1.08160452       3.52404176       3.86874646       0.00462706      -0.00423419      -0.00239666
C       -0.04735617       5.64125312       3.81960156       0.00726970       0.00094769      -0.00400762
C       -1.25308188       7.81622450       3.76282098       0.00607785      -0.00824087      -0.00440458
C       -2.48648811       9.98783189       3.79876299      -0.01148148      -0.00483132       0.00557168
C        4.91602544       1.43203586       3.83683218       0.00271462      -0.00346256      -0.01051693
C        3.78894909       3.60561679       4.07925273      -0.00077390       0.00220261       0.00619883
C        1.23031491       7.71097106       3.92957009       0.00433273      -0.00067310       0.00188677
C       -0.01175026       9.92812954       3.81651653      -0.00047305      -0.00805437      -0.00308662
C        7.38719946       1.37427701       3.70132696      -0.00222896       0.00336782       0.00309800
C        6.16291104       3.54266054       3.62735796      -0.00262831       0.00417489      -0.00507580
C        4.98437940       5.71573401       3.53725824       0.00002144      -0.00634213      -0.00381696
C        3.73891558       7.80119464       3.64968087      -0.00304372       0.00124858      -0.00682085
C        2.45779036       9.87749941       3.74995987       0.00435733       0.00236702       0.00877917
C        9.84190627       1.37542104       3.64947213      -0.00519402       0.00160172       0.00566004
C        8.61117550       3.52699865       3.58232576      -0.00575871       0.00385924      -0.00055841
C        7.40221186       5.68162918       3.54402994       0.00335268       0.00197664       0.00555746
C        6.18256393       7.83811650       3.57001226      -0.00568547      -0.00280172       0.00780546
C        4.92162505       9.94381941       3.67260234       0.00745658       0.00354762       0.00920462
Rh       2.41500945       4.92641412       4.94613716      -0.01448553      -0.00688180      -0.00327874
O        3.26381700       5.90120028       6.13532579       0.00909877      -0.00161640      -0.00499494
