49
Lattice="12.336457 0.0 0.0 -6.168228499999997 10.683685154694365 0.0 0.0 0.0 15.0" Properties=species:S:1:pos:R:3:forces:R:3 energy=-427.89757752978016 free_energy=-427.89757752978016 stress="-0.005096012731223909 0.00012984225488241256 9.750553044604707e-06 0.00012984225488241256 -0.0018820663423944077 -7.795393176330314e-06 9.750553044604707e-06 -7.795393176330314e-06 8.871564106330836e-07" pbc="T T T"
C       -0.00245982      -0.00285916       4.01246118      -0.00388976      -0.00325960       0.00077167
C       -1.25226606       2.12178122       3.96057520      -0.00205818       0.00200695      -0.00150021
C       -2.49082277       4.26762343       4.20497750      -0.00322539       0.01313576       0.00178482
C       -3.70648053       6.41566821       4.23913971      -0.00651542      -0.00891829       0.00333431
C       -4.94081254       8.55167175       4.09483768       0.01001176       0.00203107      -0.00219374
C        2.46344203       0.00656225       3.90523663      -0.00259504       0.00279308      -0.00222585
C        1.18950588       2.04474547       3.42723389       0.00185552      -0.00781311       0.00609579
C       -0.17660940       4.30318731       3.55196977      -0.01150795      -0.00196169      -0.00882484
C       -1.27380445       6.42286900       4.08568487       0.00160269       0.00649706       0.00333646
C       -2.47775962       8.55927162       4.14369736      -0.00139120      -0.00028976      -0.00257964
C        4.92928523      -0.00840094       3.90813107      -0.00220213       0.00382603      -0.00421481
C        3.71784645       2.03881177       3.29364959       0.00042937       0.01013590       0.00388043
C        1.10218037       6.42169146       3.46018082      -0.00460593       0.00355955       0.00718919
C       -0.01152989       8.53156381       3.92094192      -0.00329808      -0.00120014       0.00410889
C        7.39724823      -0.02343971       3.95934019       0.00200742      -0.01034830       0.00411411
C        6.17559148       2.11902182       3.77740951       0.00298497       0.00599054      -0.00489842
C        5.16356139       4.30310601       3.17869354       0.00252080       0.00541633      -0.00401139
S        3.96333887       6.61326117       2.32043455       0.00506411      -0.00808364       0.00342957
C        2.47190955       8.52395997       3.66313393       0.00086119      -0.00190476       0.01039550
C        9.85733394      -0.02174721       4.01752431       0.00467764      -0.00089406      -0.00571419
C        8.62331798       2.12081425       4.11107522      -0.00157245      -0.00254064      -0.00137141
C        7.41066260       4.26558325       4.06038553       0.00346425      -0.00727801      -0.00013330
C        6.22858302       6.42413193       3.79819766       0.00046486      -0.00049252      -0.00633368
C        4.94859765       8.55422406       3.82023969      -0.00016785      -0.00089727       0.00283754
C       -0.01399475       1.41539413       3.84339296       0.00116789      -0.00193415       0.01210819
C       -1.28325267       3.54553086       3.97739225      -0.00867537       0.00512153      -0.00134878
C       -2.48213633       5.69719999       4.22962304      -0.00025399       0.01055508       0.00176018
C       -3.70552427       7.84244143       4.19207812       0.00323672      -0.00744211      -0.00095735
C       -4.93417772       9.98192737       4.03327103      -0.00217545       0.00237124      -0.00721190
C        2.45893295       1.40425742       3.52503152       0.00358547       0.00548419      -0.00083307
S        0.91645458       3.47457865       2.48395135       0.00328020       0.00122004      -0.00016424
C       -0.08509450       5.70461647       3.71058196      -0.00462386      -0.00058892      -0.00201542
C       -1.24634134       7.84242559       4.08281447      -0.00220970       0.00314544      -0.00275923
C       -2.47475645       9.97921297       4.00249510      -0.00455658       0.00306093       0.00867581
C        4.93662788       1.40731293       3.67262673       0.00466615       0.00605344      -0.00649022
S        3.89468332       3.46740249       2.29539692      -0.00168718      -0.00979837      -0.00327332
C        1.21850780       7.79843647       3.67003403      -0.00407943       0.00307338       0.00636476
C       -0.00515624       9.95252786       3.94730732      -0.00270006      -0.00453050      -0.00282735
C        7.38869035       1.40817511       3.98823357      -0.00188439      -0.00506852      -0.00326180
C        6.22704915       3.54312711       3.71648700       0.00318325       0.00601531      -0.00313680
C        5.16332874       5.69268921       3.22550957      -0.00033570       0.00062497      -0.00583005
C        3.72851398       7.92251133       3.43405607      -0.00096986       0.00469991       0.00066000
C        2.46168157       9.94339715       3.91843250       0.00726666      -0.00415146       0.00566422
C        9.86152117       1.40971164       4.08257511       0.00027212      -0.00177947      -0.01152711
C        8.62440299       3.54477269       4.19254239       0.00408025      -0.00029061       0.00534769
C        7.41571518       5.69427373       4.09373076      -0.00555776      -0.01074759       0.00413767
C        6.18151333       7.84364745       3.90068659       0.00735508       0.00243103       0.00225398
C        4.92882976       9.96595576       4.00855771       0.00018805      -0.00293382      -0.00427337
Rh       2.39151525       5.14392055       2.81276022       0.00851230      -0.00410148       0.00166070
