50
Lattice="12.336457 0.0 0.0 -6.168228499999997 10.683685154694365 0.0 0.0 0.0 15.0" Properties=species:S:1:pos:R:3:forces:R:3 energy=-438.70139612195845 free_energy=-438.70139612195845 stress="-0.0024165706962499755 -0.00022953543882218926 -9.562889651160445e-06 -0.00022953543882218926 0.006272367111227183 5.0119798597491e-06 -9.562889651160445e-06 5.0119798597491e-06 -5.319567249550604e-06" pbc="T T T"
C        0.01812643       0.00006482       3.64863755       0.00069148       0.00709433      -0.00096756
C       -1.22753717       2.12105063       3.55738563      -0.00714316       0.01161652      -0.00204744
C       -2.44738561       4.26436477       3.47730927       0.00210981      -0.00766441      -0.00625053
C       -3.66990968       6.41160131       3.51387885       0.00701337      -0.01038294       0.01000001
C       -4.90356388       8.56374413       3.59778427       0.00122783      -0.00571720      -0.00291428
C        2.47768232       0.04062961       3.69727179       0.00498858       0.00280722      -0.00217365
C        1.21031453       2.16036185       3.72832411      -0.00325504       0.00041491      -0.01313401
C       -0.02143010       4.26592932       3.42635715      -0.00253482      -0.00021341      -0.00317315
C       -1.21992701       6.40155149       3.40533534      -0.00458811       0.00248857       0.00133837
C       -2.44422524       8.55621130       3.54327714       0.00261285       0.00808059      -0.00165036
C        4.95181042      -0.00246211       3.77438644      -0.00914595       0.00172005      -0.00606086
C        3.70676537       2.09277713       4.20967943       0.00208864      -0.00713121       0.00002149
O        1.16059570       6.41586135       3.49848516       0.00082535      -0.00293881       0.00336033
C        0.01367857       8.52144747       3.60882086       0.00215345       0.00029991      -0.00559692
C        7.42302488      -0.03981691       3.74511145      -0.01385499      -0.00809796       0.00047148
C        6.20557255       2.11664217       3.96641849      -0.00221918      -0.00042133      -0.00448016
C        5.11380485       4.32442080       4.34352422       0.00105434       0.00282165       0.00897595
C        3.84167767       6.41385056       4.25468864       0.01577225       0.00502834       0.00568532
C        2.45966595       8.46242927       3.77761803       0.00526452       0.00218740       0.00818233
C        9.87684717      -0.04274191       3.68518182       0.00471983      -0.00398002      -0.00331744
C        8.65262404       2.11261973       3.66895378       0.00462101      -0.00926091       0.00135150
C        7.45322652       4.26546036       3.73730228       0.00413650       0.00515791       0.00384676
C        6.24663468       6.42743395       3.78650398      -0.00520582       0.00832497       0.00863379
C        4.95756716       8.52200637       3.75829233      -0.00643500      -0.00212514       0.00459213
C        0.01580112       1.43602101       3.63364516      -0.00903104       0.01260089      -0.00407724
C       -1.22086213       3.54655837       3.45658463      -0.00092080       0.00462096      -0.00276193
C       -2.44682801       5.68575954       3.44092286       0.00435727      -0.01163029       0.00142941
C       -3.67746205       7.84420157       3.52966299       0.00795241      -0.00673613       0.00217745
C       -4.91130425       9.99445402       3.62999760       0.00450550       0.00135659      -0.00222198
C        2.46147104       1.47377758       3.87721200       0.00167582       0.00037829      -0.00913452
O        1.16690052       3.54524819       3.57409646      -0.00170041      -0.00114595      -0.00536390
C       -0.02847908       5.67663604       3.39956969      -0.00609067       0.00060077      -0.00240276
C       -1.22296378       7.83186834       3.49990319      -0.00040801       0.00659393      -0.00049114
C       -2.45576957       9.99170004       3.66683182      -0.00085782       0.00583726      -0.00338529
C        4.94808000       1.41787483       3.99600700      -0.00170052      -0.00462033      -0.00261953
P        3.77230530       3.59244533       5.22473054       0.00354075       0.00134304       0.00287860
C        1.21920093       7.80485592       3.65617092       0.00669293       0.00137350       0.00235055
C        0.01753008       9.95184849       3.71471213      -0.01718626      -0.00215709      -0.00952228
C        7.42134022       1.39904389       3.78762657      -0.00280373      -0.00744513       0.00505872
C        6.24893144       3.55093177       4.01680582      -0.00039511       0.00514196       0.00138500
C        5.05745773       5.72500478       4.13247241       0.00575187       0.00512991       0.01263458
C        3.72723991       7.77289990       3.91565922       0.00244501      -0.00190356       0.00618105
C        2.47608750       9.90417563       3.72805024      -0.00307425       0.00116478      -0.00089061
C        9.88543210       1.39623716       3.62326192       0.00525522      -0.00342529      -0.00770556
C        8.66232484       3.54403633       3.61051900       0.00362629      -0.00582440      -0.00304637
C        7.45195794       5.69533543       3.65794921      -0.00283017       0.00796148       0.01208815
C        6.20943958       7.84300976       3.69412069      -0.00905280       0.00284552      -0.00074873
C        4.95234643       9.94584133       3.68028241       0.00288796      -0.00437275      -0.00002476
Rh       2.39548683       5.24698577       4.91333464       0.00189579      -0.00214905       0.01443112
O        1.31021092       5.15014372       6.28565380       0.00056704      -0.00564796      -0.01091113
