51
Lattice="12.336457 0.0 0.0 -6.168228499999997 10.683685154694365 0.0 0.0 0.0 15.0" Properties=species:S:1:pos:R:3:initial_magmoms:R:1:forces:R:3 energy=-444.8414725485957 free_energy=-444.8414725485957 stress="0.00036339076366768064 0.0005898628585022359 3.722281679535421e-05 0.0005898628585022359 0.003803835257805193 -1.821886982306345e-05 3.722281679535421e-05 -1.821886982306345e-05 4.7834096759014304e-05" pbc="T T T"
C        0.01605204       0.07235079       3.59696876       0.00000000       0.00227605      -0.00148363      -0.00054167
C       -1.22975476       2.19056936       3.45590966       0.00000000       0.00023250      -0.00103361       0.00228902
C       -2.45667250       4.33289913       3.48506541       0.00000000      -0.00183792      -0.00125429       0.00267077
C       -3.68728305       6.47020686       3.59396562       0.00000000      -0.00122625      -0.00075807       0.00060648
C       -4.92526527       8.61392589       3.69791883       0.00000000      -0.00124425      -0.00092133      -0.00097425
C        2.47849575       0.11316201       3.62206649       0.00000000       0.00064738      -0.00052688       0.00237942
C        1.21271586       2.21643143       3.51392739       0.00000000       0.00071895      -0.00181584       0.00422292
C       -0.01303492       4.30267504       3.54320153       0.00000000      -0.00183699       0.00219134       0.00383935
C       -1.21793896       6.45876151       3.64322902       0.00000000      -0.00207141       0.00199160       0.00058863
C       -2.46286008       8.61433007       3.65238234       0.00000000      -0.00090794       0.00110021       0.00126235
C        4.94031109       0.06143863       3.67155458       0.00000000       0.00252939       0.00022416       0.00020173
C        3.74646373       2.21568230       3.72224147       0.00000000       0.00110764      -0.00342186      -0.00117508
C        1.16780814       6.44524589       4.20548886       0.00000000       0.00574200      -0.01213307       0.01698593
C        0.00265045       8.59579845       3.81129591       0.00000000       0.00033741      -0.00059490      -0.00208339
C        7.40863207       0.04743703       3.68391095       0.00000000       0.00114210       0.00341664      -0.00092367
C        6.18376684       2.18397107       3.63026228       0.00000000       0.00332410      -0.00198745      -0.00018536
C        4.98714239       4.27011091       3.92914093       0.00000000       0.00386864      -0.00131548      -0.00126657
P        3.78348965       6.50888039       5.11772379       0.00000000      -0.01448703      -0.00686713      -0.01125967
C        2.46335558       8.61941571       4.01727453       0.00000000       0.00245633       0.00015822      -0.00340687
C        9.87526147       0.05359411       3.65342362       0.00000000       0.00081076      -0.00095408      -0.00287976
C        8.64336211       2.18813724       3.52269870       0.00000000       0.00256666       0.00018306      -0.00052948
C        7.41507379       4.32734222       3.58972891       0.00000000      -0.00032400      -0.00064026      -0.00303117
C        6.19241611       6.44818249       3.86424866       0.00000000      -0.00208807      -0.00086543      -0.00430145
C        4.96373956       8.63591582       3.91626679       0.00000000      -0.00019991      -0.00104096      -0.00249694
C        0.01654876       1.50010947       3.48485947       0.00000000       0.00013991      -0.00253221       0.00248694
C       -1.22694375       3.60984324       3.45345923       0.00000000       0.00003248       0.00013630       0.00237185
C       -2.45022976       5.75422819       3.54450434       0.00000000      -0.00079592       0.00020127       0.00189311
C       -3.69110199       7.89935467       3.63974010       0.00000000      -0.00156134      -0.00024693      -0.00096773
C       -4.91720289      10.05674960       3.63977643       0.00000000       0.00191327      -0.00112117       0.00232923
C        2.48083666       1.56691647       3.62156632       0.00000000       0.00144597      -0.00269316       0.00119229
O        1.16681894       3.59423000       3.53075988       0.00000000       0.00438253       0.01011010       0.02481944
C       -0.00060975       5.71813959       3.76975292       0.00000000       0.00211132       0.00388708      -0.00160452
C       -1.23030313       7.89204983       3.70345144       0.00000000       0.00015351       0.00082026      -0.00071092
C       -2.46570305      10.05186218       3.65674167       0.00000000       0.00060106       0.00130508       0.00011255
C        4.93833489       1.49360135       3.66655986       0.00000000       0.00236428      -0.00002701      -0.00166592
O        3.80016991       3.56047153       4.03027711       0.00000000       0.00329763      -0.00910935       0.00990154
C        1.22667608       7.87121431       4.02958614       0.00000000       0.00024820      -0.00169758      -0.00404670
C        0.00640630      10.02122567       3.72294914       0.00000000       0.00194211      -0.00147387      -0.00246186
C        7.40796420       1.47247339       3.59155093       0.00000000       0.00357175       0.00091475      -0.00153134
C        6.18791167       3.59584880       3.66973688       0.00000000       0.00056870      -0.00159784      -0.00259748
C        5.02929954       5.66471790       4.13293109       0.00000000       0.00148122      -0.00006431       0.00276543
C        3.72087325       8.00031046       4.21479873       0.00000000       0.00137322       0.00300648       0.00441982
C        2.47077340      10.02773129       3.76564701       0.00000000       0.00012962      -0.00054948      -0.00594776
C        9.87974919       1.47646606       3.52053032       0.00000000       0.00109627      -0.00014924       0.00116735
C        8.64618896       3.61617824       3.50366722       0.00000000      -0.00041886      -0.00054957       0.00023317
C        7.41959329       5.74933143       3.64886285       0.00000000      -0.00222094      -0.00001636      -0.00278004
C        6.18792984       7.89585245       3.84751532       0.00000000      -0.00130329      -0.00054235      -0.00746375
C        4.95043663      10.04295592       3.70122778       0.00000000       0.00163132      -0.00139369      -0.00136936
Rh       2.14078787       5.25673392       5.25841025       0.00000000      -0.00720926       0.02115282       0.00687975
O        2.45795995       3.81024602       6.50943140       1.00000000      -0.01750211      -0.00211996      -0.04955139
O        1.74665325       2.93506170       5.88023100       1.00000000       0.00099120       0.01269895       0.02213503
