50
Lattice="12.336457 0.0 0.0 -6.168228499999997 10.683685154694365 0.0 0.0 0.0 15.0" Properties=species:S:1:pos:R:3:forces:R:3 energy=-440.08001585863093 free_energy=-440.08001585863093 stress="-0.005432908615209387 -0.0018866543139987241 -0.00033819252365016367 -0.0018866543139987241 0.0032527802147820457 0.0005130337543588257 -0.00033819252365016367 0.0005130337543588257 0.0010665832227743964" pbc="T T T"
C       -0.00689517       0.00508037       4.04100611       0.10115394      -0.12826778      -0.01549163
C       -1.26850775       2.11009347       4.03269275      -0.04108860      -0.06201712      -0.03659827
C       -2.49714826       4.25791227       4.03994652       0.17342209       0.23448486       0.02389849
C       -3.68571452       6.41970433       4.08727878      -0.06516110       0.06566260      -0.00501554
C       -4.91700686       8.57399809       4.09685476       0.08836466       0.01892798       0.00287906
C        2.45623749       0.05255456       3.87453642      -0.07768373      -0.44634930       0.06163542
C        1.14810811       2.11602680       3.72167519       0.77339003       0.53660925      -0.14358590
C       -0.16770466       4.21285766       3.54870568       1.67285754       0.50546974      -0.08378791
C       -1.25906862       6.38358376       3.76095858      -0.60112115       0.66092023      -0.00674513
C       -2.46845402       8.55977644       3.90535913      -0.10054642       0.05973180       0.00673134
C        4.92616598      -0.00524768       3.71052163      -0.07762796      -0.04661747      -0.00157179
C        3.66932024       2.09464430       3.35515079       0.02553432       0.23251609       0.01926107
C        1.12978219       6.33888676       3.24310979      -0.76612711       1.04903351       0.62603810
C       -0.00239610       8.51638430       3.62453545      -0.49462498      -0.24422157       0.02856472
C        7.39324141      -0.04028899       3.75438500      -0.01240513      -0.02284000       0.00530506
C        6.16688305       2.12587210       3.66603870      -0.23722059       0.14275633      -0.01298670
C        5.11747740       4.36778306       3.29724226      -0.56028291       0.36979756      -0.01630324
N        3.95271650       6.49861424       3.31715594      -0.57285817      -0.54999639       0.24170275
C        2.47190386       8.49465637       3.60481964       0.05566676      -1.24835227      -0.05444991
C        9.84576080      -0.04340932       3.94413362       0.11429685      -0.02787292      -0.00155791
C        8.60773456       2.10802575       3.97717876       0.06608812       0.00191763      -0.00971353
C        7.41305645       4.27211563       3.97489389      -0.02227499       0.10208337       0.00957995
C        6.23108174       6.44409208       3.98185162       0.32284035       0.36532985       0.03725603
C        4.94775592       8.54123862       3.95292554       0.53209241       0.14901209      -0.03688157
C       -0.01614153       1.43288237       3.97609775      -0.70081178      -0.28715240       0.02069179
C       -1.26714945       3.53572661       3.97102851      -1.00359569      -0.62725146      -0.06270399
C       -2.48067193       5.68600945       3.98429320       0.41082366      -0.14992544      -0.00793367
C       -3.68745883       7.85177380       4.05616206      -0.04220607      -0.07325502       0.01389829
C       -4.92900682      10.00383184       4.02748338      -0.01451983       0.19031379      -0.00463562
C        2.42237675       1.46947710       3.66132366      -0.07510490       0.01755589      -0.05825300
O        1.04378418       3.48501744       3.41758272      -0.73353318       0.14794426       0.13692969
C       -0.09100817       5.64057994       3.48095290       0.13734445      -0.59683329      -0.20117266
C       -1.25852931       7.83220743       3.75439444       0.61846215      -0.42903390      -0.00485255
C       -2.47775849       9.99066247       3.83564729      -0.01734434       0.18769351      -0.03055449
C        4.90969191       1.42532170       3.57593046       0.31704025      -0.02640530      -0.02162778
P        3.72804387       3.65458494       2.45383374      -0.28983965       0.06918167       0.21569529
C        1.21302001       7.75443776       3.47575100       0.71464855       0.29179362      -0.14618692
C       -0.00636542       9.94496093       3.69031363       0.06254754       0.01608387       0.00950369
C        7.38101027       1.39695820       3.81965418       0.01964090      -0.04316396      -0.00847632
C        6.20346125       3.57473643       3.67354280       0.45998243      -0.44323429       0.07718354
C        5.08397708       5.78143997       3.54981620       0.04399486      -0.27481887      -0.40920816
C        3.77488613       7.81277342       3.63377147      -0.72595106       0.38061026      -0.07297739
C        2.45735428       9.89575170       3.78179538      -0.04505725       0.65390878       0.01828656
C        9.84397007       1.39205850       4.01814633       0.09843847      -0.02788317      -0.00312226
C        8.61956130       3.54123506       4.04604525      -0.06452206      -0.06318580       0.00059554
C        7.43232303       5.70200349       4.06821094       0.02855226      -0.15270553       0.00565335
C        6.20082772       7.86158940       4.06655507      -0.25231480      -0.07091269      -0.06387162
C        4.92610166       9.95633112       4.01074932      -0.07004186       0.21022042      -0.00361412
Rh       2.51529595       5.15751812       3.69334251       0.90104957      -0.35086567       0.80990392
O        2.63832032       5.15336506       5.51918221      -0.07436688      -0.26639736      -0.84731406
