50
Lattice="12.336457 0.0 0.0 -6.168228499999997 10.683685154694365 0.0 0.0 0.0 15.0" Properties=species:S:1:pos:R:3:forces:R:3 energy=-438.1940862929338 free_energy=-438.1940862929338 stress="-0.004320156720418281 0.005362607295018269 -1.671911463290285e-05 0.005362607295018269 0.00349161984318158 6.392142468753832e-06 -1.671911463290285e-05 6.392142468753832e-06 -6.755070437215593e-06" pbc="T T T"
C        0.02332631       0.01425806       3.75097118       0.01066725      -0.00022840      -0.00160528
C       -1.19346058       2.15652250       3.47475684       0.00378387       0.00374517       0.00071301
C       -2.46288895       4.29506269       3.47717225      -0.00190618      -0.00095863      -0.00303989
C       -3.70567537       6.42790794       3.70847340      -0.00445933      -0.00359308      -0.00312016
C       -4.92608381       8.56690767       3.86051633       0.00277532      -0.00944617       0.00822938
C        2.49648939       0.03609182       3.92154877       0.00849924       0.00197908      -0.00371337
C        1.31021452       2.12251303       3.57010606      -0.00366952       0.00227693      -0.00116450
C       -0.08928788       4.40959508       3.08323053      -0.00806671       0.00903648      -0.00357675
C       -1.30223318       6.48733916       3.37100708      -0.01658762       0.00237918      -0.00061002
C       -2.47012109       8.57706058       3.77435283      -0.00465563      -0.00125939      -0.01351951
C        4.96395228       0.00392278       3.89947404       0.00505273       0.00421199      -0.00742721
C        3.79638274       2.12961028       4.04143722      -0.00299652      -0.00502165       0.00730292
O        1.09042329       6.48366944       3.38376885       0.01023176      -0.00998990       0.00593956
C       -0.00928183       8.55887013       3.66805950      -0.00002228       0.00308670       0.00586345
C        7.44252647      -0.02853018       3.78104801       0.00192723      -0.00528324       0.00232165
C        6.24058838       2.11291130       3.93298448      -0.00511748       0.00138816      -0.00227470
C        5.05522233       4.23315540       4.12248681       0.00095708       0.00317232       0.00252820
C        3.78181122       6.37240506       4.14378930       0.00381307      -0.00306646      -0.01272799
C        2.45177757       8.47656836       3.77818593      -0.00507638      -0.00212620      -0.00260695
C        9.89552313      -0.02097997       3.71109986       0.00024874      -0.00322302      -0.00909099
C        8.68522279       2.12942448       3.68341425      -0.00033051      -0.00467104      -0.00312078
C        7.44648396       4.27037465       3.80996653       0.00047253       0.00580408       0.00924195
C        6.19859021       6.40317456       3.93458959       0.00554037       0.00618739       0.00045529
C        4.94115106       8.52472161       3.87191732      -0.00301954       0.00306770      -0.00453071
C        0.05162059       1.44822187       3.58188636       0.00415150       0.00449381       0.00684429
C       -1.23369781       3.59396305       3.31105952       0.00169669       0.00417217      -0.00342164
C       -2.49552529       5.72253478       3.50746632      -0.01044665      -0.00283079       0.00555500
C       -3.70419676       7.85599150       3.78753462      -0.00041964      -0.00974528      -0.00135879
C       -4.91476032       9.99818340       3.85748282       0.00948752      -0.00686434       0.01279812
C        2.53119626       1.46948876       3.89277410      -0.00587115       0.00251253       0.00674963
P        1.54381808       3.77551585       2.95259025       0.00076013      -0.00240329      -0.00333736
C       -0.12256612       5.80701717       3.15586974      -0.01232913       0.00183802      -0.00110539
C       -1.26321706       7.88297996       3.60267736      -0.00619389       0.00477442      -0.00285138
C       -2.45166523      10.00058801       3.89806241       0.00793628      -0.00028248      -0.00432461
C        4.99217814       1.42600150       3.98644549      -0.00536494       0.00194021       0.00098702
O        3.90414982       3.49879546       4.32418545       0.01190326      -0.01158137       0.00994528
C        1.19160185       7.84999375       3.63462278      -0.00256036      -0.00333574      -0.00515019
C        0.02660896       9.97177852       3.79925190       0.00197741       0.00361014       0.00080594
C        7.45514409       1.40802465       3.80371927      -0.00340698      -0.00569534       0.00485445
C        6.24228550       3.53200844       3.96218643      -0.00508882       0.00670916       0.00650090
C        4.98206750       5.65180291       4.08826259       0.00964161       0.00969130      -0.00869533
C        3.70250504       7.76136173       3.92168798      -0.00142070       0.00223351       0.00584969
C        2.49089551       9.92062826       3.74796279      -0.00050192      -0.00555234      -0.00029761
C        9.91805621       1.41988500       3.61321537       0.00328753      -0.00119404      -0.00206995
C        8.66961618       3.56193505       3.65677227      -0.00099542       0.00021997       0.00233322
C        7.41635641       5.69614998       3.82016270       0.00216941       0.00429635       0.00306759
C        6.17983931       7.83154036       3.89294333       0.00002356       0.00300653       0.00098412
C        4.95687951       9.95878056       3.76978259       0.00453991       0.00212119      -0.00437372
Rh       2.30979758       5.10517460       4.64452587      -0.00551336       0.00639529      -0.00521404
O        1.23797347       4.28169548       5.75992887       0.00447665      -0.00599758       0.00445818
