52
Lattice="12.336457 0.0 0.0 -6.168228499999997 10.683685154694365 0.0 0.0 0.0 15.0" Properties=species:S:1:pos:R:3:forces:R:3 energy=-451.67800272776265 free_energy=-451.67800272776265 stress="-0.003749884522767344 -0.0025164862409216334 5.441812992516668e-06 -0.0025164862409216334 0.007358126057080895 -8.76026440930323e-06 5.441812992516668e-06 -8.76026440930323e-06 1.1708473818995046e-05" pbc="T T T"
C       -0.02418730      -0.04419512       3.71381752      -0.00698616      -0.00669980       0.00583388
C       -1.29298388       2.05748983       3.65681952       0.00586171      -0.00547768      -0.00315349
C       -2.51941175       4.21363358       3.61172700       0.01245226      -0.00323221      -0.00082470
C       -3.72427027       6.36695673       3.61743566      -0.00220602       0.00543854      -0.00212740
C       -4.94849427       8.51937611       3.66797443      -0.00226621       0.00519910       0.00104351
C        2.43683046       0.01130357       3.80382944      -0.01436761      -0.00479192      -0.00695833
C        1.15952456       2.09027217       3.78760958       0.00083899      -0.00447381       0.01365446
C       -0.11423034       4.19600621       3.71339565       0.00558967       0.00970967       0.00784373
C       -1.28517345       6.35512141       3.70486156       0.00582914      -0.00445132      -0.00185555
C       -2.49494804       8.52021711       3.74477132       0.00842783      -0.00504701      -0.00850782
C        4.90919558      -0.03814052       3.82047591      -0.00715795      -0.00548859       0.00347435
C        3.67308972       2.17646958       3.94039599       0.00641065       0.00693820      -0.00348644
C        1.11079803       6.29226802       4.12268753       0.00206941       0.00579082      -0.00962370
C       -0.01715434       8.45966831       3.84270611       0.00118635      -0.00531305       0.00942789
C        7.38150722      -0.09417665       3.77995353      -0.00591736      -0.00716935      -0.00212493
C        6.14396866       2.08018497       3.73668071      -0.00183335       0.00065737       0.00148110
C        4.92253959       4.25961648       3.73774416      -0.00155345      -0.00335037      -0.00964435
O        3.79919008       6.38791237       3.58859951       0.01037451       0.00281911       0.00240018
C        2.46998095       8.40321684       3.82432739      -0.00146892       0.00302273       0.00581487
C        9.83161560      -0.09808799       3.71414953       0.00423319       0.00067494      -0.00007256
C        8.59504903       2.05918326       3.65756838      -0.00922979      -0.00549197       0.00497002
C        7.37199918       4.21841180       3.59868725       0.00385733       0.00114074      -0.00207637
C        6.17286214       6.37952100       3.56792913      -0.00638917       0.00716598      -0.00147961
C        4.92635028       8.48423973       3.66358501       0.00307685       0.00840236      -0.00053324
C       -0.04530388       1.37918560       3.71359667       0.00295808      -0.01085758       0.00090000
C       -1.30197709       3.48031110       3.63547062       0.01466313      -0.00232262      -0.00677687
C       -2.50250060       5.64108531       3.62766259       0.00252734       0.00055148       0.01155849
C       -3.71695587       7.80097196       3.67237150       0.00329677       0.00685005      -0.01269942
C       -4.94896248       9.95816866       3.73244672      -0.01279499      -0.00237383      -0.00926427
C        2.41331372       1.45594022       3.87144177       0.00377389      -0.00100051       0.01069224
O        1.07739367       3.48680438       3.73763354      -0.00125246       0.00744205       0.00705179
C       -0.06037434       5.60580535       3.81644186       0.00641660       0.00558929      -0.00262468
C       -1.26574710       7.78153779       3.76677949       0.00838461      -0.00918581       0.00399757
C       -2.49914725       9.95352694       3.80131083      -0.01003777      -0.00424527      -0.00596666
C        4.90233348       1.39706612       3.83359261       0.00264497       0.00024348       0.01217022
C        3.77195229       3.56911834       4.10262551      -0.01033719       0.01320249      -0.00299042
C        1.21407843       7.67938412       3.93532848      -0.00048745       0.00328745       0.00841856
C       -0.02482909       9.89512977       3.81578281      -0.00596537      -0.00784664       0.00624342
C        7.37472160       1.34031496       3.71886110      -0.01155352      -0.00735815      -0.00243970
C        6.15069023       3.50713499       3.65534764       0.00220513      -0.00044875       0.00854815
C        4.97642693       5.67639938       3.59222029       0.00020115      -0.00583969      -0.00476790
C        3.72371457       7.76502592       3.69238745       0.00492953       0.00672995       0.01059976
C        2.44495948       9.84363505       3.77316132       0.00210180       0.00097199      -0.00443057
C        9.82816265       1.34029532       3.67060864      -0.00230186      -0.00017715      -0.00429555
C        8.59672124       3.49314969       3.61084232       0.00693438      -0.00295830      -0.00494476
C        7.39008449       5.64760416       3.58503803      -0.00660983       0.00488225      -0.00993121
C        6.17068866       7.80278202       3.61346717      -0.00088136       0.00838512       0.00174423
C        4.90930645       9.90728946       3.69794379       0.00108692       0.00156620      -0.00015092
Rh       2.39817752       4.88418428       4.87238970      -0.01561609      -0.00685753      -0.00842979
O        3.34649960       5.98883521       6.05774725       0.00802121       0.00387734      -0.00251510
O        2.73357092       5.91651902       7.40781916      -0.01702623      -0.00826190      -0.00566882
H        3.49786672       5.57232133       7.91838827       0.01388671       0.01018211       0.00249669
