52
Lattice="12.336457 0.0 0.0 -6.168228499999997 10.683685154694365 0.0 0.0 0.0 15.0" Properties=species:S:1:pos:R:3:forces:R:3 energy=-447.1934291548201 free_energy=-447.1934291548201 stress="-0.0023102668971016005 0.004473534183627159 5.658357885846199e-05 0.004473534183627159 0.0025098998950623505 -1.799999403603481e-05 5.658357885846199e-05 -1.799999403603481e-05 -1.3127484243643093e-05" pbc="T T T"
C        0.02441419      -0.01244388       3.72268600       0.00132100       0.00645133      -0.00602838
C       -1.19439663       2.13766381       3.56971179       0.00668140      -0.00175879      -0.00313132
C       -2.43668937       4.27676521       3.72507624      -0.00156110      -0.00104974       0.00314276
C       -3.69466421       6.40866358       3.89524569      -0.00070317      -0.00276207       0.00689669
C       -4.92359913       8.54623590       3.89921818       0.00320061      -0.00215894      -0.00396021
C        2.49580094       0.02248054       3.85642144      -0.00148080      -0.00515628      -0.00863242
C        1.29721640       2.09999564       3.41409758       0.00074558       0.00043131      -0.01046919
C       -0.03144235       4.37046897       3.32392904       0.01080492      -0.00389947      -0.00013057
C       -1.26335373       6.45363379       3.74605511      -0.00858566      -0.00146833       0.00776958
C       -2.46312648       8.56158160       3.90689747       0.00197191      -0.00161014      -0.00048604
C        4.96069594      -0.00054126       3.90474790      -0.00212906       0.00471813      -0.01555416
C        3.78203604       2.12603928       3.84681433      -0.00896199      -0.01004024      -0.00515887
O        1.08842493       6.50584588       3.17186945       0.00011917       0.00079548      -0.00105653
C       -0.00035139       8.55233491       3.77454486       0.00301243       0.00394151      -0.00976984
C        7.44184436      -0.03188376       3.81609726      -0.00152410       0.00047767      -0.00524652
C        6.22916585       2.10994234       3.91931149       0.00357008      -0.00080080      -0.00561419
C        5.02353260       4.22631413       3.98375368      -0.00363517      -0.00258246      -0.00863451
C        3.73894993       6.34807094       4.01810382      -0.00270677       0.00121739       0.00329736
C        2.45967373       8.47786402       3.73302739       0.00032501       0.00571748      -0.00780636
C        9.89631823      -0.03294316       3.73268258      -0.00611114       0.00218444      -0.00225603
C        8.68584957       2.11926668       3.78576993       0.00489678       0.00888906      -0.00986311
C        7.44532354       4.25858868       3.90372302      -0.00623787       0.00217305       0.01709443
C        6.18492848       6.38414970       3.95061157       0.01120790      -0.00434933      -0.01061374
C        4.93730028       8.50376172       3.84464832       0.00062091       0.00175841      -0.00803385
C        0.04801004       1.41952527       3.55047663       0.00570240       0.00475600       0.00920008
C       -1.21749364       3.57125068       3.53743245       0.00599601      -0.00272968       0.00578348
C       -2.46891869       5.70146889       3.80289558      -0.00666424      -0.00293036       0.01593476
C       -3.69712860       7.83747487       3.91577267       0.00210999      -0.00421183       0.00288756
C       -4.91174651       9.97525026       3.83182491      -0.00248504       0.00125767       0.01561018
C        2.52626234       1.45240800       3.72714449      -0.01241547      -0.00712773       0.00290125
P        1.42827091       3.69650397       2.58617773       0.01597310      -0.00758955      -0.00797086
C       -0.08912469       5.77190058       3.43927008      -0.00704259      -0.00273966       0.00123734
C       -1.24692502       7.86372179       3.82848211       0.00223657       0.00095401      -0.00553264
C       -2.45143983       9.99100435       3.91269192       0.00160858      -0.00058303       0.00400394
C        4.98181372       1.42322172       3.91080636      -0.00377789       0.00287172      -0.00700384
O        3.84605614       3.50309585       4.01341650       0.00580028      -0.01603042       0.00098730
C        1.20269467       7.86436584       3.61157252       0.00473421      -0.00070234       0.01070810
C        0.02668928       9.96843459       3.85275956      -0.00156152       0.00436697      -0.00238108
C        7.44942590       1.40294956       3.85057859       0.00751898       0.00073408       0.00098241
C        6.22504621       3.52895261       3.94647051      -0.00170743      -0.00249126       0.00909208
C        4.94525288       5.64239655       3.99393530       0.00339344       0.00247077      -0.00263500
C        3.69968352       7.73775918       3.85747229      -0.00277089       0.00283099       0.00263124
C        2.49236573       9.91888739       3.75970951      -0.00509961       0.00248820       0.00625733
C        9.91521524       1.40604244       3.69380580       0.00510977       0.00192934       0.01013227
C        8.67787807       3.54947896       3.81249343      -0.00576102       0.00951538       0.00639053
C        7.41564789       5.68260696       3.92460817       0.00719427      -0.00336204      -0.00100973
C        6.17815032       7.81220752       3.90450561       0.00451454      -0.00345628       0.00551626
C        4.95644171       9.93815438       3.75946003      -0.00312891       0.00720057      -0.00216538
Rh       2.05834229       5.08757236       4.27371661       0.00299258       0.00607871      -0.00380857
O        2.50902138       4.40112072       5.99152718      -0.00468179       0.00119994       0.00213368
O        2.03033074       5.37142796       6.99011130      -0.01255848      -0.01164712       0.00061653
H        2.62759196       5.13125086       7.73141911      -0.01007076       0.01582829       0.00374583
