51
Lattice="12.336457 0.0 0.0 -6.168228499999997 10.683685154694365 0.0 0.0 0.0 15.0" Properties=species:S:1:pos:R:3:initial_magmoms:R:1:forces:R:3 energy=-444.69245916790214 free_energy=-444.69245916790214 stress="-0.0027958144548175133 -0.000421213786429259 1.928798828563976e-05 -0.000421213786429259 0.006915722698447447 8.001224509838517e-06 1.928798828563976e-05 8.001224509838517e-06 -1.460064186053125e-05" pbc="T T T"
C        0.05705333      -0.02144932       3.66797489       0.00000000       0.00715357       0.00013497      -0.00150750
C       -1.18775783       2.09700579       3.55231562       0.00000000      -0.00062696       0.00464138       0.00478382
C       -2.40263364       4.24043181       3.41595954       0.00000000       0.00112039      -0.00185198      -0.00934447
C       -3.62632510       6.39184178       3.46328926       0.00000000      -0.00150033      -0.00156923       0.00024651
C       -4.86283709       8.54427636       3.58916913       0.00000000       0.00799099      -0.00174010       0.00385972
C        2.51595973       0.01995269       3.70122733       0.00000000       0.00111498      -0.00043833      -0.00497739
C        1.24237565       2.14323523       3.79234041       0.00000000      -0.00197022       0.00275153      -0.01102459
C        0.02221513       4.23678692       3.46190933       0.00000000       0.00349217      -0.00014736      -0.00111386
C       -1.17780757       6.38066652       3.35197262       0.00000000       0.00020569      -0.00355841      -0.00460161
C       -2.40437415       8.53853828       3.50798947       0.00000000       0.00476132      -0.00855093      -0.00716966
C        4.99412521      -0.02406441       3.74802183       0.00000000      -0.00552474      -0.00641483       0.01014400
C        3.75029971       2.06591940       4.19205481       0.00000000       0.00083183      -0.00285699      -0.00353677
O        1.17928792       6.38384414       3.64868138       0.00000000      -0.00487689      -0.00205263       0.00010335
C        0.05640989       8.49548599       3.58544456       0.00000000       0.00191234       0.00685550       0.00692800
C        7.46616221      -0.07040769       3.72244720       0.00000000       0.00002018       0.00789271       0.00472274
C        6.25323468       2.09036403       3.91466060       0.00000000      -0.00466016       0.00516666      -0.00434950
C        5.18668810       4.30724967       4.28938074       0.00000000      -0.00148954       0.00110387       0.00034221
C        3.90198749       6.37423431       4.36961397       0.00000000      -0.00040311      -0.00290883       0.00895069
C        2.50751039       8.43255343       3.81844669       0.00000000      -0.00327614       0.00371585       0.00513208
C        9.91841615      -0.07009786       3.69017818       0.00000000       0.00495932       0.00221310      -0.00320983
C        8.69632474       2.08620446       3.62475365       0.00000000      -0.00158790      -0.00751182      -0.00194559
C        7.50458419       4.24230998       3.67898100       0.00000000       0.00267295      -0.00138997       0.00084723
C        6.30073382       6.41072272       3.76996106       0.00000000      -0.00343716       0.00352387      -0.00138148
C        4.99566119       8.49812053       3.79528417       0.00000000      -0.00016144       0.00342869       0.01346893
C        0.05327607       1.41597358       3.66248914       0.00000000      -0.00082090       0.00169474      -0.00034898
C       -1.17599530       3.52208721       3.42751599       0.00000000       0.00358179       0.00322863      -0.00371098
C       -2.40403721       5.66401656       3.37467994       0.00000000      -0.00261558      -0.00160903      -0.00465456
C       -3.63600506       7.82492862       3.49625244       0.00000000       0.00516988      -0.00525942       0.00265108
C       -4.87275895       9.97474710       3.63673020       0.00000000       0.00668846      -0.00255690       0.00430370
C        2.49460737       1.44552835       3.89817766       0.00000000       0.00014940       0.00401618      -0.01298987
O        1.17725436       3.53126436       3.77256608       0.00000000       0.00125342       0.00112151      -0.00705368
C        0.01571431       5.65718631       3.41008919       0.00000000      -0.00243051      -0.00249941      -0.00236509
C       -1.18167254       7.81205203       3.45503767       0.00000000       0.00691057      -0.00205008      -0.00052853
C       -2.41509868       9.97244134       3.64827549       0.00000000      -0.00462575      -0.00874305      -0.00016954
C        4.99604249       1.39364873       3.96547883       0.00000000      -0.00045015      -0.00468792       0.00137067
P        3.77503582       3.63200682       5.04387314       0.00000000       0.00373912       0.01281127      -0.00238634
C        1.25850071       7.76908908       3.67668058       0.00000000      -0.00339365       0.00027431       0.00427470
C        0.05902674       9.92584469       3.68642795       0.00000000      -0.00002195       0.00750971       0.00422763
C        7.46644824       1.36948207       3.74569187       0.00000000      -0.00509559       0.00372268       0.00369704
C        6.31155447       3.52209504       3.95767066       0.00000000      -0.00317711       0.00317015      -0.00889930
C        5.12811473       5.71002397       4.13348510       0.00000000      -0.00136233       0.00010271       0.00257338
C        3.77698601       7.76159824       3.99293731       0.00000000      -0.00423521      -0.00070419       0.00932224
C        2.52076264       9.87363278       3.73320824       0.00000000       0.00148491       0.00692718      -0.00128699
C        9.92614298       1.36947373       3.60322094       0.00000000       0.00184125      -0.00045814       0.00321289
C        8.70979415       3.51809120       3.55096260       0.00000000       0.00185707      -0.00824821      -0.00821834
C        7.50153159       5.67340995       3.61243592       0.00000000      -0.00203330       0.00102897       0.00261708
C        6.25494125       7.82537094       3.70179149       0.00000000       0.00161128       0.00538393      -0.00187646
C        4.99224944       9.92360667       3.70218446       0.00000000       0.00591409       0.00278679       0.00221888
Rh       2.55564583       5.35412825       5.24445551       0.00000000      -0.00744011      -0.00310570       0.00170633
O        1.16629599       6.02463760       6.35418650       1.00000000       0.00048635      -0.00731773       0.00685545
O        0.28255047       5.14176029       5.97044276       1.00000000      -0.00970657      -0.00697573       0.00009057
