49
Lattice="12.336457 0.0 0.0 -6.168228499999997 10.683685154694365 0.0 0.0 0.0 15.0" Properties=species:S:1:pos:R:3:forces:R:3 energy=-434.10243268313826 free_energy=-434.10243268313826 stress="-0.006504681082993549 -0.0013968146330330155 -4.231257910514224e-06 -0.0013968146330330155 -0.00069504739009371 8.749117797093969e-06 -4.231257910514224e-06 8.749117797093969e-06 -1.5684634692758655e-06" pbc="T T T"
C       -0.00573193      -0.00400465       3.81362447       0.00339116      -0.00262010      -0.00503283
C       -1.26386169       2.11545295       4.06724955       0.00483310      -0.00280214      -0.00919078
C       -2.50961466       4.26875881       3.96155182      -0.00999905      -0.00956349       0.01071486
C       -3.69778762       6.41663757       3.70072514       0.00150841       0.00429612       0.01296477
C       -4.92226572       8.56213173       3.64014422       0.00473418      -0.00101107       0.00485192
C        2.46924014      -0.00891737       3.74665830       0.00515762       0.00011420      -0.00725655
C        1.24419860       2.08064169       4.09270150      -0.00238064       0.00437926       0.00383173
C       -0.16727009       4.31757347       4.51850241       0.00261593      -0.00069181       0.00856561
C       -1.30667529       6.43928264       4.09992815      -0.01021847      -0.00579654       0.00033734
C       -2.47190752       8.55458543       3.78990661       0.00432809      -0.00038086      -0.00121386
C        4.94096948      -0.01112762       3.67979315      -0.00266741      -0.00366731      -0.01090460
C        3.68026301       2.07448453       3.41290811       0.00218895      -0.01297019      -0.00033880
C        1.13113614       6.39913345       4.24944586       0.01121315      -0.00377844      -0.00297549
C       -0.00380597       8.52915344       3.90286138      -0.00465378       0.00777384      -0.00352439
C        7.40589318      -0.03526798       3.71111976      -0.00234687       0.00535923       0.00200161
C        6.17234282       2.12389339       3.44249033      -0.00236613       0.00318795       0.00791575
C        5.04374687       4.33644581       3.08088675      -0.01317850      -0.00561841      -0.00400730
N        3.86007219       6.43833787       3.39056114       0.00878867       0.01483402      -0.00377150
C        2.47777481       8.47409128       3.77123235      -0.00024484      -0.00664694      -0.00520627
C        9.86051596      -0.03147317       3.77421139      -0.01034068      -0.00126054       0.00602550
C        8.62576191       2.11857873       3.74078506       0.00348543      -0.00298559      -0.00271723
C        7.42137562       4.27263076       3.50974656       0.00069094       0.00228233       0.00130473
C        6.24080293       6.45406733       3.35811787      -0.00263697      -0.00098551       0.00593585
C        4.95429923       8.54438815       3.57997669       0.00883245       0.01259841      -0.00252023
C       -0.01241298       1.41324508       4.01688347       0.00364105      -0.00252793      -0.01203552
C       -1.30679892       3.54456022       4.21461841      -0.00089170      -0.00403681      -0.00363467
C       -2.50183210       5.70018202       3.92895130      -0.00950369      -0.01039557       0.01075177
C       -3.69641599       7.84282561       3.70365240       0.00523483       0.00345784       0.00737295
C       -4.93645654       9.97740047       3.74307780       0.00761568      -0.00059774       0.00025855
C        2.46459447       1.41298841       3.76704770      -0.00073478       0.00011517       0.00028700
P        1.37267877       3.60453918       5.02160400       0.00584781       0.00954673       0.01437007
C       -0.11198490       5.72745560       4.36570203      -0.00125711      -0.00016878      -0.00172163
C       -1.25208715       7.84545150       3.93123792      -0.00274266      -0.00260755      -0.00356893
C       -2.46401470       9.97230320       3.73045069       0.00180870      -0.00365456      -0.01332840
C        4.93716116       1.41393523       3.49637256      -0.00011992      -0.00878843      -0.00746712
S        3.58737153       3.57299933       2.53994172       0.00300894       0.01165919       0.00759696
C        1.23667952       7.78286513       3.96854861      -0.00357784      -0.00022425      -0.00984925
C        0.00401748       9.94476957       3.75644931      -0.00353888       0.00816911      -0.01107280
C        7.39480597       1.40336309       3.62021668       0.00196161       0.00424013      -0.00029680
C        6.19743240       3.55686528       3.32344355      -0.00716646       0.00181449       0.00545914
C        5.02735717       5.75601898       3.20448091      -0.00447882      -0.00020391       0.00479745
C        3.73346699       7.78674902       3.58358420       0.01242328       0.01187377      -0.00491415
C        2.46938276       9.91352136       3.74668575      -0.00871953      -0.00745992      -0.00029629
C        9.85619289       1.40125350       3.86735089       0.00145846      -0.00150163      -0.00015367
C        8.62617025       3.55060573       3.73346520      -0.00425945      -0.00437822      -0.00052832
C        7.43317690       5.70280529       3.50076954       0.00528546       0.00455578       0.00744935
C        6.19321147       7.85981449       3.51040281       0.00291669       0.00093446      -0.00037944
C        4.93364581       9.95789193       3.72905599      -0.00418571       0.00906025      -0.00027397
Rh       2.51257868       5.10466167       3.91559757      -0.00076070      -0.01292807       0.00538787
