49
Lattice="12.336457 0.0 0.0 -6.168228499999997 10.683685154694365 0.0 0.0 0.0 15.0" Properties=species:S:1:pos:R:3:forces:R:3 energy=-435.73724153454333 free_energy=-435.73724153454333 stress="-0.006192544100730388 -0.002602158803425305 -1.6316260705299858e-07 -0.002602158803425305 0.002121464560016861 -1.6364516930472222e-06 -1.6316260705299858e-07 -1.6364516930472222e-06 2.2886277560000056e-07" pbc="T T T"
C       -0.00539068       0.00090370       3.88313612       0.00301734      -0.00193952       0.00110328
C       -1.27366143       2.10439607       3.96870590       0.00611647       0.01084150       0.00340687
C       -2.49242836       4.25963103       4.04506402      -0.00462407      -0.00446735      -0.00064990
C       -3.69243434       6.41717695       4.00303013      -0.00267128       0.00019372       0.00144745
C       -4.91786768       8.57145958       3.92910197      -0.00476530       0.00331620      -0.00253433
C        2.45527242       0.04227048       3.85602582       0.00272044       0.00027042      -0.00058419
C        1.17216272       2.13425563       3.78714105       0.00181467       0.00089533      -0.00141091
C       -0.08178173       4.22917809       4.05638739       0.00044696       0.00135451       0.00471021
C       -1.25984684       6.40388902       4.09984340      -0.00301897      -0.00845437       0.00595639
C       -2.47055449       8.56583296       3.99627473      -0.00706392       0.00348682      -0.00119963
C        4.92618050       0.00144753       3.76884699       0.00581770      -0.00889822       0.00536030
C        3.67542113       2.09387172       3.33793354      -0.00507560       0.01132225       0.00419320
C        1.12732733       6.38693775       3.83010382      -0.00047773       0.00408827      -0.00906982
C       -0.00995049       8.53063738       3.89784036       0.00726445       0.00069801       0.00134202
C        7.39684874      -0.03539343       3.76121996       0.00246579       0.00082964      -0.00012020
C        6.16771209       2.12790843       3.55488744      -0.00195255      -0.00739597      -0.01007570
C        5.07578486       4.35112216       3.13642810      -0.01037216      -0.01093915       0.01149227
N        3.88540533       6.45848093       3.30467067      -0.00119342       0.01064494       0.00715078
C        2.47836599       8.47551895       3.70064625      -0.00272079      -0.00483007       0.00272177
C        9.85223400      -0.03923977       3.82067786      -0.00762467      -0.00105459      -0.00232456
C        8.61410061       2.11388716       3.84561916      -0.00385938       0.00731558       0.00387524
C        7.41554455       4.27457385       3.76346865       0.01401790       0.00638202      -0.00459661
C        6.24182770       6.45259526       3.67467052       0.00263420       0.00066803      -0.00795307
C        4.95982369       8.54319982       3.74282974       0.00172306      -0.00593303      -0.00098836
C       -0.02458206       1.42516892       3.89611710       0.00440793       0.00261725       0.00284541
C       -1.27802492       3.52120117       4.06476253      -0.00262336       0.00766670       0.00635146
C       -2.47550030       5.68830473       4.07989642      -0.00794180      -0.01068080       0.00345216
C       -3.69277966       7.84874870       4.00060541      -0.00781610       0.00394384      -0.00604675
C       -4.93126131      10.00066202       3.91231816       0.00343236       0.00215523      -0.00454827
C        2.43216886       1.47167179       3.66617848      -0.00024456      -0.00069981       0.00217274
O        1.09213476       3.52019417       3.88363080       0.00160739       0.00290387      -0.00085923
C       -0.03809142       5.65017747       4.04448664       0.00361702      -0.00537994       0.00111817
C       -1.24208992       7.83345536       4.01698516       0.00019878       0.00109328      -0.00085071
C       -2.47762038       9.99504479       3.88313774       0.00009848       0.00133786       0.00627771
C        4.92061475       1.42079295       3.54565445      -0.00734422      -0.01135538       0.00473055
P        3.73202038       3.54810182       2.27557864       0.00347660       0.00041967      -0.00298869
C        1.22964252       7.77625462       3.80406943       0.00314965      -0.00149998       0.00368127
C       -0.00939412       9.95253595       3.81041221       0.01108670      -0.00298130      -0.00421204
C        7.38620785       1.40114109       3.72439661      -0.00251248       0.00119351       0.00245089
C        6.20802627       3.56554729       3.48148147       0.01281427       0.00086396      -0.00721496
C        5.06217302       5.76683221       3.33075357      -0.00435601       0.00238506       0.00434695
C        3.74435771       7.79654669       3.58789621      -0.00288862       0.01353485      -0.00063967
C        2.46159561       9.91231227       3.76281223      -0.00780540      -0.00836981      -0.00307692
C        9.84497284       1.39215698       3.89504573      -0.00165840       0.01136628      -0.00052583
C        8.62115147       3.54651812       3.90741952       0.00412866       0.00122224      -0.00632890
C        7.43315415       5.70380087       3.83284114       0.00517743       0.00190520      -0.00649134
C        6.20050269       7.86027515       3.79785159       0.00099839      -0.00562769      -0.00085910
C        4.93106657       9.95692270       3.83114354      -0.00149777      -0.00866361      -0.00083736
Rh       2.50685229       5.15964007       3.15469119      -0.00012410      -0.00774546      -0.00320005
