49
Lattice="12.336457 0.0 0.0 -6.168228499999997 10.683685154694365 0.0 0.0 0.0 15.0" Properties=species:S:1:pos:R:3:forces:R:3 energy=-436.9942229969363 free_energy=-436.9942229969363 stress="-0.00831273625082269 -0.0018347832395453577 2.141836874950687e-06 -0.0018347832395453577 0.002838412797152673 3.0898504526963264e-06 2.141836874950687e-06 3.0898504526963264e-06 -9.80227153550386e-07" pbc="T T T"
C       -0.00047459       0.00738045       3.74860517       0.00276359      -0.00221298      -0.00364019
C       -1.26600053       2.10709241       3.69527957      -0.00183255       0.00294613      -0.01099551
C       -2.49179443       4.26581945       3.69423546      -0.00721307      -0.00169670       0.01021967
C       -3.69720867       6.42024621       3.73820129      -0.00172110       0.00521485      -0.00348968
C       -4.92229006       8.57357400       3.77247979      -0.00457603      -0.00262737      -0.00048525
C        2.45956109       0.05991142       3.71483286       0.00771963       0.00233142       0.00386942
C        1.18699417       2.14149162       3.63325022      -0.00138417       0.00597173       0.00248525
C       -0.10243739       4.24787195       3.54236843       0.00282342      -0.00000428      -0.00822481
C       -1.27089312       6.41405209       3.62856362       0.00066701       0.00002469      -0.00172167
C       -2.47358397       8.57504958       3.70555942      -0.00765341       0.00823486       0.00344293
C        4.93489517       0.01206465       3.74783285       0.00236672      -0.00321756       0.00014966
C        3.70247473       2.19763663       3.76194690      -0.00910793      -0.00144073       0.00541479
C        1.13394108       6.38621363       3.64764594      -0.00053120       0.01020357      -0.00668604
C       -0.00567555       8.53120725       3.72039486       0.00021677       0.00149695      -0.00563904
C        7.41019782      -0.03979508       3.79386180      -0.00142355       0.00074743      -0.00603377
C        6.18033532       2.12581970       3.82022502       0.00512113      -0.01017634       0.00095818
C        4.98422690       4.30673607       3.91322062       0.00254326      -0.00000542       0.00324617
O        3.85143389       6.43974479       4.10298254       0.00118194       0.00503757       0.00508060
C        2.49532102       8.46547801       3.81394407       0.00613374      -0.00028312      -0.00959554
C        9.86101898      -0.04230396       3.79409459      -0.01004930      -0.00471993      -0.00395533
C        8.62771790       2.11278521       3.78368475       0.00866082      -0.00055515      -0.01270375
C        7.41310890       4.27356813       3.81513906       0.00215086       0.00209788       0.00691515
C        6.21553321       6.43922571       3.86706263      -0.00161862      -0.00223046       0.00398385
C        4.95477487       8.53962327       3.84239670       0.00138135      -0.00606836      -0.00669083
C       -0.02057010       1.42771717       3.69076613      -0.00020016       0.00460598       0.00541928
C       -1.28140599       3.52733830       3.64381730      -0.00290865       0.00451382      -0.00508504
C       -2.47955785       5.69318139       3.67788254      -0.00221731      -0.00124539       0.00407533
C       -3.69376324       7.85392402       3.73542324      -0.00549352       0.00479685      -0.00454328
C       -4.92667227      10.00965725       3.74222746       0.00931653      -0.00153920      -0.00158745
C        2.43856715       1.50103303       3.69466213      -0.00808100      -0.00028685       0.00763992
O        1.07896787       3.52263288       3.38149491       0.01560189       0.00346601       0.00825741
C       -0.05108994       5.65969442       3.57458471       0.00732832      -0.00000667      -0.00177332
C       -1.24631710       7.84098861       3.67848736      -0.00559554       0.00635631       0.00216402
C       -2.47618285      10.00617518       3.71954995       0.00320037       0.00320870       0.01057771
C        4.93999663       1.43533463       3.78037401      -0.00459555      -0.00640475       0.00411687
C        3.79955522       3.58025058       3.83869480      -0.00007028      -0.00071148       0.01168769
C        1.23186864       7.76844473       3.73456613       0.00453908       0.00461798      -0.00397148
C       -0.00080465       9.95441018       3.75969987       0.00090595      -0.00188755      -0.00504826
C        7.40747665       1.39136410       3.80624322       0.01234293      -0.00249545      -0.00674192
C        6.20431756       3.55288497       3.86214376       0.00477627      -0.00381026       0.01124614
C        5.03579718       5.71783119       3.95414713      -0.00237198       0.00237507      -0.00096506
C        3.74653438       7.82482816       3.87765540       0.00465123       0.00063429       0.00150577
C        2.47459669       9.90684470       3.80609758      -0.00911217      -0.00553745      -0.00628792
C        9.85676956       1.39372013       3.76162766       0.00065165      -0.00113116      -0.01321489
C        8.63115108       3.54641811       3.76477492      -0.00225534      -0.00314571       0.00624634
C        7.42560644       5.70088674       3.80420818      -0.00034188       0.00297773       0.00956266
C        6.20032470       7.86014287       3.83553679      -0.00175112      -0.00673111       0.00043616
C        4.93508082       9.96040266       3.79405365      -0.00721098      -0.00564421      -0.00271116
Rh       2.46596998       4.98194992       3.73819259      -0.00772801      -0.00604417       0.00309020
