50
Lattice="12.336457 0.0 0.0 -6.168228499999997 10.683685154694365 0.0 0.0 0.0 15.0" Properties=species:S:1:pos:R:3:forces:R:3 energy=-440.7357216534748 free_energy=-440.7357216534748 stress="-0.0033390148494433928 0.001435763793107294 1.1505734059823622e-06 0.001435763793107294 0.0032756090613004587 -7.975228118867584e-06 1.1505734059823622e-06 -7.975228118867584e-06 3.513431518888487e-05" pbc="T T T"
C       -0.02375364      -0.00679224       3.73283144      -0.00092511       0.00336076       0.00186220
C       -1.26693660       2.09542097       3.51141175       0.00042287       0.00213577       0.00270214
C       -2.50336475       4.24475811       3.42580368       0.00407970      -0.00114536       0.00141531
C       -3.73979072       6.38666292       3.58386469      -0.00138609      -0.00135744       0.00003988
C       -4.97408886       8.52868560       3.78245232      -0.00177978       0.00123461      -0.00116994
C        2.43541156       0.03311128       3.72016135       0.00237703      -0.00554013       0.00015768
C        1.18486584       2.14906329       3.69722297       0.00679122       0.01608260       0.00329505
C       -0.10046428       4.24020296       3.47417807      -0.00435599      -0.00591837      -0.00204207
C       -1.28971874       6.38893572       3.51960072      -0.00429824       0.00266049      -0.00351626
C       -2.51687558       8.53775184       3.63275004       0.00121594       0.00122039      -0.00161426
C        4.90100341      -0.02625507       3.65211039       0.00065306       0.00041634      -0.00227352
C        3.72077042       2.11482964       3.80157079      -0.00778853       0.01344828       0.00354415
C        1.12130187       6.35237212       3.92490035       0.01530917       0.01805664       0.01577502
C       -0.04179146       8.50576514       3.70733987      -0.00530109       0.00525597      -0.00556263
C        7.37695547      -0.05302695       3.63796036      -0.00044247      -0.00370953      -0.00185210
C        6.16073251       2.08128551       3.61246923      -0.00023982      -0.00063021      -0.00019050
C        5.02672083       4.17908451       4.02230360      -0.00820532      -0.00718183      -0.00180547
P        3.63672689       6.34679733       5.14716847      -0.02779765      -0.02503840      -0.01449264
C        2.42997760       8.50841291       3.96719084       0.00087170      -0.01172581       0.00239894
C        9.84055518      -0.04228259       3.69088909      -0.00038835      -0.00151806      -0.00101105
C        8.61308323       2.09134521       3.50076893       0.00025326       0.00113879      -0.00151386
C        7.39219405       4.23694304       3.58451222      -0.00416673      -0.00094478       0.00061016
C        6.16182807       6.35288437       3.96053758       0.00645365       0.00573416      -0.00151514
C        4.90949927       8.53330168       4.01069652       0.00082902       0.00073800      -0.00075078
C       -0.01728408       1.42604277       3.63853852      -0.00690342      -0.00355864       0.00328878
C       -1.28202620       3.51323160       3.41832715       0.00040287       0.00160313      -0.00012610
C       -2.50925738       5.66999431       3.47231017       0.00039475      -0.00150560       0.00178695
C       -3.74303297       7.81716675       3.66060057       0.00012733       0.00079651      -0.00185923
C       -4.95962702       9.97530381       3.75427285       0.00088994       0.00007977       0.00003720
C        2.44652327       1.48700217       3.74761108      -0.00051986       0.00616784       0.00108476
O        1.11304212       3.55722767       3.58046260      -0.02373069      -0.02771120       0.00633758
C       -0.07476752       5.64579394       3.58944712      -0.01596351      -0.02151765      -0.00022282
C       -1.28529150       7.81558148       3.60959528      -0.00042205      -0.00065236      -0.00129748
C       -2.51198249       9.97348098       3.67474011      -0.00001360      -0.00031347      -0.00050357
C        4.91011581       1.40133644       3.67444398       0.00034448      -0.00387046      -0.00078418
O        3.83563302       3.46268039       4.12310669       0.03178279      -0.03111889      -0.00400613
C        1.18379897       7.77093697       3.88382702       0.00601862       0.01015713       0.00094099
C       -0.03307380       9.92996309       3.66238789      -0.00013300      -0.00217551      -0.00310471
C        7.37954895       1.37252101       3.55770809       0.00164587      -0.00083252      -0.00228462
C        6.18502450       3.49251982       3.68270852       0.00637482      -0.00321327      -0.00229484
C        5.03247102       5.55138340       4.25933105       0.00505200       0.00119527       0.00325867
C        3.66094698       7.89164531       4.25502029      -0.00477054       0.01717448      -0.00116969
C        2.43732092       9.92668335       3.74025350       0.00165566       0.00787567      -0.00281588
C        9.84694970       1.38094713       3.54362491      -0.00092730       0.00119465      -0.00040506
C        8.61278618       3.52247350       3.46960731      -0.00040794       0.00095528      -0.00067053
C        7.38035807       5.65863323       3.67966737      -0.00097703      -0.00153905       0.00018421
C        6.14515605       7.80344477       3.94568771      -0.00148855      -0.00225039       0.00026605
C        4.91114926       9.95160488       3.79803166      -0.00156258       0.00060295      -0.00109106
Rh       2.22696094       4.97565647       4.43862401       0.03417072       0.04083867       0.04091115
O        3.80700285       6.44907859       6.63038762      -0.00322124       0.00484481      -0.02795074
