51
Lattice="12.336457 0.0 0.0 -6.168228499999997 10.683685154694365 0.0 0.0 0.0 15.0" Properties=species:S:1:pos:R:3:initial_magmoms:R:1:forces:R:3 energy=-437.6117220902744 free_energy=-437.6117220902744 stress="-0.00659304432384906 -0.00015333818918734525 -2.4989013702594927e-05 -0.00015333818918734525 -0.0019555962454376073 1.0961009542052155e-05 -2.4989013702594927e-05 1.0961009542052155e-05 -4.177697568521488e-06" pbc="T T T"
C        0.01640332       0.04823724       3.87397810       0.00000000      -0.00051262       0.00294476      -0.00495690
C       -1.22656449       2.17545673       3.86472654       0.00000000      -0.00624806      -0.00275346       0.00291529
C       -2.47054538       4.31749550       4.12912426       0.00000000       0.00664174       0.00542697      -0.00445433
C       -3.69150113       6.46565169       4.13910304       0.00000000      -0.00809535      -0.00023017      -0.00235440
C       -4.92499913       8.59954904       3.96677778       0.00000000       0.00049556      -0.00564157       0.00495108
C        2.48177187       0.05529915       3.85605833       0.00000000      -0.00973547      -0.00084625       0.00325489
C        1.22731016       2.12099083       3.41382032       0.00000000       0.00094264       0.00467985      -0.00020504
C       -0.13470336       4.36496236       3.61377956       0.00000000       0.00103307       0.00479223       0.01199029
C       -1.26052976       6.47635974       4.11221220       0.00000000       0.00523836      -0.01216196       0.01101998
C       -2.46501537       8.61094255       4.11423727       0.00000000       0.00755258       0.00113727      -0.00798665
C        4.95140816       0.04060820       3.90654136       0.00000000       0.00245374      -0.00474211       0.00062287
C        3.73848189       2.09458494       3.32380935       0.00000000       0.00398023      -0.00412309      -0.00392635
C        1.17881707       6.43394982       3.76403282       0.00000000       0.01202465       0.00107251       0.00816970
C        0.01156837       8.57840130       4.00544036       0.00000000      -0.00303553      -0.01028943      -0.01168299
C        7.41991912       0.02325771       3.96217619       0.00000000       0.00642851       0.00352950       0.00252371
C        6.20460381       2.16210298       3.72949923       0.00000000      -0.00331799      -0.00136699       0.00097039
C        5.20848041       4.33878547       3.08723064       0.00000000      -0.00876653       0.00741174       0.00469350
S        3.77020428       6.52938087       2.42207117       0.00000000       0.00707479      -0.00730687       0.00118762
C        2.48987666       8.56529579       3.74710795       0.00000000      -0.00462641       0.00013469       0.00159300
C        9.88350513       0.02854305       3.93428895       0.00000000       0.00371523      -0.00054060      -0.00468316
C        8.65157938       2.16828481       4.03158726       0.00000000      -0.00122449       0.00737068      -0.00968417
C        7.44371448       4.31506821       3.94562703       0.00000000       0.00190922      -0.00558930      -0.00325557
C        6.25898936       6.47399390       3.63494337       0.00000000      -0.00102417       0.00591127      -0.00528491
C        4.96335431       8.59561943       3.69649013       0.00000000      -0.00241661       0.00548474       0.00063350
C        0.01326609       1.47476113       3.74025213       0.00000000      -0.00230693       0.00511493       0.00185332
C       -1.25976682       3.59795695       3.91908076       0.00000000       0.00312390       0.00097735       0.00187921
C       -2.47126715       5.74704967       4.17760729       0.00000000      -0.00456746      -0.00016126       0.00487732
C       -3.69257580       7.89262905       4.10180605       0.00000000       0.00548665       0.00156904      -0.00416961
C       -4.91870414      10.02806052       3.92254927       0.00000000      -0.00858376      -0.00578501       0.00535387
C        2.47967235       1.46108766       3.52846715       0.00000000       0.00189508      -0.00046805      -0.00758620
S        1.05461763       3.64710174       2.58246601       0.00000000      -0.00627487      -0.00427365       0.00703848
C       -0.05738242       5.75083032       3.85248157       0.00000000       0.00890677       0.00239589       0.00183001
C       -1.23271891       7.89680435       4.11678162       0.00000000       0.00227414      -0.01335357       0.01077912
C       -2.45617305      10.03029719       3.98045237       0.00000000      -0.00360976       0.00311407      -0.00026942
C        4.96108378       1.45601255       3.65800894       0.00000000       0.00122509      -0.00703369       0.00092308
S        3.83021406       3.55043828       2.36886962       0.00000000      -0.00481872       0.00340258      -0.01025003
C        1.24767143       7.83547219       3.83650870       0.00000000      -0.00279955      -0.00442926       0.00043548
C        0.01634813      10.00121803       3.97645147       0.00000000       0.00519923      -0.00552649      -0.00081009
C        7.41576232       1.45352305       3.94193369       0.00000000      -0.00065349       0.00711557       0.00237525
C        6.26726631       3.58222637       3.61638201       0.00000000      -0.00128449      -0.00107276      -0.01280359
C        5.19299792       5.72842616       3.10244665       0.00000000      -0.00606807       0.00798973       0.00722958
C        3.72204007       7.95018916       3.43288843       0.00000000      -0.00633601       0.00660244      -0.00708666
C        2.48523701       9.99244098       3.92075507       0.00000000       0.00488667       0.00235717      -0.00069894
C        9.88998828       1.46046665       3.98492511       0.00000000      -0.00780337      -0.00356313      -0.00033529
C        8.65054652       3.59294396       4.09808418       0.00000000       0.00847910       0.00493308      -0.00274748
C        7.44177521       5.74341913       3.95372815       0.00000000      -0.00676436      -0.00407125      -0.00212414
C        6.20054741       7.89154397       3.75629653       0.00000000      -0.00035391       0.00194633      -0.00185626
C        4.95031714      10.01325135       3.87498411       0.00000000       0.00483564       0.00253476       0.00186982
Rh       2.55505389       5.11452233       3.63159644       0.00000000      -0.00799572       0.00974351       0.00476566
O        1.32197090       3.55418594       5.92509414       1.00000000       0.00484837       0.00003526       0.00743903
O        2.28507056       4.33244513       5.80854111       1.00000000       0.00857275      -0.00439798      -0.00396288
