50
Lattice="12.336457 0.0 0.0 -6.168228499999997 10.683685154694365 0.0 0.0 0.0 15.0" Properties=species:S:1:pos:R:3:forces:R:3 energy=-439.1512337655229 free_energy=-439.1512337655229 stress="-0.00976856407685093 0.004205154607038746 -5.456158592045212e-07 0.004205154607038746 -0.003201897966259679 2.228134667514348e-06 -5.456158592045212e-07 2.228134667514348e-06 8.796727754692677e-07" pbc="T T T"
C        0.00028598       0.00232104       3.74256496       0.00098092      -0.00723074      -0.00439537
C       -1.22520210       2.13891412       3.67969137       0.00336656       0.00572335       0.00308670
C       -2.47262854       4.28134446       3.87160417      -0.00278946      -0.00161624      -0.00694580
C       -3.72589311       6.41725916       3.95550716      -0.00519914       0.01303264      -0.00136117
C       -4.95757192       8.55056208       3.84321742      -0.00095433      -0.00376539      -0.00242972
C        2.46440583       0.02214191       3.87980740      -0.00862526       0.01121341      -0.00874953
C        1.26241307       2.09740529       3.45828690      -0.00389537      -0.00045223      -0.00067067
C       -0.12431237       4.36319679       3.36685156       0.00775923       0.00700870       0.00548339
C       -1.31084238       6.46120812       3.81845044      -0.00397812      -0.00231601      -0.00326619
C       -2.50038014       8.57134555       3.98972432      -0.00078316       0.00403568       0.00115988
C        4.93585046       0.00233215       3.98076379      -0.00610295      -0.00697037       0.00778777
C        3.75186599       2.15802751       3.76646325       0.00853617       0.00499757       0.00397294
N        1.06947558       6.44450001       3.62151451       0.00603225      -0.00725368       0.00273498
C       -0.02841626       8.54887797       3.90634265      -0.00270073       0.00601716       0.01014357
C        7.41601768      -0.02680800       3.97335551       0.01379232      -0.00157536      -0.00056338
C        6.21059719       2.09954629       3.94503433       0.00022363       0.00010283       0.00420569
C        5.04980112       4.18939022       3.56895311      -0.00173550      -0.00301911      -0.00391502
P        3.57548762       6.26176057       2.68152180       0.00203153      -0.00099943       0.00334377
C        2.45054706       8.52327793       3.71553454      -0.00423275      -0.01418741      -0.00512904
C        9.87537406      -0.01651061       3.82675441       0.00094994       0.00393303      -0.00709743
C        8.66415599       2.11974572       3.94690808      -0.00156030      -0.01018356      -0.00195049
C        7.43737542       4.25757700       3.92299094       0.01101647      -0.00217821       0.00226328
C        6.19044250       6.39057423       3.65626538      -0.00521660      -0.00732838      -0.00422219
C        4.92415975       8.53497228       3.62224993       0.00112229       0.00740089       0.00365946
C        0.01124191       1.43085380       3.61984832      -0.00106756      -0.00715625       0.00348833
C       -1.25537073       3.57545335       3.64482762       0.00428851       0.00838925      -0.00460363
C       -2.50166500       5.70840582       3.91591682      -0.01085608       0.00209132       0.00105129
C       -3.72858712       7.84626990       3.94826157       0.00174976       0.00942762      -0.00250135
C       -4.94012502       9.98263194       3.82970637      -0.00077296      -0.00444143      -0.00630191
C        2.48428068       1.44305045       3.72220248       0.00395405       0.01403359      -0.00443756
P        1.36232490       3.70082680       2.67401993      -0.00219861       0.00166813       0.00317441
C       -0.11626938       5.77730140       3.54609650       0.00244841       0.00280022      -0.00524144
C       -1.27539270       7.86646254       3.93599165      -0.00095091       0.00058404       0.00376024
C       -2.48071957       9.99279464       3.97584182      -0.01397945       0.00273694      -0.00077085
C        4.96352297       1.41741778       3.91558348       0.00255736      -0.00603111       0.01042496
N        3.86444939       3.52248732       3.64543420      -0.00457646       0.00590258       0.00238374
C        1.18263750       7.80869201       3.75256354      -0.00853938      -0.00590814       0.00319785
C       -0.00056087       9.96370831       3.97800344       0.00635786       0.00745810       0.00776911
C        7.43597005       1.39455341       3.99134583       0.00001770      -0.00301294       0.00164460
C        6.24572036       3.50505751       3.83350303       0.00448871       0.00256738      -0.00171862
C        5.05816024       5.60267420       3.38493971      -0.00799041      -0.00693722       0.00599628
C        3.67340169       7.86829632       3.45842819       0.00398438       0.00085147      -0.00140332
C        2.47071566       9.94398878       3.87521512       0.00823664      -0.01096227      -0.00918349
C        9.89294989       1.41558343       3.83925265       0.00160624       0.00337122      -0.00260183
C        8.66185788       3.54874571       3.95486812       0.00490996      -0.01391213      -0.00098404
C        7.40834223       5.68460669       3.87864747       0.00174365       0.00173232      -0.00600050
C        6.16052120       7.82706690       3.68568451      -0.00335409      -0.00473598       0.00367670
C        4.93503334       9.96374459       3.74212836      -0.00080200       0.00682266      -0.00463840
Rh       2.46215451       4.98248359       4.19271782      -0.00000365       0.00005286       0.00519272
O        2.43480184       4.99418814       5.98185631       0.00071065      -0.00178136       0.00148125
