53
Lattice="12.336457 0.0 0.0 -6.168228499999997 10.683685154694365 0.0 0.0 0.0 15.0" Properties=species:S:1:pos:R:3:forces:R:3 energy=-458.9571050137055 free_energy=-458.9571050137055 stress="0.00021836155082712282 0.005469714130967866 8.30201146968464e-06 0.005469714130967866 -0.0016308152554120776 1.3383748468148146e-05 8.30201146968464e-06 1.3383748468148146e-05 -1.9359344506086702e-05" pbc="T T T"
C        0.08446482      -0.06805874       3.82061612       0.00597802      -0.00368284      -0.00097270
C       -1.11162062       2.09478327       3.84393015      -0.00377394       0.00395271       0.00135611
C       -2.33537907       4.21528949       3.89566649      -0.00446914      -0.00053382      -0.01140311
C       -3.61962554       6.33285049       3.90279151       0.00405991       0.00123060       0.00508231
C       -4.88204262       8.45977172       3.86033005       0.00224077      -0.00344633      -0.00533734
C        2.53920602      -0.08496322       3.86943408       0.00355296       0.00360343      -0.01565390
C        1.34562352       2.08487671       3.91484683      -0.00188183       0.00462447      -0.00925523
C        0.16052726       4.27601138       3.85616004       0.00488267       0.00051141       0.00117000
C       -1.14854590       6.35852261       3.74445152      -0.00332860      -0.01098525       0.00486661
C       -2.40415609       8.47027558       3.77344942      -0.00279203       0.00190323      -0.00251707
C        5.01366197      -0.07588521       3.78538838      -0.00372633       0.00029259       0.00111828
C        3.79802078       2.01456232       3.97436388      -0.01131353       0.00384431       0.01469071
N        2.64107617       4.10519579       4.07902948      -0.00658811      -0.01565132       0.00075369
O        1.20934102       6.45714431       3.49953159      -0.01139091      -0.00417836      -0.00820593
C        0.03850708       8.50237768       3.51882216      -0.00553724      -0.00314059       0.00405070
C        7.48139750      -0.06210469       3.66522022      -0.00421222      -0.00278743      -0.00473358
C        6.27812079       2.04467303       3.93410000       0.00491579      -0.00831202      -0.00042690
C        5.05959357       4.13419585       4.13900289       0.00297034       0.00378355      -0.00243450
S        3.80388632       6.44088469       2.13342673       0.00884503       0.01318813      -0.00583546
C        2.48105102       8.51843857       3.33934729      -0.00152171       0.01014613       0.00778517
C        9.95913385      -0.05547128       3.67854859      -0.00573307      -0.00222379       0.00490079
C        8.74970366       2.06843485       3.85262189       0.00490127       0.00838116      -0.00885109
C        7.52542009       4.18809680       4.01457397       0.00556642       0.00623084      -0.00506115
C        6.24390347       6.31629087       4.00538607      -0.00102866      -0.00350855       0.01475208
C        5.01118119       8.46915275       3.64105881       0.01332123      -0.00528196      -0.00345991
C        0.10746171       1.36930831       3.85549235      -0.00008143       0.00348013       0.00552978
C       -1.07819595       3.53263873       3.86898874      -0.00019341       0.00650758       0.00727267
C       -2.37144362       5.63304973       3.86224239      -0.00112352      -0.00731512      -0.00122793
C       -3.64290799       7.75544899       3.85520757      -0.00017202       0.00156221      -0.00148590
C       -4.86869463       9.88719295       3.85152385       0.01138744      -0.00468883      -0.01282545
C        2.55532171       1.33724865       3.92309791      -0.00532676       0.00050513       0.00010040
C        1.40444117       3.52238773       3.94540113      -0.00245482      -0.00039973       0.01016679
C        0.07034928       5.68178890       3.72076365       0.00066123      -0.00309743       0.00023825
C       -1.18029323       7.77733344       3.66577044      -0.00548111      -0.00772223       0.00465576
C       -2.39648653       9.89595000       3.80455661       0.00034342       0.00185503       0.01057725
C        5.03574392       1.33454934       3.90465138      -0.01184753       0.00284239       0.00375583
C        3.80464245       3.42497900       4.07673665      -0.00189371       0.00259762      -0.00381796
C        1.24331013       7.84486968       3.34264061      -0.00390943       0.00883453      -0.00822015
C        0.07378656       9.91856469       3.64390328      -0.00590474      -0.00605170       0.00356422
C        7.50774975       1.35093772       3.82085026       0.01160001      -0.00234909       0.00997876
C        6.29933278       3.45577096       4.05218912       0.00965090      -0.00585955      -0.00504681
C        5.06600026       5.54344183       4.17304390      -0.00873560       0.00025509      -0.00879679
C        3.76634683       7.79346565       3.27214100       0.01101029       0.00811392      -0.00457513
C        2.54024685       9.91492679       3.55236269      -0.00514740       0.00399378       0.00202467
C        9.98315542       1.36785990       3.79038837      -0.00416017       0.00069751       0.00050572
C        8.76333998       3.48899161       3.93479912      -0.00303538       0.00669727      -0.01292845
C        7.49555480       5.61115190       3.99763790       0.00718733       0.00594702       0.00969454
C        6.20564784       7.74087393       3.84391653       0.00411984      -0.01189435      -0.00398443
C        5.01679276       9.89541869       3.71417153       0.00111838      -0.00117914      -0.00399054
Rh       3.27768142       6.11038069       4.34989308       0.01127871      -0.01239263       0.01632046
O        2.41952448       6.10230074       6.09726196       0.00869844       0.01431781      -0.00845624
O        1.42303907       7.16425091       6.22302317      -0.00980871       0.01190522       0.01073073
H        1.43857578       7.23862555       7.19927545      -0.00171734      -0.01512277       0.00386138
