50
Lattice="12.336457 0.0 0.0 -6.168228499999997 10.683685154694365 0.0 0.0 0.0 15.0" Properties=species:S:1:pos:R:3:forces:R:3 energy=-431.80652735605923 free_energy=-431.80652735605923 stress="-0.005645814385953258 0.0010909567614807365 -1.0062755611678842e-05 0.0010909567614807365 -0.00033779252176072366 -5.001860568930161e-06 -1.0062755611678842e-05 -5.001860568930161e-06 -3.113217468257038e-06" pbc="T T T"
C       -0.02465013       0.00286720       3.93669878       0.00139301       0.00084613       0.01343760
C       -1.26191426       2.13958091       3.97989336      -0.00412474       0.00028363       0.00358361
C       -2.51213355       4.28257636       4.24889331      -0.00058101      -0.00363373      -0.00045620
C       -3.73644394       6.42736182       4.20339891      -0.00159798       0.00496258      -0.00035239
C       -4.96752537       8.55803273       4.00278499      -0.00374988       0.00549432       0.01017823
C        2.44346309       0.01696375       3.87021746       0.00301414       0.00526885      -0.00277983
C        1.18710844       2.07122522       3.46618715      -0.00180490      -0.00032933       0.00735658
C       -0.17514172       4.35615214       3.74915588       0.00954297      -0.00493864       0.01602583
C       -1.30668003       6.45301654       4.22598953       0.00037141      -0.00551661      -0.00039725
C       -2.50678271       8.57779508       4.15685354      -0.00022245       0.00109516       0.00592871
C        4.91247764       0.00742193       3.89285686      -0.00053581      -0.00284577       0.00725344
C        3.70406839       2.04808646       3.25923020       0.00210553       0.00150070       0.00951751
N        1.06285380       6.43152226       3.74329857       0.00177419       0.00220510      -0.00218184
C       -0.03472856       8.54164996       4.03234060       0.00264005       0.00345237       0.00087420
C        7.38052030      -0.01726671       3.97818426       0.00469400      -0.00480545      -0.00020649
C        6.17446706       2.12413315       3.68997657       0.00143528      -0.00153485       0.00842684
C        5.22250554       4.30207415       2.94638785      -0.00283535       0.00617926       0.01218074
S        3.77218411       6.51745586       2.39012588      -0.00388678      -0.00644997      -0.00511804
C        2.43970128       8.51058740       3.77627852      -0.00315129      -0.00562245      -0.00394966
C        9.84178165      -0.01895316       3.99512063      -0.00925285       0.00473575      -0.00169284
C        8.61277836       2.12850589       4.07446096      -0.00586341       0.00201635       0.00102462
C        7.40931206       4.27265363       3.93712142       0.00666760      -0.00146445       0.00436998
C        6.23862137       6.43421227       3.60150827       0.00511936      -0.00391355       0.00762889
C        4.91837389       8.54737823       3.74542841      -0.00395628       0.00018907      -0.00162917
C       -0.02659420       1.43215957       3.82814815      -0.00128442      -0.00170742      -0.00032176
C       -1.29192712       3.56871362       4.06601558       0.00037893      -0.00140065      -0.00032628
C       -2.51477667       5.71150671       4.28917652      -0.00547848      -0.00168379      -0.00314716
C       -3.73571362       7.85441394       4.15106463      -0.00289492       0.00628749      -0.00824291
C       -4.95856867       9.98888611       3.96013000       0.00424028       0.00442842      -0.00350620
C        2.44832328       1.42096106       3.52996417       0.00056239       0.00192434      -0.00581445
S        1.01561688       3.63234672       2.72436433      -0.01012383      -0.00254904       0.00145064
C       -0.10820508       5.75548234       3.93780918       0.00666415      -0.00188792       0.00198751
C       -1.27766136       7.86643175       4.17801974       0.00163464      -0.00137916      -0.00275080
C       -2.49494763       9.99619440       3.98824310      -0.00137913      -0.00029079       0.00186739
C        4.92634233       1.41823987       3.61207099       0.00071023      -0.00547424       0.00258815
S        3.80227887       3.51627162       2.28370628       0.00036395      -0.00570413      -0.00105011
C        1.17780742       7.78814647       3.85177779      -0.00289763       0.00122413      -0.01288102
C       -0.02406717       9.96627432       3.98188258       0.00325514       0.00156075      -0.00139597
C        7.37754334       1.41614197       3.94629296       0.00280187      -0.00493401      -0.01347409
C        6.25127108       3.54240722       3.53734362       0.00685711       0.00267344      -0.00671868
C        5.20856005       5.69383378       2.98951023       0.00118341       0.00525765       0.00920365
C        3.68108689       7.90073302       3.46161291      -0.00271561       0.00499883      -0.01518875
C        2.44076575       9.94022771       3.96098103      -0.00219404      -0.01061581      -0.01659389
C        9.85124438       1.41762399       4.06006064      -0.00896567       0.00640939       0.01359713
C        8.61058556       3.55441025       4.15195675       0.00325506      -0.00149676      -0.01057967
C        7.40564299       5.70315853       3.96514792       0.00948769      -0.00288498      -0.00752688
C        6.16134738       7.84720716       3.78260409       0.00284179       0.00001879      -0.01327207
C        4.90853361       9.96537454       3.94016833      -0.00568349       0.00553307      -0.00450389
Rh       2.60931585       4.99323362       3.54702973      -0.00411041       0.00436782      -0.00775062
O        3.02642225       4.72511440       5.29581075       0.00629619       0.00015007       0.01532767
