50
Lattice="12.336457 0.0 0.0 -6.168228499999997 10.683685154694365 0.0 0.0 0.0 15.0" Properties=species:S:1:pos:R:3:forces:R:3 energy=-439.63379331023077 free_energy=-439.63379331023077 stress="-0.004148115994967032 3.0716299576944375e-06 1.4533405356419613e-06 3.0716299576944375e-06 0.0014327269200900743 3.814775473765949e-06 1.4533405356419613e-06 3.814775473765949e-06 8.225266115895313e-06" pbc="T T T"
C        0.00332387       0.02826332       3.60971289       0.00016664       0.00056791      -0.00413709
C       -1.24271154       2.13430233       3.42684265      -0.00222336      -0.00071523      -0.00487274
C       -2.47633507       4.28277275       3.31463532       0.00441591       0.00032680       0.00426886
C       -3.70149284       6.43439682       3.40891196       0.00013511      -0.01022442      -0.00483920
C       -4.93230474       8.57841852       3.61920947      -0.00009955      -0.00321890       0.00049613
C        2.46674431       0.06954100       3.68633273       0.00029599       0.00112573      -0.00767932
C        1.20158563       2.19626822       3.81049777      -0.00483883      -0.00128419       0.00091813
C       -0.07536248       4.23042934       3.79551661       0.00010321       0.00251723      -0.00323401
C       -1.27094129       6.41630194       3.69888585       0.00488619       0.00544215      -0.00288026
C       -2.47082897       8.57830321       3.61965577       0.00186201      -0.00279189       0.00062344
C        4.93022215       0.02794706       3.61106515       0.00020409       0.00235098      -0.00658251
C        3.73230182       2.19603152       3.81061625       0.00359584      -0.00063001      -0.00036457
P        1.03734766       6.37584152       5.11823242       0.00247576      -0.01128772      -0.00435123
C       -0.01397049       8.57538859       3.88263117       0.00327895       0.00167969       0.00661378
C        7.40392242      -0.00088947       3.56378693      -0.00633417      -0.00211547       0.00459385
C        6.17627145       2.13398894       3.42536251       0.00188045       0.00102402      -0.00190844
C        5.00914922       4.23024720       3.79415588      -0.00147233       0.00357621      -0.00205964
P        3.89689638       6.37583888       5.11815545      -0.00284030      -0.01103355      -0.00470491
C        2.46679482       8.59254083       4.08228858       0.00050804       0.01647481      -0.00703489
C        9.86605402      -0.00078650       3.56340824       0.00663111      -0.00241482       0.00581330
C        8.63501236       2.13257456       3.30372731      -0.00012373      -0.00461875      -0.01228769
C        7.40981103       4.28273367       3.31310504      -0.00428200       0.00009739       0.00613874
C        6.20457126       6.41629193       3.69862400      -0.00480278       0.00554440      -0.00467353
C        4.94748506       8.57562109       3.88233807      -0.00260222       0.00070388       0.00557964
C       -0.00570633       1.45075750       3.58321775      -0.00628100       0.00032396       0.00753411
C       -1.26264111       3.54882402       3.42826126       0.00185568      -0.00094426      -0.00338484
C       -2.48003150       5.71152339       3.41115575       0.00698957      -0.00073510      -0.00059241
C       -3.70157091       7.86304264       3.53460687       0.00088593      -0.00983570       0.00423332
C       -4.92762191      10.01478458       3.64610515      -0.00089537       0.00002598       0.00479442
C        2.46688176       1.50120404       3.79389300      -0.00046992       0.00061457      -0.00072577
N        1.06530115       3.53474469       4.06750677      -0.00932829      -0.00444116       0.00251162
C       -0.13677493       5.63737966       4.01606054      -0.00019771       0.00165440       0.00287111
C       -1.24976874       7.85715806       3.74993534       0.00435260       0.00159057      -0.00185007
C       -2.47542056      10.01461000       3.64712650       0.00203641       0.00085794       0.00286733
C        4.93946579       1.45039262       3.58348076       0.00563637       0.00214074       0.00570260
N        3.86870278       3.53459611       4.06692837       0.00822145      -0.00414919       0.00305322
C        1.20586159       7.93283954       4.24380172       0.00531333       0.01080039       0.00603674
C       -0.00400444       9.98912143       3.65946221      -0.00419909      -0.00123466       0.00171873
C        7.40517019       1.41630164       3.38445222      -0.00186126      -0.00464938       0.00160374
C        6.19611569       3.54859951       3.42591346      -0.00242378       0.00039476      -0.00019034
C        5.07065793       5.63709115       4.01569182      -0.00087458       0.00308908       0.00135131
C        3.72780128       7.93301301       4.24388464      -0.00453066       0.01018266       0.00554792
C        2.46677217       9.97652639       3.70304588       0.00027876       0.01068921       0.00198891
C        9.86487887       1.41651278       3.38511355       0.00137360      -0.00544143       0.00046399
C        8.63499451       3.56307327       3.24990918       0.00014599       0.00058752      -0.00223163
C        7.41353217       5.71151546       3.41037594      -0.00676627      -0.00118083      -0.00022475
C        6.18321952       7.85724683       3.74985027      -0.00324402       0.00140673      -0.00393795
C        4.93755017       9.98930252       3.65838342       0.00437371      -0.00206260       0.00417012
Rh       2.46725431       4.65509540       5.11963060      -0.00106496       0.00050465      -0.00416483
O        2.46803761       4.39591151       6.90067910      -0.00014649      -0.00128510      -0.00258246
