49
Lattice="12.336457 0.0 0.0 -6.168228499999997 10.683685154694365 0.0 0.0 0.0 15.0" Properties=species:S:1:pos:R:3:forces:R:3 energy=-427.31408061876084 free_energy=-427.31408061876084 stress="-0.00453065971488185 0.0007338091654730758 1.1948982531719294e-05 0.0007338091654730758 -0.0004715738536066627 -5.814399974478979e-06 1.1948982531719294e-05 -5.814399974478979e-06 2.1024626137030653e-06" pbc="T T T"
C       -0.00512012      -0.00712286       3.97978385      -0.00298653       0.00035071      -0.00069109
C       -1.24746590       2.12328912       3.95423164      -0.00829291       0.00834643      -0.00441026
C       -2.48114358       4.26780470       4.23044222      -0.00393469       0.01073008       0.01131757
C       -3.70456914       6.41583826       4.26168937      -0.00313539      -0.01244371       0.00019988
C       -4.94293522       8.55121802       4.08743676       0.00685038       0.00084980      -0.00722768
C        2.46191762       0.00777890       3.88193230       0.00227558       0.00355198      -0.00195257
C        1.18971269       2.04933290       3.40708833      -0.00151477      -0.00957417       0.01324447
C       -0.15732999       4.32272608       3.60224992      -0.00206365      -0.00779625      -0.01050655
C       -1.27085412       6.43256602       4.14035331      -0.00617639       0.00905999      -0.00124211
C       -2.47879009       8.56199000       4.14855604      -0.00143290       0.00355197       0.00300864
C        4.92918245      -0.00694410       3.88433470      -0.00030972       0.00107515       0.00086869
C        3.71722172       2.04856024       3.28515925      -0.00338127       0.01155906       0.00567300
N        1.05897756       6.43203376       3.50785486       0.01176141       0.00151293       0.01070815
C       -0.01502789       8.52753900       3.93289676      -0.00148009       0.00577760      -0.00656888
C        7.39906776      -0.02994030       3.93790600      -0.00517417      -0.01082087       0.00163111
C        6.18097296       2.11599833       3.76459654       0.00631160       0.00132738      -0.00317533
C        5.17476667       4.30229806       3.18578309      -0.00090182       0.00535310      -0.01443195
S        3.97436142       6.58471983       2.30206961       0.01190244      -0.00462126       0.00608567
C        2.45984316       8.49920421       3.65806233       0.00504304      -0.00219779       0.01227199
C        9.85465317      -0.02928699       3.98577376      -0.00089258      -0.01272074       0.00352217
C        8.62836210       2.11726538       4.09814369       0.00035306      -0.00280454      -0.00709148
C        7.41935569       4.26230925       4.06507034       0.00879811       0.00032975       0.00473112
C        6.23673173       6.42126538       3.80280475      -0.00163501      -0.00134260      -0.00530804
C        4.93973424       8.54260396       3.80222642      -0.00044904      -0.00483949       0.00025028
C       -0.01304364       1.41369327       3.81992445      -0.00620292       0.00209577       0.00495634
C       -1.26914914       3.55231164       4.00136377      -0.00665312       0.00906569       0.00175798
C       -2.47818645       5.69742301       4.26856429      -0.00173479       0.00392730       0.00639142
C       -3.70753580       7.84320390       4.20197605       0.00157482      -0.00989523      -0.01639343
C       -4.93574922       9.98108247       4.00925391       0.00088983       0.00560768      -0.00812412
C        2.45834017       1.40770863       3.50742833       0.00153936       0.01046963       0.00119569
S        0.91893092       3.50211153       2.49023724       0.00174251       0.00065347      -0.00369306
C       -0.08755071       5.73148266       3.77463046      -0.01074350      -0.00351082      -0.00412034
C       -1.24899429       7.84643701       4.10664180       0.00050954       0.01024226       0.00212794
C       -2.47606711       9.98243350       3.98521041      -0.00204413       0.00295518       0.00642223
C        4.93776759       1.41030104       3.65071011       0.00259184       0.00038723       0.00714826
S        3.87034465       3.50823624       2.31578093      -0.00918868      -0.01236336       0.00176621
C        1.19208582       7.78222501       3.68896842       0.00127904       0.01303152       0.00107343
C       -0.00501586       9.95217297       3.93095227      -0.00422265      -0.00277430       0.00040718
C        7.39351330       1.40388448       3.96879158       0.00058960      -0.00727423      -0.00584647
C        6.23603980       3.53998947       3.71698527       0.00838285       0.00814789      -0.00330728
C        5.17935954       5.68945619       3.22430013      -0.00163631       0.00507520      -0.01382175
C        3.72002793       7.90048508       3.42340386       0.00295939       0.00261678       0.00636252
C        2.45763019       9.92949779       3.89607481      -0.00390174      -0.00805185       0.00614864
C        9.86524121       1.40605064       4.06076286      -0.00238920      -0.00803903      -0.01128155
C        8.63309726       3.54202262       4.19559869       0.00498457       0.00134878      -0.00029574
C        7.42173765       5.69124280       4.10508096      -0.00279434      -0.00622675       0.01068312
C        6.18068222       7.84099573       3.89634332       0.00388046      -0.00193135      -0.00093297
C        4.92521267       9.95907563       3.97640096       0.00166433      -0.00795421       0.00193556
Rh       2.38704975       5.15197865       2.83288887       0.00938855      -0.00181778      -0.00146661
