51
Lattice="12.336457 0.0 0.0 -6.168228499999997 10.683685154694365 0.0 0.0 0.0 15.0" Properties=species:S:1:pos:R:3:initial_magmoms:R:1:forces:R:3 energy=-441.6504017521627 free_energy=-441.6504017521627 stress="-0.0066473596634879645 0.006927439893609261 -3.9764750474685204e-05 0.006927439893609261 -0.0034380557337160664 1.3969735751986765e-05 -3.9764750474685204e-05 1.3969735751986765e-05 -6.642669320903571e-06" pbc="T T T"
C        0.03830563      -0.05106530       3.66148090       0.00000000       0.00209932       0.00332475       0.01394168
C       -1.15751288       2.10374292       3.51456540       0.00000000      -0.00260334      -0.00489812      -0.01375236
C       -2.41755234       4.23912740       3.40972031       0.00000000       0.00283018      -0.00315109      -0.00303526
C       -3.67909816       6.36808933       3.48596431       0.00000000      -0.00076952       0.00236524      -0.00175365
C       -4.92516012       8.48986947       3.60576757       0.00000000       0.00240028      -0.00013042       0.00224994
C        2.49971899      -0.07681980       3.84202872       0.00000000       0.00757837      -0.00551572       0.00074936
C        1.32772034       2.04961702       3.82383731       0.00000000       0.00484526       0.00564487       0.00424486
C       -0.00384451       4.33613052       3.31207617       0.00000000      -0.00326447       0.00888323       0.01803329
C       -1.26554704       6.43268432       3.27524025       0.00000000      -0.01009686       0.00396238       0.00042966
C       -2.46517515       8.52468256       3.51963822       0.00000000      -0.00588457       0.00354593      -0.00885313
C        4.97587519      -0.04795195       3.82018187       0.00000000       0.00010827       0.00046519       0.00110003
C        3.76978645       1.96622743       4.40033342       0.00000000       0.00205369       0.00280230       0.00155730
N        1.02721101       6.46219821       3.85687131       0.00000000       0.00550041       0.00143205       0.01096104
C       -0.00865113       8.53466912       3.49039858       0.00000000      -0.00880051       0.00199118       0.00812181
C        7.45103079      -0.04963754       3.69670767       0.00000000      -0.00510779      -0.00143674      -0.00291605
C        6.27327164       2.05496200       4.08012318       0.00000000       0.00331544      -0.00372767      -0.00379547
C        5.20707716       4.23321133       4.52591987       0.00000000      -0.00452431      -0.00569431      -0.00405505
P        3.51248529       5.99635920       3.55283330       0.00000000      -0.00352793       0.01092219      -0.00813473
C        2.47215714       8.49355697       3.62070788       0.00000000      -0.00068506      -0.01018540      -0.00729966
C        9.91996900      -0.05215567       3.60275535       0.00000000      -0.01852693       0.00461995       0.00320762
C        8.71115067       2.08393417       3.65800951       0.00000000      -0.00213480       0.00329622       0.01192013
C        7.50379581       4.21101797       3.81435299       0.00000000       0.00498770      -0.01278078      -0.00496509
C        6.24446424       6.34617969       3.78114732       0.00000000       0.01117438      -0.00926901       0.01031083
C        4.94430320       8.46809100       3.61800609       0.00000000       0.00185562       0.00751759       0.01066777
C        0.07082326       1.38981925       3.65609677       0.00000000       0.00410394       0.00179409      -0.01626548
C       -1.16852934       3.54166812       3.38032486       0.00000000       0.00266691      -0.00262691       0.00606174
C       -2.45438496       5.66696765       3.34888596       0.00000000      -0.00642045      -0.00043417       0.00666225
C       -3.69166194       7.79334954       3.51891896       0.00000000      -0.00035210       0.00219743      -0.00099837
C       -4.90881825       9.91299419       3.69535853       0.00000000       0.00593558      -0.00106424      -0.00536324
C        2.52686346       1.31952169       4.06346372       0.00000000       0.00382516      -0.00262676      -0.00024381
P        1.65960733       3.76839932       3.49032955       0.00000000       0.00354899       0.00652375       0.01430664
C       -0.03781098       5.76498365       3.38396487       0.00000000      -0.00255296       0.01061847       0.00170059
C       -1.24335964       7.83746354       3.39382107       0.00000000      -0.01041328       0.00290703       0.00115615
C       -2.43568225       9.92671260       3.73182575       0.00000000       0.00554664      -0.00132154      -0.00401655
C        5.01147853       1.34384739       4.12943534       0.00000000       0.00080188       0.00163499      -0.00891261
P        3.78323270       3.51397870       5.32516433       0.00000000       0.00866650       0.01122742       0.00197634
C        1.19036837       7.78829815       3.61579721       0.00000000      -0.00316575       0.00165446       0.00542158
C        0.03097977       9.94101154       3.65565594       0.00000000      -0.00471776       0.00398569      -0.00406505
C        7.47628594       1.36753237       3.80864761       0.00000000      -0.00048505      -0.00064279      -0.01470400
C        6.33590687       3.47596482       4.17906211       0.00000000      -0.00102362      -0.00714412      -0.00817126
C        5.10664829       5.56774743       4.09744283       0.00000000      -0.00066327      -0.00676610      -0.00348327
C        3.68914196       7.78689195       3.60876575       0.00000000       0.00714077      -0.00286089       0.00139210
C        2.50480735       9.91944410       3.62693731       0.00000000      -0.01113926      -0.00978794      -0.01146980
C        9.94352111       1.38161687       3.57087328       0.00000000      -0.01009064       0.00365950       0.00512935
C        8.71433606       3.50951497       3.61169378       0.00000000       0.00597817      -0.00332027      -0.00633242
C        7.46716855       5.63609851       3.68984331       0.00000000       0.00845993      -0.01224851      -0.00879147
C        6.18763774       7.76412944       3.63569098       0.00000000       0.00370529      -0.00178218       0.00069058
C        4.97145697       9.91013042       3.61078366       0.00000000      -0.00973452       0.01304916       0.00678986
Rh       2.29807476       5.10876232       5.16127038       0.00000000       0.00576341      -0.00569384      -0.01534537
O        0.72694394       6.49626381       6.32957713       1.00000000       0.00306824      -0.00606044       0.00006084
O        1.59716038       5.67171399       6.81404457       1.00000000       0.00872443       0.00114488       0.01787979
