51
Lattice="12.336457 0.0 0.0 -6.168228499999997 10.683685154694365 0.0 0.0 0.0 15.0" Properties=species:S:1:pos:R:3:forces:R:3 energy=-449.6366934209349 free_energy=-449.6366934209349 stress="-5.3355564833022456e-05 0.0037462649779969326 -5.69104896096728e-06 0.0037462649779969326 -0.0020699205297413136 1.8866445720661838e-05 -5.69104896096728e-06 1.8866445720661838e-05 -7.782089365655175e-06" pbc="T T T"
C       -0.01712689      -0.01808605       3.77318472      -0.01109411       0.00538823      -0.00375369
C       -1.22498590       2.13944935       3.82109951       0.00101820      -0.00121407       0.00098702
C       -2.45174769       4.25862345       3.82141716       0.00144242      -0.00630499       0.00517002
C       -3.72335578       6.38369046       3.78544594       0.00136366      -0.00077543       0.00081124
C       -4.96968157       8.51487728       3.75210783      -0.00056024       0.00401622      -0.00275523
C        2.43898128      -0.03277760       3.74377830       0.00696811      -0.00716266      -0.00409759
C        1.23670617       2.13209639       3.83203836      -0.01082317       0.00292038       0.00238847
C        0.04643259       4.31018717       3.89142755       0.00168369      -0.00181314       0.00397053
C       -1.25192020       6.39643710       3.77206601       0.00620084       0.01036034       0.00347006
C       -2.49654089       8.51739508       3.72188204       0.00022521      -0.00446530      -0.00224855
C        4.91130623      -0.03200196       3.67832105       0.01138482      -0.00908082      -0.00014270
C        3.68526980       2.07276030       3.72460939      -0.00267155       0.00524921       0.00779496
N        2.53349972       4.14757139       4.05361083       0.00140740       0.00762093       0.00423449
O        1.12149579       6.48182915       3.79754645      -0.00062901      -0.00159548      -0.00091955
C       -0.04619126       8.53184817       3.62983702      -0.00524616       0.00289934       0.00365831
C        7.38121639      -0.02395717       3.67070756      -0.00848157      -0.00320753      -0.00089612
C        6.16056308       2.09444101       3.71835296       0.00840479       0.00644295       0.00796738
C        4.92518772       4.18944472       3.70301389      -0.00017517       0.01067946      -0.00363621
S        3.70795672       6.33115559       2.42479349      -0.00829112      -0.01023636      -0.00486600
C        2.39288676       8.52429253       3.55667341      -0.00138352       0.00604092       0.00269262
C        9.85194844      -0.01409881       3.71975527      -0.00558281       0.00216742      -0.00320239
C        8.63472996       2.11655005       3.76582702       0.01182589      -0.00820960       0.00285613
C        7.40245262       4.23957856       3.77498215      -0.00830123       0.00710662       0.00400135
C        6.15169594       6.38361067       3.71421729      -0.00228707       0.00008430      -0.00609274
C        4.91064054       8.51932724       3.65508426       0.00299778      -0.00710171       0.00151083
C       -0.00112325       1.41802201       3.81145807      -0.00995007       0.00196409       0.00525416
C       -1.19518949       3.57472987       3.84906087       0.00146460      -0.00829481       0.00982707
C       -2.48234397       5.67429798       3.80248461       0.00768809      -0.00004039      -0.00778403
C       -3.73622625       7.80467792       3.75885539      -0.00162036      -0.00095049       0.00073040
C       -4.96533463       9.94097595       3.75996335      -0.00349495       0.00487210      -0.00149877
C        2.44774159       1.38953466       3.76489423      -0.00805330       0.00066167      -0.00583638
C        1.29947547       3.56851863       3.93517474       0.00216296       0.00590457      -0.00066531
C       -0.03803148       5.71472381       3.82231545       0.00345109       0.00013743       0.00715792
C       -1.27275640       7.81616908       3.70070656      -0.00021089       0.00798926       0.00104725
C       -2.49596490       9.94346206       3.70708129       0.01275736      -0.01055506       0.00122986
C        4.92342576       1.38552424       3.69347427       0.00569640      -0.00021172       0.01028300
C        3.68266507       3.49269723       3.78953419       0.00038301       0.01327879       0.00337432
C        1.16156292       7.85333647       3.60348293      -0.00079464       0.00449276      -0.00122660
C       -0.02275979       9.95534637       3.64796386       0.00145847      -0.00909687      -0.00132455
C        7.39535989       1.39930288       3.72187371       0.00750569      -0.00423762      -0.01013749
C        6.16201309       3.51711063       3.73959209       0.00032474       0.00827912      -0.00315933
C        4.91664082       5.63056100       3.60530901       0.00701911       0.00336151       0.00251255
C        3.65857064       7.81341612       3.49088104       0.00309897      -0.01264334      -0.01121204
C        2.43958079       9.94848602       3.64543243      -0.00903458       0.00788455       0.00037892
C        9.87034125       1.41404099       3.77396682       0.01104790      -0.00187706      -0.00327967
C        8.64124812       3.53940678       3.79351567      -0.00490212      -0.00443497       0.00597526
C        7.37744749       5.66798114       3.77854142      -0.00405997       0.00497327      -0.00991381
C        6.12473999       7.79463613       3.70614630       0.00101134      -0.00156666      -0.00467164
C        4.91386368       9.94552794       3.72856937      -0.00784382       0.00275495      -0.01033577
Rh       3.26449475       6.15388410       4.84666824      -0.00842920      -0.00344529       0.00538909
O        3.19197500       6.59184975       6.47007519       0.00392805      -0.01900903      -0.00101705
