51
Lattice="12.336457 0.0 0.0 -6.168228499999997 10.683685154694365 0.0 0.0 0.0 15.0" Properties=species:S:1:pos:R:3:initial_magmoms:R:1:forces:R:3 energy=-441.4851499784934 free_energy=-441.4851499784934 stress="-0.0016223328512495801 -0.0029320083521359964 -3.465827690123883e-05 -0.0029320083521359964 0.0017374826931999033 4.215578645557374e-06 -3.465827690123883e-05 4.215578645557374e-06 1.552248641753237e-05" pbc="T T T"
C       -0.05955275      -0.07312530       3.85953815       0.00000000      -0.00325347      -0.00464624       0.01496944
C       -1.31650955       2.06110698       4.02417925       0.00000000       0.00533381       0.00218680      -0.00207524
C       -2.53674353       4.21111818       3.75084607       0.00000000      -0.00676912       0.01242289       0.00068208
C       -3.73419199       6.35652868       3.52552585       0.00000000       0.00265137       0.00024513       0.00018371
C       -4.97391257       8.49717134       3.59224663       0.00000000       0.00090843       0.01067230      -0.00589718
C        2.41727043      -0.08924545       3.87681173       0.00000000       0.00394770       0.00058277       0.00405332
C        1.16796996       1.97289021       4.36510012       0.00000000       0.00799334      -0.01193019      -0.00645654
C       -0.18734410       4.28414098       4.35317759       0.00000000      -0.00033783       0.00113159       0.00379622
C       -1.30831914       6.36599450       3.78898634       0.00000000       0.00269601       0.00412329      -0.00119323
C       -2.50852954       8.48762169       3.66960957       0.00000000      -0.00654011      -0.00194493      -0.00736078
C        4.88626740      -0.06616916       3.71502233       0.00000000       0.00146040       0.00359036      -0.00133330
C        3.60839810       2.03010348       3.78032024       0.00000000      -0.01069939       0.01132680       0.01169849
N        1.07835066       6.36547954       4.20527282       0.00000000      -0.00770849       0.00363927      -0.00266926
C       -0.03474137       8.45858098       3.75715086       0.00000000       0.00427011      -0.00931428       0.01222082
C        7.35222892      -0.08424634       3.68209585       0.00000000      -0.00016044      -0.00267918      -0.00187280
C        6.09749108       2.08811009       3.53194605       0.00000000      -0.00521421       0.00381658      -0.00586073
C        4.94873233       4.32476296       3.24272839       0.00000000      -0.00287825      -0.00901920      -0.00421077
O        3.76692085       6.40466607       3.37516364       0.00000000      -0.00959336      -0.00019808       0.00232472
C        2.44051680       8.40619746       3.71308634       0.00000000       0.00275103      -0.00396100       0.00648069
C        9.80436351      -0.08646307       3.74967982       0.00000000      -0.00583768      -0.01456692       0.00035576
C        8.57030720       2.06957469       3.67155020       0.00000000       0.00800712      -0.00445946       0.01439306
C        7.35824849       4.22335494       3.43227267       0.00000000       0.00237394       0.00360870      -0.00145904
C        6.17327945       6.40068247       3.28772267       0.00000000      -0.00705786       0.00396492       0.00746914
C        4.89530312       8.49131165       3.53716680       0.00000000      -0.00355579       0.00118058       0.01086934
C       -0.07585257       1.33611702       4.10878265       0.00000000       0.00703045      -0.00382839       0.00097073
C       -1.32961695       3.50462907       4.04636873       0.00000000      -0.00523590       0.00960732      -0.00331648
C       -2.51807889       5.63594236       3.67225493       0.00000000       0.00344876       0.00828187       0.00003563
C       -3.73691225       7.77976681       3.58222887       0.00000000      -0.00458467      -0.00058930      -0.00717660
C       -4.98784276       9.90507668       3.78741063       0.00000000       0.00183046       0.00708062       0.00788638
C        2.40554395       1.31781430       4.06882641       0.00000000      -0.00056585      -0.00474271      -0.00687259
P        1.15609805       3.52530993       5.24881524       0.00000000       0.00619350       0.00398738      -0.00055527
C       -0.09271218       5.69018438       4.10653779       0.00000000      -0.00302980       0.00273631       0.00886668
C       -1.27960961       7.77139110       3.71871096       0.00000000      -0.00190087       0.00037642      -0.00541017
C       -2.51118630       9.90679037       3.74796994       0.00000000       0.00107300       0.00013541      -0.00122235
C        4.86618077       1.37405143       3.66244327       0.00000000      -0.01166273       0.01123922       0.00289703
S        3.35549918       3.66991173       3.27806698       0.00000000       0.00602433      -0.00650623      -0.00946421
C        1.18127285       7.69572956       3.87985480       0.00000000       0.00571508      -0.00367834       0.00486886
C       -0.04368927       9.88992651       3.70170160       0.00000000       0.00402068      -0.00971014       0.00590606
C        7.33222116       1.36014139       3.61481102       0.00000000       0.00210383       0.00053407      -0.00401178
C        6.11064350       3.52272340       3.37669321       0.00000000       0.00354143       0.00063860      -0.00975885
C        4.97214861       5.72306621       3.20352389       0.00000000      -0.00673096      -0.00490493      -0.00193493
C        3.69575713       7.77527041       3.53624136       0.00000000      -0.00334360      -0.00019241      -0.00089127
C        2.41478966       9.85156256       3.70489603       0.00000000      -0.00574324      -0.00876720       0.00394952
C        9.80270449       1.35330694       3.81704963       0.00000000       0.01032865      -0.01138097      -0.00834734
C        8.57953411       3.49788379       3.60682198       0.00000000      -0.00054815       0.00190951       0.00523324
C        7.38070901       5.64686899       3.39307405       0.00000000       0.00157107       0.00391173      -0.00454150
C        6.14579256       7.80854725       3.44482354       0.00000000      -0.00089956       0.01075367       0.00028898
C        4.87820583       9.90654658       3.71801928       0.00000000      -0.00476009      -0.00306891      -0.00889633
Rh       2.67539613       4.94563959       5.09394860       0.00000000       0.00800750       0.00160090      -0.00178280
O        3.65050291       6.96266748       6.00979772       1.00000000       0.01542899      -0.00855045      -0.00487086
O        4.15619895       5.75847746       6.06702260       1.00000000      -0.00009959       0.00335443      -0.01095772
