50
Lattice="12.336457 0.0 0.0 -6.168228499999997 10.683685154694365 0.0 0.0 0.0 15.0" Properties=species:S:1:pos:R:3:forces:R:3 energy=-436.60827029646 free_energy=-436.60827029646 stress="-0.0072275519735849735 0.0048894419065698665 -2.2634771407500385e-07 0.0048894419065698665 -0.0011683073121828975 1.7384212569643046e-06 -2.2634771407500385e-07 1.7384212569643046e-06 -2.38088995249586e-05" pbc="T T T"
C        0.00210950       0.00260866       3.68638374       0.00022404      -0.00068595       0.00306799
C       -1.21279908       2.14722385       3.59902176      -0.00458798      -0.00127878       0.00440296
C       -2.47022708       4.28464269       3.73297605      -0.00064106       0.01067453      -0.00288256
C       -3.72561863       6.41723025       3.79376766      -0.00686462       0.00061027       0.00196635
C       -4.96643299       8.54382206       3.74063650       0.00796196       0.00266460      -0.00311088
C        2.46073703       0.02201653       3.85656110      -0.00076101       0.00371116      -0.00480125
C        1.27184581       2.10143772       3.46193478       0.00712971       0.00161177      -0.00730693
C       -0.08728228       4.37195453       3.41685059       0.00126245      -0.01294828      -0.00467205
C       -1.29987362       6.45717299       3.78647475      -0.00768728      -0.00457509       0.00653084
C       -2.50189255       8.56813853       3.90099733       0.00694758       0.00541406       0.00359012
C        4.93301931       0.00174332       3.95271628       0.00103744       0.00389216      -0.00343959
C        3.74303016       2.17410685       3.89451152      -0.00228949      -0.00429644       0.00286126
N        1.08578814       6.43068442       3.96373437      -0.00230175       0.00463034      -0.00514183
C       -0.02281755       8.54476612       3.92451195       0.00044396      -0.00283149       0.00104316
C        7.41654980      -0.02294132       3.93101689      -0.00145761      -0.00937204      -0.00755370
C        6.20871629       2.10280507       3.89633350      -0.00275957       0.00435785       0.00880919
C        5.00979734       4.20177215       3.69297268      -0.00199917       0.00845392      -0.01020575
S        3.55618614       6.25741309       2.78267056       0.00137682       0.01029993       0.00136026
C        2.45180581       8.51357565       3.77674765       0.00127237      -0.00185552       0.00490592
C        9.87751991      -0.01383962       3.76532028      -0.00124130      -0.00211948      -0.00181495
C        8.66556388       2.12376042       3.82019638      -0.00682351      -0.00304297      -0.00288006
C        7.43278147       4.25789329       3.77928697       0.01258635      -0.00655227       0.01074049
C        6.17031563       6.38530751       3.58166491       0.00687962       0.00475747       0.00295800
C        4.91514077       8.52782291       3.57945903      -0.00363056      -0.00364227      -0.00090291
C        0.01898993       1.43860612       3.57874938       0.00299760       0.00276627      -0.00191680
C       -1.23538770       3.58146911       3.58098610      -0.00822687      -0.00298630       0.00231246
C       -2.49787339       5.70906367       3.77860621      -0.00953738       0.00614684       0.00972621
C       -3.73096033       7.84323983       3.81977919       0.00729529       0.00259103      -0.00388240
C       -4.94305958       9.98074502       3.76552680       0.00105713       0.00211045      -0.00319276
C        2.48230542       1.45370597       3.77628332       0.00257144       0.00222185       0.00484515
S        1.37488594       3.70547031       2.77210280      -0.00487666      -0.00804295      -0.00426425
C       -0.07457880       5.76515926       3.69103090       0.00176942      -0.01040967      -0.01087266
C       -1.27413317       7.86427069       3.89497156       0.00054044      -0.00558905       0.00862066
C       -2.48224349       9.99013068       3.93106248       0.00195605       0.01057873      -0.00807527
C        4.95705182       1.42270015       3.92559449      -0.00212393       0.00232966       0.00022471
N        3.84899905       3.53718081       3.96511126      -0.00182525      -0.00231838      -0.00478548
C        1.19114988       7.79358633       3.89355592       0.00329569       0.00628439       0.00308269
C        0.00115534       9.96570731       3.95247555      -0.00059457      -0.00419539      -0.00378495
C        7.43644347       1.39893362       3.90174935      -0.00830794      -0.00464591       0.00264893
C        6.23490600       3.50973423       3.78830932       0.00902560       0.00298757       0.00558614
C        5.02263840       5.59438637       3.41910701      -0.00169534       0.01152347      -0.00352948
C        3.66201312       7.86487740       3.46472339      -0.00467273      -0.00397368      -0.00702489
C        2.47354239       9.94523177       3.85641948       0.00214982      -0.00309175      -0.00524457
C        9.90094347       1.42308751       3.74061185      -0.00792229      -0.00252875      -0.00404038
C        8.66045164       3.54974034       3.79431158       0.01020086      -0.00114404       0.00106391
C        7.40521542       5.68221316       3.73303736       0.00218331      -0.00925437      -0.00344023
C        6.14732257       7.81956445       3.59969433       0.00371322       0.00332652       0.00362131
C        4.93226833       9.96402614       3.68645624      -0.00333307      -0.00189074       0.00175796
Rh       2.46795889       4.98531290       4.73490987       0.00177289       0.00073399       0.01289927
O        2.45070001       4.97144821       6.43692778      -0.00149008      -0.00140727       0.01014059
