50
Lattice="12.336457 0.0 0.0 -6.168228499999997 10.683685154694365 0.0 0.0 0.0 15.0" Properties=species:S:1:pos:R:3:forces:R:3 energy=-439.00053229910566 free_energy=-439.00053229910566 stress="-0.0001692108370853646 -7.170742092073622e-05 -1.1419060743083012e-05 -7.170742092073622e-05 -0.0008378171041822759 -1.7048534424161516e-06 -1.1419060743083012e-05 -1.7048534424161516e-06 6.8690347394816845e-06" pbc="T T T"
C        0.00464899      -0.01428932       3.91499127       0.00371966      -0.00514770      -0.00287318
C       -1.22515977       2.12212684       3.96177651      -0.00005005      -0.00049217      -0.00113486
C       -2.46144469       4.24727301       3.92273630      -0.00735372       0.00559506       0.00454001
C       -3.70226094       6.38591637       3.88957602      -0.00645245       0.00279753      -0.01173937
C       -4.93919218       8.52117341       3.84476298       0.00805842      -0.00282794       0.00831435
C        2.46694927      -0.01821392       3.95329185      -0.01268747      -0.00014879      -0.00566423
C        1.24415741       2.12656285       3.96212963      -0.00147247      -0.00144370      -0.00854061
C        0.03545778       4.24778611       3.76020045       0.01298891      -0.00377765      -0.00182140
C       -1.23970639       6.37985388       3.67340856       0.00959998       0.00247092       0.00741164
C       -2.46399729       8.52030909       3.84342648      -0.00754180      -0.00351787       0.00425403
C        4.92804292      -0.01549724       3.91399693      -0.00299112       0.00240220      -0.00316836
C        3.68751808       2.12638816       3.95838625      -0.00183819      -0.00204406       0.00619160
O        2.46521369       4.16738389       4.06450291       0.00534835       0.00019012      -0.00474842
S        1.03999085       6.36804621       2.22109216      -0.00749832       0.00056903       0.00476344
C       -0.03480600       8.54998695       3.62233343       0.00008548       0.00301628       0.00201712
C        7.39613332      -0.01043684       3.85317392       0.00996339       0.00453707      -0.01293202
C        6.15563202       2.12182067       3.96102682       0.01296966       0.00833914       0.00245036
C        4.89517300       4.24844521       3.76378758      -0.00469126      -0.00746797      -0.00829559
S        3.90245897       6.36769840       2.21065462      -0.00619515       0.00046161       0.00292412
C        2.46780873       8.57711980       3.43106094      -0.01044757      -0.00073612      -0.01094656
C        9.87194024      -0.00982819       3.85159522       0.00298535       0.00762971      -0.00661550
C        8.63341196       2.11635316       3.97116257       0.00071520      -0.00836678       0.00240149
C        7.39232068       4.24796183       3.92537594       0.00026772      -0.00211347       0.00516113
C        6.17053557       6.38133204       3.68078521       0.00157674      -0.00129094      -0.00209382
C        4.96919542       8.55219349       3.61711087      -0.00244090       0.00709693       0.00803142
C        0.00395594       1.41212423       3.95492069       0.00114017      -0.00602047       0.00324372
C       -1.21634975       3.54237482       3.91070982       0.00019465       0.00218378       0.00169748
C       -2.46834168       5.67049995       3.86328788      -0.00359887       0.01113009       0.00709162
C       -3.70182563       7.80812684       3.86628584      -0.00080199      -0.00396565       0.00258281
C       -4.93748476       9.94822545       3.90992889      -0.00120032      -0.00721845      -0.00085158
C        2.46624197       1.40039755       3.97834734      -0.00647143      -0.00070123      -0.00673281
C        1.24919263       3.51981165       3.90012206       0.00688705      -0.00104881       0.01240290
C       -0.06617944       5.62990115       3.40801135       0.00843482      -0.00219610      -0.00330426
C       -1.23372581       7.81191625       3.69045453       0.00069138       0.00245348       0.00227991
C       -2.46547683       9.94720702       3.90976076      -0.01260777      -0.00128709      -0.00558634
C        4.92728356       1.41114388       3.95193865       0.00826256       0.00775948       0.00635267
C        3.68160620       3.52019240       3.90085145      -0.00039352      -0.00468180       0.00966474
C        1.21459224       7.88221334       3.31825296      -0.00087777      -0.01523841      -0.00891334
C       -0.00739748       9.95670321       3.81523779       0.00710992       0.00276716       0.00313452
C        7.39523624       1.40872891       3.95201124       0.00722281      -0.00182837      -0.00252427
C        6.14699173       3.54268065       3.91328434       0.00216598       0.00388849      -0.00408381
C        4.99690768       5.63137200       3.41164866       0.00067688      -0.00164416       0.00433497
C        3.72183910       7.88455496       3.30678881      -0.00833699      -0.00101190       0.01222715
C        2.46616996       9.98451591       3.74084350       0.00561076       0.00799143       0.00017772
C        9.87175320       1.40901074       3.95167142       0.00017074       0.00042628      -0.00143793
C        8.63358008       3.53812626       3.96745473      -0.00418230      -0.00914308      -0.00118996
C        7.39935818       5.67164305       3.86780514       0.00078895      -0.00348023       0.00467390
C        6.16647135       7.81301051       3.69373471       0.00676198       0.00656162      -0.00860331
C        4.94008424       9.95807517       3.81359541      -0.00038459       0.00481520      -0.00027198
Rh       2.47377463       6.56468419       3.94136588      -0.01388151       0.00375831      -0.00425136
