51
Lattice="12.336457 0.0 0.0 -6.168228499999997 10.683685154694365 0.0 0.0 0.0 15.0" Properties=species:S:1:pos:R:3:forces:R:3 energy=-444.5339971147105 free_energy=-444.5339971147105 stress="0.00033715800830404083 -0.00010722240481927452 8.501346521566038e-06 -0.00010722240481927452 -0.0027948374078044535 -6.979611536746673e-06 8.501346521566038e-06 -6.979611536746673e-06 7.348027995402289e-06" pbc="T T T"
C       -0.05167998      -0.02807740       3.86540461      -0.00471605      -0.00676764       0.00050829
C       -1.28230105       2.11063412       3.94243424       0.00027523      -0.00162214      -0.00044521
C       -2.51426838       4.24449409       3.92357594      -0.01001151       0.00108787       0.00095480
C       -3.75515662       6.38153366       3.86970939      -0.00147608      -0.00356038       0.00188387
C       -4.98243471       8.51804844       3.82423949      -0.00282064       0.00412143       0.00763296
C        2.41627019      -0.03118647       3.84562770      -0.00051810       0.00276309      -0.00555948
C        1.18937059       2.10875838       3.91416539      -0.00477141       0.00594640      -0.01070150
C       -0.01941377       4.23145322       3.80855568      -0.00816106       0.00573991      -0.00469443
C       -1.28732105       6.37286112       3.64464337       0.00579101      -0.00654520      -0.00319873
C       -2.50821121       8.50826793       3.72711907       0.00242436       0.00474762      -0.00061079
C        4.87714690      -0.02581157       3.74563920       0.01091384       0.00912817       0.01226415
C        3.63621907       2.09586236       3.86110401      -0.00097228       0.00003541       0.00436783
O        2.41839723       4.14895552       4.01026812       0.00359602       0.00156705       0.00905206
S        1.16746904       6.30135400       2.53891728       0.00068076      -0.00253634       0.00233560
C       -0.06838513       8.54059741       3.44735238       0.00574893      -0.01057379      -0.00009201
C        7.33923351      -0.00879898       3.69307553       0.00047489      -0.00061372      -0.00088052
C        6.10094855       2.11119756       3.85037588       0.00507698      -0.00035157      -0.00534283
C        4.83649590       4.21484631       3.81861100       0.00235997       0.00635056       0.00105353
S        3.89809928       6.41028254       2.28394374       0.00146056      -0.00807404       0.00452328
C        2.39376217       8.57998588       3.34127709      -0.00041032       0.00086094      -0.00400271
C        9.81388096      -0.01335934       3.78287610      -0.00312205      -0.00073195      -0.00439342
C        8.57777559       2.11380960       3.89661139      -0.00235774       0.00705401       0.00445111
C        7.33708515       4.24410149       3.91741083      -0.00810638      -0.00899054      -0.00348836
C        6.11776378       6.39738978       3.81748678       0.00208690      -0.00619634      -0.00004724
C        4.90021808       8.53070471       3.66240993       0.00780004      -0.00367127       0.00425742
C       -0.05539538       1.39605923       3.91755316      -0.00032012      -0.00628093      -0.00746434
C       -1.26829485       3.53367485       3.92844369      -0.00889697       0.00209977       0.00323013
C       -2.52323623       5.66510428       3.84821217       0.00087571      -0.00181149      -0.00293482
C       -3.74987091       7.80160763       3.81637950      -0.00389030       0.00285825      -0.00447784
C       -4.98792896       9.93907943       3.84745014      -0.00284324       0.00302317       0.01242621
C        2.41411131       1.38126006       3.88339552      -0.00472052       0.00196741      -0.01363313
C        1.20043647       3.49482262       3.88064836      -0.00527126       0.00927972       0.00775767
C       -0.10555379       5.61992281       3.47551104       0.00733594       0.00086106      -0.00863002
C       -1.28110494       7.80102868       3.57188651       0.00245681      -0.00696571       0.00017247
C       -2.51731446       9.93614018       3.76631385       0.00840683       0.00955386       0.01456257
C        4.87797344       1.39695428       3.82006526       0.00410248       0.00771075       0.00367153
C        3.63242925       3.49115912       3.87143605       0.00783699       0.00121114       0.00123674
C        1.17327977       7.91167476       3.16401738       0.00417074      -0.00777056      -0.00830527
C       -0.05886324       9.96094795       3.63220584       0.00405516      -0.00338344       0.00029684
C        7.34167592       1.40599616       3.82671259       0.00355318       0.00068472       0.00367968
C        6.08657640       3.53352993       3.87475391      -0.00326930      -0.00369972      -0.00210643
C        4.86075248       5.67716693       3.68533373      -0.01144376       0.01219598      -0.00034239
C        3.64987577       7.82342689       3.39832265       0.00659902       0.01319778       0.00977296
C        2.40917883       9.97137892       3.61413928      -0.00223322      -0.00043945      -0.00642912
C        9.81311184       1.40079203       3.89340574      -0.00263356       0.00260518      -0.00030185
C        8.57705191       3.53618483       3.93640003      -0.00968399       0.00391197      -0.00034034
C        7.33676176       5.67382624       3.89780901      -0.00159110      -0.01242068      -0.01093102
C        6.10600093       7.80639631       3.76767668       0.00587237      -0.00795596       0.00270916
C        4.88093045       9.94327797       3.77821516      -0.00229820      -0.00602449       0.00011307
Rh       3.38843690       6.44642584       4.95595108       0.00166004      -0.00212926       0.00051605
O        4.04006905       7.13364783       6.39008973       0.00092440      -0.00144664      -0.00407616
