52
Lattice="12.336457 0.0 0.0 -6.168228499999997 10.683685154694365 0.0 0.0 0.0 15.0" Properties=species:S:1:pos:R:3:forces:R:3 energy=-457.78683578550374 free_energy=-457.78683578550374 stress="-0.006291218479773442 0.0014038669750879626 -2.301907083711305e-06 0.0014038669750879626 0.001666675440424178 -9.37793040487178e-06 -2.301907083711305e-06 -9.37793040487178e-06 3.312613396943147e-05" pbc="T T T"
C        0.06114974       0.02584438       3.76170456      -0.01075402      -0.01276520      -0.00221479
C       -1.18580251       2.13257630       3.64112474      -0.00021469      -0.00280204      -0.01375464
C       -2.42468274       4.27906607       3.51456278      -0.00176341      -0.00660592       0.00786908
C       -3.65082509       6.42622002       3.57100394      -0.00015809       0.01327477      -0.01062037
C       -4.88002572       8.57245565       3.71233256       0.00062293       0.01255236       0.00964525
C        2.52716937       0.05503928       3.81359522      -0.00048228       0.00246699      -0.00742684
C        1.29215490       2.19990342       3.87952736      -0.00267829       0.00537463      -0.00246103
C       -0.00334033       4.28064209       3.73766450      -0.00044998       0.00221709      -0.00558906
C       -1.20984096       6.43579756       3.64627452      -0.00101063      -0.00430455      -0.00159708
C       -2.42401337       8.57750522       3.70152176       0.00003728      -0.01033166       0.00197578
C        4.99534465       0.01208873       3.76698654      -0.01251224       0.00044722       0.00669335
C        3.79702543       2.19056624       3.90922392       0.00610286       0.01061176       0.00132585
C        1.22471256       6.37082834       4.02602056       0.00119426      -0.00931064      -0.00468588
C        0.05119824       8.53699335       3.80570950      -0.00215475       0.00422030      -0.00486903
C        7.46381051      -0.01828889       3.71953902       0.00344012      -0.00716478       0.00391986
C        6.24522189       2.11668767       3.65454677       0.01434418      -0.00008628      -0.01180942
C        5.05871658       4.22342773       3.77690117      -0.00397817       0.00216658       0.01132880
B        3.74805861       6.35241774       4.09362088       0.00041478       0.00338304      -0.00115773
C        2.51854306       8.53171448       3.89662561       0.00259887      -0.00974139       0.00282767
C        9.92460344      -0.01067087       3.71848505      -0.00504207       0.01382637      -0.00370944
C        8.69714068       2.12474971       3.56046157      -0.00613530      -0.00427944       0.00463629
C        7.47361215       4.27022600       3.52895959       0.01318319      -0.00287769       0.00106640
C        6.23927477       6.41252556       3.69163531       0.00424371      -0.00582524       0.00166060
C        4.99620647       8.55418727       3.81563204       0.00477790      -0.00588293      -0.00053384
C        0.05677800       1.44957923       3.75690783      -0.00531588      -0.01217345       0.00768908
C       -1.21259582       3.55327832       3.58312933       0.00093757      -0.00235645       0.00294787
C       -2.42561893       5.71164229       3.55051635      -0.00512592      -0.00003754      -0.00186678
C       -3.65059272       7.85720472       3.65392149      -0.00411788       0.01183635      -0.00307886
C       -4.87209806      10.00615405       3.77042522      -0.00189437       0.00621136       0.00208828
C        2.53702527       1.48723822       3.90166537       0.00328619       0.00831723      -0.01480205
C        1.19828149       3.59981499       3.96768729       0.00665599       0.01329893      -0.00202999
C        0.00571614       5.70835507       3.77071298      -0.00370349      -0.00392547       0.01043627
C       -1.19529732       7.85541001       3.71450940       0.00289920      -0.00435315       0.00800685
C       -2.41645302      10.00449184       3.76938310      -0.00876511      -0.01279820       0.00812027
C        5.00931082       1.43473303       3.77253970       0.00907946       0.00456882      -0.00327173
N        3.90364058       3.55360034       4.02439218      -0.01002194       0.01213368       0.00939958
C        1.28628447       7.79328036       3.92220674      -0.00246461      -0.00794646      -0.00755831
C        0.05907394       9.96065143       3.76427203      -0.00736955       0.00533168      -0.00587444
C        7.47092543       1.40386350       3.62467131       0.00596268      -0.01059973       0.00498159
C        6.26834745       3.52730529       3.60409811       0.00461482       0.00564924      -0.01256362
C        5.05208830       5.64563840       3.81390796      -0.00633061       0.00248121      -0.00049231
C        3.75557237       7.85683844       3.92741237       0.00520482      -0.00337898       0.01057012
C        2.52263243       9.95531134       3.77024593       0.00541515      -0.00368813       0.00974122
C        9.92328542       1.41104202       3.62182694      -0.00671965       0.01419113      -0.00103228
C        8.69581459       3.55463539       3.50135214       0.00340911      -0.01148116       0.01057718
C        7.46719546       5.70178314       3.56900723       0.00901132      -0.00029583      -0.00127462
C        6.22898498       7.84592917       3.74271330       0.00808599      -0.00259776      -0.00302360
C        4.99672287       9.98073606       3.76157435      -0.01291966      -0.00421246      -0.00130068
Ru       2.48938626       4.94926466       4.73801708       0.00882067       0.00805814       0.00996629
O        2.45227123       5.22611943       6.58313719      -0.01113305      -0.00798113      -0.00537596
O        1.25869129       4.55701727       7.16184214       0.00720681       0.00590008       0.00051522
H        1.48797434       4.66087482       8.11070109       0.00166579       0.00128468      -0.01401435
