49
Lattice="12.336457 0.0 0.0 -6.168228499999997 10.683685154694365 0.0 0.0 0.0 15.0" Properties=species:S:1:pos:R:3:forces:R:3 energy=-442.9796335065543 free_energy=-442.9796335065543 stress="-0.010056098735742324 0.0018238264719265325 5.877138243372558e-06 0.0018238264719265325 -0.0023152259816456512 -3.5188643532231488e-06 5.877138243372558e-06 -3.5188643532231488e-06 -7.0173758983899235e-09" pbc="T T T"
C        0.00253307       0.01542616       3.69532609      -0.00498104       0.00242027       0.01708444
C       -1.24578943       2.12342955       3.63917991       0.00507364       0.00794095      -0.00195077
C       -2.48492360       4.27332899       3.60272037       0.00125444      -0.00300518      -0.00703182
C       -3.70859870       6.42034068       3.63909354       0.00022053       0.00599554       0.00193669
C       -4.93798467       8.56568133       3.69749199      -0.00346333       0.00827138       0.00267218
C        2.46945480       0.04347792       3.75824812       0.00484017       0.00170561       0.00010938
C        1.23631594       2.17752419       3.78234433      -0.00540641       0.00659836      -0.00230010
C       -0.06728007       4.27801426       3.73714053      -0.00025639       0.00360128      -0.00668104
C       -1.27492374       6.43359530       3.69613354       0.00640693      -0.00287479      -0.00382428
C       -2.48436143       8.57213270       3.71088093       0.00150881      -0.00317197       0.00197658
C        4.93605908       0.00627926       3.76073508       0.00347011      -0.00938088      -0.00095413
C        3.74009933       2.17685905       3.86921104      -0.00113555      -0.00032421      -0.00653256
C        1.16330620       6.38668684       3.94007915       0.00534099       0.00097069      -0.00397967
C       -0.01299585       8.54099054       3.78713999       0.00102504       0.00011500       0.00251371
C        7.40552154      -0.02153080       3.72493028      -0.00185874      -0.00407339      -0.00506678
C        6.19323372       2.10775138       3.71344112       0.00038758      -0.00400738      -0.00932751
C        5.01668104       4.21229350       3.82678606       0.00190405       0.00112976       0.01103078
B        3.69959776       6.36860867       3.96947508      -0.01321295       0.00169117      -0.00514652
C        2.45893451       8.53429770       3.83101358      -0.00040729      -0.00325503      -0.00648941
C        9.86711289      -0.01502818       3.68766100      -0.00355328       0.00450882       0.00576251
C        8.64023218       2.12036209       3.62358380       0.00129379      -0.00688170      -0.00330204
C        7.42421305       4.26457973       3.63560011       0.00737209      -0.00275332      -0.00845102
C        6.18709852       6.40745588       3.72926373      -0.00461613      -0.00640093      -0.00611999
C        4.94173551       8.55338337       3.75470136       0.00312849      -0.00385273       0.01160158
C       -0.00507224       1.43415379       3.69581610      -0.00219558       0.00269764       0.00121823
C       -1.27650166       3.54398486       3.62541734       0.00291836       0.00422682      -0.00195721
C       -2.48746012       5.70563797       3.63214900       0.00177973       0.00079747      -0.01022901
C       -3.70910977       7.85112476       3.67636499      -0.00416665       0.00715620       0.00677896
C       -4.92994427       9.99793814       3.71556580      -0.00078465       0.00826753       0.01112781
C        2.48242350       1.47713666       3.82038367      -0.00451924       0.00270133      -0.00167360
C        1.14113870       3.57326506       3.83939544      -0.00433126       0.00475748       0.00081710
C       -0.06010725       5.70204104       3.78206306       0.00408585      -0.00252260       0.00550246
C       -1.25717306       7.85331668       3.73346296       0.00332652      -0.00197934      -0.00250438
C       -2.47529392       9.99736026       3.74869546       0.00424519      -0.00580648       0.00573067
C        4.95695930       1.42414294       3.77935541       0.00063510      -0.00751765      -0.00114102
N        3.85655246       3.53476021       3.98125183      -0.00076777       0.00138114       0.00094181
C        1.22701146       7.80594640       3.86353688      -0.00017359      -0.00051019      -0.00336105
C       -0.00142860       9.96003407       3.75682606       0.00218296      -0.00292399       0.00529847
C        7.41662149       1.39852840       3.67468934      -0.00070273      -0.00614810      -0.00191687
C        6.22530343       3.51651259       3.69632812       0.00461629      -0.00082794      -0.00639483
C        5.00269432       5.63201987       3.83495238      -0.01062869       0.00040246      -0.00181328
C        3.69568928       7.86270685       3.84243156       0.00153131      -0.00089845       0.00543927
C        2.46515981       9.95612343       3.74145942      -0.00267525      -0.00132839      -0.00014822
C        9.86418197       1.40565017       3.63484788       0.00618416       0.00586062      -0.00270387
C        8.64046412       3.54882920       3.59938499       0.00431146      -0.00849521       0.00157003
C        7.41396213       5.69505994       3.65270722       0.00184416       0.00000643      -0.00161801
C        6.17136089       7.84039634       3.72759984       0.00171540      -0.00390667      -0.00049019
C        4.93863734       9.97455594       3.70153933      -0.00476588      -0.00049709       0.01459826
Ru       2.41605237       4.94138346       4.38631476      -0.00800076       0.01013964      -0.00060172
