50
Lattice="12.336457 0.0 0.0 -6.168228499999997 10.683685154694365 0.0 0.0 0.0 15.0" Properties=species:S:1:pos:R:3:forces:R:3 energy=-440.72311902349304 free_energy=-440.72311902349304 stress="-0.00471394777897864 -0.002749657001007807 3.749982262652605e-06 -0.002749657001007807 -0.0059879626118111645 -8.465080333668327e-07 3.749982262652605e-06 -8.465080333668327e-07 2.1130877323596752e-05" pbc="T T T"
C       -0.00656807      -0.03967100       3.64950094       0.00635677      -0.00037845      -0.00522070
C       -1.26093638       2.09142514       3.78084688      -0.00068487       0.00008856       0.01856893
C       -2.47819767       4.24005514       3.49487594      -0.00163501       0.00033927       0.00874041
C       -3.68417196       6.38620636       3.32174234       0.00168635       0.01364542      -0.00891923
C       -4.91899130       8.53059134       3.40752732      -0.00364985      -0.01129492      -0.00227826
C        2.46320187      -0.05402247       3.69715000      -0.00112546      -0.00974450       0.01009492
C        1.19511323       1.98714999       4.27241235      -0.00190139      -0.00022944      -0.00155992
C       -0.15275716       4.26460233       4.18578669      -0.00285826       0.00269125       0.00080907
C       -1.24033294       6.37973467       3.61817442      -0.00981321      -0.00147549       0.00995263
C       -2.45215597       8.51656662       3.47865530       0.00150590       0.00195493       0.00169625
C        4.93493506      -0.03203582       3.65053809       0.00247452      -0.00391643       0.00189328
C        3.68302495       2.02876878       4.05392659      -0.00024254       0.00395024       0.00558624
B        1.23356426       6.37916359       4.25000108      -0.00592656      -0.00440141       0.00687909
C        0.00616067       8.52064409       3.70601926       0.00120580      -0.00303380      -0.00948993
C        7.39871317      -0.02537986       3.61164268       0.00157355       0.00726510       0.00063773
C        6.15659391       2.11386358       3.61002904      -0.00256201       0.00993354       0.00137212
C        5.02845859       4.32528157       3.69260531      -0.01195962       0.01123316      -0.00877234
C        3.81595522       6.42584449       4.05049484      -0.00650066      -0.00924975      -0.00910531
C        2.47649635       8.53474082       3.82188979       0.00343388      -0.00780380      -0.00385434
C        9.86322630      -0.03061557       3.60714793      -0.00201611      -0.00041044      -0.00505613
C        8.62531216       2.10644943       3.49385705       0.00917200      -0.00627624       0.00999644
C        7.41277685       4.25182490       3.35854638       0.00712697      -0.00116586      -0.00104454
C        6.20370195       6.42132125       3.38298295       0.00432561      -0.00306207      -0.00353349
C        4.94405608       8.52312242       3.58346497       0.00050609       0.00686040      -0.00194438
C       -0.02388469       1.36662063       3.90104086      -0.00160605      -0.00179352       0.01041785
C       -1.28625406       3.51630057       3.80231003      -0.00108429       0.00089131       0.00767838
C       -2.46296400       5.66626888       3.43430628      -0.00916574       0.00343716       0.00786808
C       -3.68514037       7.81210192       3.37134616       0.00166178       0.00797861       0.00014455
C       -4.93519903       9.93850960       3.56660237       0.00062459      -0.01538353       0.00821950
C        2.43904909       1.32718651       4.02967254      -0.00133622      -0.00137968      -0.00307490
P        1.08854123       3.51526995       5.21069532       0.00443283       0.01029898      -0.01619038
C       -0.07604848       5.64923060       3.97960120      -0.00387355      -0.00038542      -0.00642047
C       -1.22242869       7.80355148       3.58450211      -0.00344578      -0.00145068       0.00567415
C       -2.46301508       9.93561827       3.59251899       0.00155514      -0.00384603       0.00959212
C        4.93117100       1.39152584       3.76568058       0.00024805      -0.00056952       0.00133087
P        3.58725422       3.71425982       4.38053231      -0.00916832       0.00394687       0.00022770
C        1.24726087       7.84965728       3.91081356       0.00022464      -0.00566900      -0.00371245
C        0.00008249       9.94497589       3.63407355       0.00453285       0.00011198      -0.00502092
C        7.38934818       1.39965063       3.54226503       0.00220961       0.00906368       0.00458392
C        6.18821108       3.53938255       3.51850381      -0.00741399       0.01339504      -0.00456338
C        4.99327875       5.74100877       3.64793190       0.00048127       0.00471620      -0.00656230
C        3.71930449       7.81148695       3.82021027       0.00543489      -0.00556492       0.00143146
C        2.46684572       9.94909964       3.65592610      -0.00160269      -0.00345719      -0.00739329
C        9.85775093       1.39220574       3.59417148       0.00512606      -0.00423964       0.01018142
C        8.63265586       3.53057139       3.40516780       0.00733674      -0.00926157       0.00379497
C        7.41874071       5.68040204       3.30578711       0.00978754       0.00173298      -0.00809149
C        6.18452518       7.83265724       3.42715145      -0.00530009      -0.00428592      -0.00614166
C        4.93128820       9.93934545       3.59021068       0.00207516       0.00962107      -0.01488660
Ru       2.62117416       5.42505325       5.44400036       0.01527119      -0.00352675       0.00412003
O        2.65609939       6.03543872       7.04241230      -0.00549752       0.00010022      -0.00865571
