49
Lattice="12.336457 0.0 0.0 -6.168228499999997 10.683685154694365 0.0 0.0 0.0 15.0" Properties=species:S:1:pos:R:3:forces:R:3 energy=-434.7317196110515 free_energy=-434.7317196110515 stress="-0.00527400524797265 -0.0019114255581471006 7.485668976918736e-06 -0.0019114255581471006 -0.005226284913875455 -2.2521363905655208e-07 7.485668976918736e-06 -2.2521363905655208e-07 1.5008170434318369e-06" pbc="T T T"
C       -0.00329118      -0.02090078       3.70353633      -0.00064839       0.00162601      -0.00297920
C       -1.25551278       2.10868834       3.81485603      -0.00060063      -0.00094836      -0.00501926
C       -2.48004352       4.25643500       3.49094310       0.00520827      -0.00411039      -0.00056748
C       -3.69225651       6.40333310       3.30912197       0.00748695       0.00389545      -0.00348324
C       -4.92240961       8.54905688       3.42525468      -0.00664847      -0.00327153       0.01085008
C        2.46427339      -0.03159718       3.73746152       0.00025613      -0.00132469      -0.00325833
C        1.20485379       2.01897282       4.32049077       0.00406298       0.00267422      -0.00181255
C       -0.16135404       4.29267751       4.17444539      -0.00372503       0.00459935       0.00028678
C       -1.25084107       6.40158934       3.57641205       0.00907437       0.00253561       0.00457482
C       -2.45918489       8.53765433       3.46658248       0.00158819      -0.00126436       0.00641652
C        4.93821088      -0.01951052       3.63785008       0.00267499       0.00874431      -0.00174791
C        3.70275838       2.03687933       4.09401584       0.00924313      -0.00821042      -0.00245178
B        1.23265547       6.39560394       4.19926474      -0.00801896      -0.00581219       0.00269853
C        0.00112795       8.53589454       3.65784678       0.00395267       0.00616257      -0.00196580
C        7.40500085      -0.01481918       3.59044460      -0.00697329      -0.00054306       0.00430821
C        6.16653226       2.12277962       3.60489197       0.00415559       0.00208356      -0.00716048
C        5.04448832       4.32942718       3.71372776       0.00112551       0.00403514       0.00205548
C        3.78989891       6.41777583       4.04102818      -0.00698377      -0.00999555       0.00152681
C        2.47698417       8.54405714       3.80155149      -0.00154422       0.00202122      -0.01032059
C        9.86842200      -0.01701458       3.62683874      -0.00552584       0.00297996       0.00253292
C        8.63430704       2.11898318       3.49563655      -0.01199441      -0.00385743       0.00635126
C        7.41681777       4.26448074       3.34287523      -0.00411560      -0.00115613      -0.00469996
C        6.19684147       6.43374064       3.37533583       0.00647880      -0.00353018       0.00137054
C        4.94457521       8.53527018       3.60240592      -0.00015913      -0.00262199       0.00505064
C       -0.01803660       1.38788434       3.95318490       0.00260253       0.00298546      -0.00138444
C       -1.29239297       3.53238764       3.80742413       0.00504062      -0.00131666       0.00662169
C       -2.47093903       5.68318932       3.41622427       0.01048840       0.00248866       0.00322261
C       -3.69183871       7.83091418       3.36922344      -0.00297095       0.00242826      -0.00382005
C       -4.93356608       9.95705442       3.61101716      -0.00283219      -0.00302609       0.00189021
C        2.44757299       1.35262279       4.07950513       0.00376537       0.00179007      -0.01598768
P        1.07941190       3.58169658       5.21537288      -0.00351558      -0.00239246       0.00587723
C       -0.08704495       5.67253236       3.93952919       0.00231717      -0.00484760      -0.00069385
C       -1.22941710       7.82348753       3.54734168       0.00663593       0.00303852       0.00843158
C       -2.46626588       9.95536604       3.59996499       0.00436063       0.00206960      -0.00001148
C        4.94280915       1.39887903       3.76726538       0.00934351       0.00797185      -0.00464286
P        3.71262248       3.68524047       4.56561075      -0.00404646      -0.00743257       0.00339595
C        1.24485150       7.86426830       3.85778553       0.00159279      -0.00282215      -0.00624180
C        0.00278117       9.95728458       3.60079166      -0.00341572       0.00626835      -0.00320000
C        7.39872197       1.41033650       3.53144902      -0.00727998      -0.00645793       0.00366159
C        6.20184882       3.54567706       3.50693732      -0.00321280       0.00030885       0.00216749
C        4.98997285       5.74373204       3.66063595       0.00216779      -0.00336283      -0.00385802
C        3.71262172       7.81680098       3.82186557      -0.00184563      -0.00334813      -0.00041001
C        2.47174107       9.96172506       3.64496552      -0.00616549       0.00537732      -0.00274037
C        9.86531895       1.40611000       3.61697540      -0.00801063       0.00283597       0.00210497
C        8.63647140       3.54362198       3.39927258      -0.00303484      -0.00373237      -0.00779551
C        7.41280910       5.69470440       3.29429644       0.00680860       0.00098040       0.00408315
C        6.18144102       7.84592048       3.43655691      -0.00134568      -0.00515449       0.01003350
C        4.93561125       9.95319340       3.62617298      -0.00276428       0.00144365      -0.00418903
Ru       2.56743301       5.37446224       5.28253274      -0.00305293       0.00919520       0.00092914
