51
Lattice="12.336457 0.0 0.0 -6.168228499999997 10.683685154694365 0.0 0.0 0.0 15.0" Properties=species:S:1:pos:R:3:forces:R:3 energy=-453.8878182890786 free_energy=-453.8878182890786 stress="-0.005596353812666609 0.0033484950192325955 -5.124915469323567e-06 0.0033484950192325955 -0.005969100590671842 -1.3369988792001308e-05 -5.124915469323567e-06 -1.3369988792001308e-05 -3.5006981543530824e-05" pbc="T T T"
C       -0.01880092      -0.00947159       3.77038430       0.00109870       0.00276264      -0.00199212
C       -1.23835836       2.13878833       3.81516308       0.00160475       0.00027189       0.00551862
C       -2.46353298       4.27454859       3.81737319       0.00163513      -0.00333366      -0.00404232
C       -3.70920679       6.40626207       3.76265210       0.00483960      -0.00421078      -0.00668221
C       -4.96554373       8.53656573       3.72973435      -0.00056749      -0.00064052       0.00514148
C        2.44312273      -0.00512756       3.73159568      -0.00318756      -0.00180622       0.00869897
C        1.21926006       2.13250083       3.84483173       0.00132634       0.00283292      -0.00007376
C       -0.00753555       4.28319663       3.95288589       0.00100352       0.00198303      -0.00417865
C       -1.24178266       6.41746855       3.84535455      -0.00096827       0.00211355      -0.00162339
C       -2.49990674       8.54520041       3.72222650      -0.00612369      -0.00060183       0.00638901
C        4.91314776      -0.00971999       3.65401420       0.00869389       0.00202199      -0.00755814
C        3.69961702       2.10670969       3.71596235      -0.00567835       0.00399833      -0.00963679
B        2.50786926       4.29353042       4.00938426      -0.00559591      -0.00413837       0.00327104
C        1.20185378       6.49011662       4.01385368      -0.00828114      -0.00197943      -0.00296035
C       -0.04662684       8.55813958       3.68262882       0.00033291      -0.00656256      -0.00189953
C        7.38134563       0.00075318       3.63804564      -0.00059954       0.00044247       0.00403389
C        6.17497929       2.10889381       3.64533476       0.00031499      -0.00099424      -0.00991564
C        4.97769463       4.20724764       3.62087903       0.00754237      -0.00860270      -0.00152627
S        3.59975855       6.34280493       2.66573354      -0.00581411      -0.00020678      -0.01698046
C        2.40655695       8.58091431       3.63626601      -0.00298409       0.00761035      -0.00192141
C        9.85810208       0.00237560       3.71118476       0.00222620       0.00099415       0.00202100
C        8.63896007       2.13235429       3.71415181      -0.00800374      -0.00335382      -0.00291369
C        7.42228535       4.26014562       3.69702673       0.00104273       0.00355400      -0.00559116
C        6.16284965       6.39943093       3.67199278       0.00552050       0.00262164       0.00645742
C        4.91377585       8.53047047       3.71242608       0.00008926       0.00129218       0.00840410
C       -0.01419096       1.41593246       3.81446297       0.00370177       0.00356327      -0.00341726
C       -1.23796069       3.56517207       3.86770573       0.00382953       0.00025764       0.00672088
C       -2.46937282       5.70036427       3.81601898       0.00515455      -0.00302810      -0.01149475
C       -3.72848945       7.82882563       3.74044861      -0.00391473      -0.00537331       0.00645863
C       -4.96008420       9.96167594       3.74656735      -0.00330189      -0.00159218       0.00567087
C        2.45080139       1.41523484       3.76849958      -0.00283857       0.00001513       0.00283232
C        1.19357626       3.55357590       3.94082832      -0.00187307       0.00066214       0.00187583
C        0.01253773       5.72083534       3.95416447      -0.00536159       0.00035604       0.00197891
C       -1.26641853       7.83707058       3.74906673      -0.00375824       0.00114391       0.00846054
C       -2.49371089       9.96601112       3.69400152       0.00176416       0.00205333      -0.00346390
C        4.93358272       1.40238575       3.65520623      -0.00106379       0.00502070      -0.00878154
C        3.76657919       3.51534029       3.72775904      -0.00266911       0.00335399      -0.00209141
C        1.18968859       7.86065181       3.72006660      -0.00022522      -0.00186248       0.00534112
C       -0.02400424       9.97209246       3.63563272       0.00685825      -0.00632587       0.00302397
C        7.40338639       1.41407128       3.66105730      -0.00543383      -0.00286846      -0.01458831
C        6.20690639       3.52550061       3.64001231       0.00811610      -0.00486698      -0.00944188
C        4.95417287       5.63780341       3.57934547       0.00786317      -0.00713219       0.00854960
C        3.63273158       7.83965985       3.66357989      -0.00495501       0.00237987       0.00099691
C        2.44624955       9.98655709       3.65021297      -0.00058779       0.00723430       0.00617600
C        9.86751635       1.42345109       3.74559826      -0.00308744      -0.00020846       0.00882276
C        8.64763305       3.55521284       3.74362851      -0.00367583      -0.00131254      -0.00222423
C        7.39825367       5.68945904       3.72110441       0.00389425       0.00356173      -0.00363333
C        6.12983987       7.81669462       3.70134676       0.00298170       0.00435216      -0.00018619
C        4.91427954       9.95248565       3.74389817       0.00316556       0.00048889       0.00083193
Ru       3.02511155       6.09497620       4.86653491       0.00344796      -0.00849970       0.00606160
O        3.05679886       5.88977874       6.56152442       0.00250212       0.01255895       0.01508130
