50
Lattice="12.336457 0.0 0.0 -6.168228499999997 10.683685154694365 0.0 0.0 0.0 15.0" Properties=species:S:1:pos:R:3:forces:R:3 energy=-447.55753577721663 free_energy=-447.55753577721663 stress="-0.006422651266422099 0.0031243096226569334 -3.5597660280563385e-06 0.0031243096226569334 -0.007861492044190725 2.6194338453334173e-06 -3.5597660280563385e-06 2.6194338453334173e-06 2.1057817023787196e-06" pbc="T T T"
C       -0.02107448      -0.01219592       3.80889912      -0.00261067      -0.00299660       0.00566121
C       -1.24447447       2.13425427       3.86977705       0.00777396      -0.00213100      -0.00557269
C       -2.47105488       4.26874075       3.88807531       0.00136237       0.00418290       0.00124494
C       -3.71545339       6.40120806       3.84545361      -0.00572689      -0.00024656      -0.00014586
C       -4.96435594       8.53277743       3.79343155      -0.00482164      -0.00466334      -0.00436120
C        2.44054240      -0.01503014       3.78786036      -0.00114739       0.00553286      -0.00492974
C        1.21556367       2.11659876       3.88184927       0.00111199       0.00343426       0.00483987
C       -0.01485616       4.27621478       4.00245470       0.00610756       0.00094717       0.00253134
C       -1.25348150       6.41442027       3.92516190       0.00397862      -0.00288125      -0.00246433
C       -2.50302849       8.53986219       3.81237261       0.00279808      -0.00764982      -0.00993664
C        4.91036921      -0.01912785       3.69292284       0.01050136       0.00812023       0.01018093
C        3.69259315       2.08946930       3.70788228       0.00071437       0.00201340       0.01138696
B        2.49665446       4.26814781       3.98096577      -0.00796882      -0.01245016      -0.00949671
C        1.20054821       6.47188320       3.99209182       0.00418768      -0.00743435      -0.00853131
C       -0.05076988       8.55161835       3.72992829      -0.00369732       0.00422417       0.00636733
C        7.37685879      -0.00284106       3.65775505       0.00223134      -0.00581940      -0.00125605
C        6.16982429       2.10131196       3.65119698      -0.00362529       0.00547389       0.00544332
C        4.97623154       4.19612661       3.58639158      -0.00144486      -0.00419637      -0.00406849
S        3.77030092       6.40956854       2.30144572      -0.00025705      -0.00232319      -0.00229684
C        2.40830917       8.58286630       3.55430307      -0.00098455       0.00771411      -0.00242285
C        9.85408289       0.00448601       3.71318224       0.00498717       0.00364411       0.00452816
C        8.63262123       2.12925209       3.75071341      -0.01188902      -0.01051692      -0.00023337
C        7.41758025       4.25450277       3.73610481       0.00123834       0.00569696       0.00152041
C        6.16192139       6.39915888       3.70264205      -0.00557550       0.00209953      -0.00363336
C        4.91881954       8.54001392       3.65980031      -0.00440330       0.00061858      -0.00430162
C       -0.01846065       1.41008934       3.86235747       0.00691667      -0.00329102       0.00247324
C       -1.24567526       3.55902567       3.93375545       0.00663184       0.00111764       0.00088775
C       -2.47764500       5.69508380       3.89889414      -0.00207788       0.00680139       0.00191041
C       -3.73084192       7.82330394       3.82952342      -0.00313164      -0.00492936      -0.00520137
C       -4.96219062       9.95603978       3.80415987      -0.00344311      -0.00182960       0.00050050
C        2.44628927       1.40462454       3.79668910      -0.00166725       0.00899549       0.00395548
C        1.18576809       3.53822362       3.96922396       0.00323475      -0.00121744       0.00144240
C        0.00320615       5.71121490       3.99994462       0.00467651      -0.00142717      -0.00779067
C       -1.27079886       7.83250079       3.83169408       0.00303521      -0.00651800      -0.00714041
C       -2.49582287       9.95801524       3.75776357       0.00676235       0.00088918       0.00499641
C        4.92918680       1.39161408       3.66149577       0.00336071       0.00789038       0.01224507
C        3.76138071       3.49609564       3.69182901      -0.00351233      -0.00292941       0.00519394
C        1.18837451       7.85672060       3.71579307      -0.00617785       0.00854515       0.00160587
C       -0.02748013       9.96549160       3.67606074       0.00509179       0.00320377      -0.00682241
C        7.39800401       1.40960189       3.68337085      -0.01404617      -0.00947363       0.00058957
C        6.20431000       3.51889964       3.63617606       0.00132922       0.00491659       0.00327746
C        4.94261365       5.63757854       3.54712115       0.00104555       0.00340020      -0.01677886
C        3.65119917       7.86485904       3.45658930       0.00347404      -0.00809306       0.00460283
C        2.44399855       9.99058227       3.62888459       0.00735240       0.00490531       0.00555438
C        9.86161318       1.42270236       3.78209887      -0.00031019       0.00122066       0.00806909
C        8.64156223       3.55061156       3.79642566      -0.00041502      -0.00413218       0.00168620
C        7.39325157       5.68395077       3.77986793      -0.00596360       0.00414735       0.00418531
C        6.13263746       7.81434592       3.71542522      -0.00652560      -0.00000975      -0.00608833
C        4.91250858       9.96003114       3.74415487      -0.00191535      -0.00040930      -0.00084880
Ru       3.04701865       6.09021200       4.47869878       0.00343440      -0.00216642      -0.00255851
