50
Lattice="12.336457 0.0 0.0 -6.168228499999997 10.683685154694365 0.0 0.0 0.0 15.0" Properties=species:S:1:pos:R:3:forces:R:3 energy=-440.6317542453456 free_energy=-440.6317542453456 stress="-0.007580531733915585 -0.003709268125814975 -1.8412666044423223e-05 -0.003709268125814975 -0.009345906979241066 4.175699132495942e-06 -1.8412666044423223e-05 4.175699132495942e-06 -8.318197465359157e-06" pbc="T T T"
C       -0.00179297       0.00047530       4.03632076      -0.00328422       0.00610062      -0.00420870
C       -1.25916504       2.12527451       3.93698462      -0.00579762      -0.00028162      -0.00049192
C       -2.48372485       4.26859167       3.68423160      -0.00758881       0.00270670      -0.00172782
C       -3.68818717       6.41391099       3.66726916       0.00560960      -0.00571851      -0.00216195
C       -4.92160072       8.54647711       3.88740969       0.00380248      -0.00102680      -0.00633328
C        2.46929828      -0.02322579       3.90462763       0.00608714      -0.00368994      -0.00162100
C        1.21479926       2.11951351       3.95696291       0.00801483      -0.00309864      -0.00586457
C       -0.05326707       4.22044374       3.69371958      -0.01483697       0.00087906       0.00175069
C       -1.22990836       6.39725370       3.53653600      -0.00245581      -0.00335214       0.00570399
C       -2.45064821       8.53615068       3.72156310       0.01389428       0.00056493       0.00246521
C        4.93003250       0.00075881       3.69793852       0.00035690       0.00904619      -0.00026337
C        3.65414929       2.07198461       3.54668280      -0.00191235       0.00326257       0.00210491
P        1.57957496       6.23053191       3.22384502      -0.00752515       0.01336149       0.00884345
C        0.01314003       8.55258729       3.64902830       0.00097821      -0.00142476      -0.00045506
C        7.38545653       0.02902674       3.79664797      -0.00271589      -0.00563624       0.00267015
C        6.15509325       2.14400647       3.52420139      -0.00246286      -0.00350257      -0.00606792
C        5.02646781       4.33594273       3.23996211       0.01099778       0.00723688       0.00761778
B        3.66295806       6.39709733       3.83579175      -0.01254736       0.00069488       0.00541337
C        2.47721727       8.62087060       3.88047812       0.00778542       0.00377378       0.01519728
C        9.86257179       0.02656975       3.99864167       0.00212344      -0.00872550      -0.00652717
C        8.61585066       2.14707099       3.77186871       0.00348875      -0.00139851      -0.00180821
C        7.41231679       4.28450170       3.54830686       0.00270920      -0.00038611      -0.00516314
C        6.20311112       6.44057743       3.66031357      -0.00570003       0.00226227       0.00513361
C        4.94967678       8.57210869       3.97210843      -0.00383348      -0.00184474      -0.00331562
C       -0.01930742       1.41735557       4.01490783       0.00045539       0.00540908      -0.00795839
C       -1.27866269       3.52931498       3.77365057      -0.01594329       0.00099153       0.00618764
C       -2.46766772       5.69196011       3.61637693       0.00252273      -0.00339648       0.00414234
C       -3.68779320       7.83390326       3.76056409       0.01179280      -0.00236929      -0.00677387
C       -4.93150120       9.96399054       3.97760134      -0.00054384       0.00257440      -0.00261864
C        2.45460312       1.39524316       3.85143173       0.00456983      -0.00602627      -0.00908266
C        1.16091380       3.52826380       3.92907933      -0.00344447      -0.00043433       0.00277260
C       -0.06072700       5.61094471       3.45837429      -0.00420594       0.00242720      -0.00327529
C       -1.21912239       7.82761522       3.60308682       0.00575473      -0.00809154       0.00825148
C       -2.46204796       9.96028892       3.78190959       0.00993803       0.00349927       0.00418841
C        4.91681531       1.42665507       3.57501757      -0.00400950       0.00585784      -0.00588968
P        3.40947049       3.70094990       2.87158672      -0.00557357      -0.01164003      -0.00502539
C        1.27376779       7.91689350       3.64868812       0.00630691       0.01326367       0.01066612
C       -0.00343302       9.98475093       3.71877386      -0.00553167      -0.00151334      -0.00340585
C        7.37907589       1.44582523       3.70493129       0.00078866      -0.00366645      -0.00597232
C        6.19102227       3.56424489       3.39773734       0.00302493       0.00065512      -0.00209944
C        4.99800164       5.71194530       3.51274089      -0.01329646       0.00979557      -0.00613851
C        3.70577389       7.91293649       3.93329449      -0.00053371      -0.00433038       0.01038349
C        2.45616622      10.02994791       3.92850664       0.00160197      -0.00119943       0.00684891
C        9.84478616       1.43648570       3.92708342       0.00136887      -0.00888335      -0.00329555
C        8.62340312       3.56490842       3.67360480       0.00024561       0.00079974      -0.00977245
C        7.42126022       5.70937706       3.61554556      -0.00112683      -0.00037687       0.00404718
C        6.18759436       7.84964573       3.86487147      -0.00246132       0.00062930       0.00118031
C        4.93435457       9.99263125       4.03502279      -0.00020041      -0.00326939      -0.00778108
Ru       2.58007074       4.79734888       4.76904314       0.00457130      -0.00045298       0.00096381
O        2.80930292       4.58752541       6.44710464       0.00874176      -0.00005585       0.00856610
