50
Lattice="12.336457 0.0 0.0 -6.168228499999997 10.683685154694365 0.0 0.0 0.0 15.0" Properties=species:S:1:pos:R:3:forces:R:3 energy=-449.1268633703215 free_energy=-449.1268633703215 stress="-0.006755083052073763 0.001512146138740874 1.2234814690440193e-05 0.001512146138740874 0.001413633849627102 -9.573665534395718e-06 1.2234814690440193e-05 -9.573665534395718e-06 -3.138514274532308e-06" pbc="T T T"
C       -0.00013889       0.01945561       3.72759630       0.00073759      -0.00921916       0.00105805
C       -1.24611472       2.12555307       3.60699717      -0.00169829       0.00209254       0.00564945
C       -2.48485284       4.27252592       3.49718300      -0.00116728      -0.00236564      -0.00509759
C       -3.70992370       6.42180526       3.55247376       0.00101594       0.00349168      -0.00191632
C       -4.93975537       8.56791188       3.68610250       0.00420961      -0.00156727       0.00153249
C        2.46643997       0.05048547       3.78754471       0.00423917       0.00758274      -0.00606968
C        1.23123337       2.19359672       3.84928484      -0.00242828       0.00608310      -0.00323117
C       -0.06177070       4.27373058       3.70276225      -0.00468506       0.00659749       0.00324620
C       -1.26977174       6.43008455       3.62081365      -0.00339822      -0.00046713       0.00477533
C       -2.48414811       8.57312052       3.67698787      -0.00804997      -0.01066719       0.00929581
C        4.93439500       0.00771555       3.75690546      -0.00661724      -0.01029795      -0.00433674
C        3.73607299       2.18506657       3.88950800       0.00375443       0.01490844      -0.00140233
C        1.15541734       6.36853822       4.00086396       0.01284889      -0.00879684       0.00277448
C       -0.01095753       8.53227195       3.78650821       0.00190147      -0.00498292       0.00663624
C        7.40323174      -0.02477708       3.71338975       0.00368464       0.00383274       0.00032469
C        6.18669743       2.11110266       3.65914912       0.00444283      -0.00412749      -0.00964812
C        5.00085029       4.21775602       3.76968510       0.00574621      -0.00210701      -0.00547150
B        3.69579795       6.34861508       4.05786179      -0.01361016      -0.01170321       0.00449830
C        2.45768842       8.52437332       3.87801391       0.00072237       0.00702068      -0.00563777
C        9.86364302      -0.01812497       3.69419817      -0.00412742       0.01795910       0.00225752
C        8.63663355       2.11797385       3.55201891      -0.00195910      -0.00465345       0.00857376
C        7.41564340       4.26448215       3.53219145       0.01413212      -0.00485487      -0.00667436
C        6.18177774       6.40616901       3.67857586       0.00037189      -0.00526228      -0.00855419
C        4.93710937       8.54752177       3.78417882      -0.00773291       0.00091748       0.00582318
C       -0.00391518       1.44297363       3.72304221      -0.00143779      -0.00620889      -0.00025203
C       -1.27215227       3.54653799       3.55324433      -0.00164108       0.00367324       0.00627352
C       -2.48575177       5.70611347       3.53038277      -0.00372146       0.00001947      -0.00836272
C       -3.71033669       7.85330162       3.62829162      -0.00239108      -0.00394186       0.00850325
C       -4.93300588      10.00103747       3.74018501       0.00832568      -0.00232795       0.00107287
C        2.47692261       1.48220625       3.87299183       0.00598080       0.01268297       0.00306233
C        1.13135157       3.59024565       3.94518363      -0.00832394       0.00414510      -0.00480747
C       -0.05199406       5.70300655       3.74022977       0.00211004       0.00589865       0.00428769
C       -1.25567786       7.84990087       3.69031610      -0.00514945      -0.00181180       0.00796252
C       -2.47699505       9.99963523       3.75022077      -0.00836231      -0.01184899      -0.00477112
C        4.94915327       1.43026448       3.76709666      -0.00075439      -0.00196186      -0.00074259
N        3.84039731       3.54821862       3.99006880      -0.00267229       0.01292907       0.00226999
C        1.22344675       7.78685346       3.90240598       0.00610052      -0.00526499      -0.00505651
C       -0.00256357       9.95588612       3.75255966       0.00275243      -0.00292107       0.00442718
C        7.41123417       1.39741626       3.62498049       0.00283730      -0.00254814      -0.00249674
C        6.21043278       3.52207486       3.61260967       0.00789508      -0.00118672      -0.01145406
C        4.99411494       5.63873940       3.79462458      -0.00187464      -0.00497855       0.00281562
C        3.69613651       7.84989569       3.89541594      -0.00629576      -0.00767740       0.00620134
C        2.46196410       9.94770389       3.75769814       0.00332445       0.01166578      -0.00833133
C        9.86248502       1.40368464       3.59777864      -0.00337262       0.01101385       0.00592621
C        8.63605288       3.54807399       3.49657417       0.00688274      -0.01216966       0.00307521
C        7.40957675       5.69604672       3.56223609       0.00734426      -0.00136590      -0.00707019
C        6.17019086       7.83993744       3.71749003      -0.00011785       0.00115460       0.00086660
C        4.93611726       9.97355059       3.72918429      -0.00995496       0.00538407       0.00223351
Ru       2.43632260       4.93790341       4.73219879       0.01071558       0.00498948      -0.00873787
O        2.54474069       4.95177063       6.47322979      -0.01053249       0.00324395       0.00469908
