51
Lattice="12.336457 0.0 0.0 -6.168228499999997 10.683685154694365 0.0 0.0 0.0 15.0" Properties=species:S:1:pos:R:3:initial_magmoms:R:1:forces:R:3 energy=-453.30727725326557 free_energy=-453.30727725326557 stress="-0.006893725125280048 -0.0014888868390769282 -1.2358442326134008e-06 -0.0014888868390769282 0.0014245917171539096 3.699509610934089e-06 -1.2358442326134008e-06 3.699509610934089e-06 -1.9776280140942177e-05" pbc="T T T"
C       -0.02907956      -0.01451318       3.73001384       0.00000000      -0.00336110      -0.00118696       0.00098430
C       -1.28763732       2.08815496       3.68094023       0.00000000       0.00180410      -0.00310312       0.00596983
C       -2.52421696       4.24194880       3.54278390       0.00000000       0.00034706      -0.00046984      -0.00261193
C       -3.73104674       6.40007556       3.50973494       0.00000000      -0.00366848       0.00305641       0.00644233
C       -4.95004721       8.54998787       3.61882522       0.00000000       0.00188263       0.00291632      -0.00331163
C        2.44137012       0.01701471       3.75722463       0.00000000      -0.00162194       0.00117719      -0.00044160
C        1.19079346       2.14713738       3.90317741       0.00000000       0.00198133       0.00072342       0.00178827
C       -0.11431784       4.22665398       3.83313215       0.00000000      -0.00089479      -0.00120838       0.00291920
C       -1.30081633       6.39492777       3.68128406       0.00000000      -0.00144748      -0.00055788       0.00207358
C       -2.49454360       8.54523180       3.66265898       0.00000000       0.00002352       0.00243843      -0.00076829
C        4.90651162      -0.00663580       3.71755731       0.00000000       0.00157744       0.00002110      -0.00164998
C        3.67483310       2.16265757       3.80293510       0.00000000       0.00073430      -0.00056399      -0.00423822
B        1.17966605       6.32493946       4.11240989       0.00000000       0.00281126      -0.00082612      -0.00079248
C       -0.03015643       8.52113857       3.79342674       0.00000000      -0.00132811      -0.00100538       0.00083033
C        7.37812505      -0.04410758       3.69307626       0.00000000       0.00164518       0.00020119      -0.00124561
C        6.14591669       2.10701831       3.59921662       0.00000000      -0.00155415       0.00029626      -0.00072930
C        4.93838438       4.26903366       3.60930209       0.00000000      -0.00048097       0.00086771       0.00158483
N        3.78956947       6.37688572       3.82036990       0.00000000       0.00045689      -0.00293601       0.00272570
C        2.45556283       8.48605420       3.83380379       0.00000000       0.00271429       0.00064483       0.00067853
C        9.83674003      -0.05016148       3.69267975       0.00000000      -0.00095613       0.00279773      -0.00200802
C        8.59970024       2.09482782       3.56297866       0.00000000      -0.00184297      -0.00003543      -0.00211318
C        7.37519503       4.25165225       3.46602615       0.00000000      -0.00166749      -0.00153980      -0.00041800
C        6.16972979       6.41790940       3.50588684       0.00000000       0.00061385       0.00039343       0.00086760
C        4.91904693       8.50854256       3.69784336       0.00000000       0.00233366      -0.00110865       0.00040583
C       -0.04165190       1.40552816       3.77730298       0.00000000       0.00222655      -0.00200983       0.00339210
C       -1.31690733       3.50631908       3.65259908       0.00000000       0.00083191      -0.00315980      -0.00212133
C       -2.52020772       5.67449695       3.55189922       0.00000000      -0.00311070       0.00189522      -0.00035654
C       -3.72377899       7.83008717       3.58453758       0.00000000       0.00046006       0.00345237       0.00171171
C       -4.95456459       9.97552913       3.71064221       0.00000000      -0.00231826       0.00143099      -0.00174714
C        2.43602118       1.44674109       3.85185090       0.00000000       0.00097496       0.00098297      -0.00126571
C        1.11573193       3.55824525       4.06137144       0.00000000      -0.00111771       0.00014619      -0.00201029
C       -0.13102659       5.63188198       3.83775625       0.00000000       0.00059673      -0.00036552       0.00185591
C       -1.26965925       7.82202227       3.71487070       0.00000000      -0.00209640      -0.00058696       0.00467475
C       -2.49782653       9.97501338       3.71696673       0.00000000      -0.00005352       0.00209826      -0.00210493
C        4.90974847       1.41771855       3.70299735       0.00000000       0.00004432      -0.00075081      -0.00513423
C        3.74303240       3.58177041       3.85160145       0.00000000       0.00149477      -0.00179909       0.00227153
C        1.21364202       7.81834359       3.90871381       0.00000000       0.00138472       0.00017563      -0.00599206
C       -0.02957935       9.94763433       3.72934398       0.00000000       0.00176552      -0.00044881       0.00356611
C        7.37502101       1.38137973       3.60340830       0.00000000      -0.00188925       0.00036054       0.00231082
C        6.15697361       3.53330147       3.52061010       0.00000000      -0.00182487      -0.00011407      -0.00188468
C        4.94834460       5.71136499       3.58940634       0.00000000       0.00076299      -0.00010189      -0.00078783
C        3.70257181       7.75071105       3.79665592       0.00000000       0.00222158      -0.00228154      -0.00026680
C        2.44537543       9.91424404       3.73320053       0.00000000       0.00199440       0.00143580      -0.00290770
C        9.82497329       1.37309871       3.63192461       0.00000000      -0.00089653       0.00157532      -0.00037984
C        8.59342219       3.52575832       3.49908649       0.00000000      -0.00024417      -0.00050054      -0.00263941
C        7.38092793       5.68423645       3.46647901       0.00000000      -0.00210508      -0.00054632       0.00119521
C        6.15831974       7.83068623       3.59784267       0.00000000       0.00362422       0.00087917       0.00093608
C        4.90758688       9.93318890       3.70977465       0.00000000      -0.00341783      -0.00032413      -0.00160709
Ru       2.47369742       4.88515554       4.64588921       0.00000000       0.00218129      -0.00083228      -0.01717973
O        3.83992969       5.53583719       6.68602114       1.00000000       0.00133843       0.00127406       0.00840145
O        2.55857006       5.25089591       6.51288471       1.00000000      -0.00292999      -0.00287735       0.01112751
