51
Lattice="12.336457 0.0 0.0 -6.168228499999997 10.683685154694365 0.0 0.0 0.0 15.0" Properties=species:S:1:pos:R:3:forces:R:3 energy=-458.0715746869068 free_energy=-458.0715746869068 stress="-0.004610063249532537 2.2585865931580587e-06 4.607192419394852e-07 2.2585865931580587e-06 -0.0008458809345278999 2.6052143346647385e-05 4.607192419394852e-07 2.6052143346647385e-05 -4.035084837490811e-06" pbc="T T T"
C       -0.00430775      -0.00491651       3.61181545       0.00005657       0.00371304      -0.00042532
C       -1.24239464       2.13127109       3.64546918       0.00562186       0.00171954       0.00361014
C       -2.47397210       4.27051663       3.63209871       0.00458622      -0.00015787      -0.00162120
C       -3.70186967       6.41123463       3.60005152       0.00008270      -0.00689807      -0.00842204
C       -4.93292386       8.55084991       3.59620243      -0.00221365      -0.00071176      -0.00852004
C        2.46643004       0.00842671       3.63078835      -0.00015349       0.01243497       0.00377774
C        1.21905080       2.12525425       3.77610457      -0.00007608       0.00613138       0.00291957
C       -0.02526499       4.28397114       3.86250448      -0.00152648       0.00312802       0.00595931
C       -1.24748035       6.41775352       3.69263595       0.00493742      -0.00071197      -0.00188772
C       -2.47072870       8.55086988       3.59532145       0.00220946      -0.00072438      -0.00795561
C        4.93714068      -0.00487340       3.61289095      -0.00016126       0.00363891      -0.00066098
C        3.71377211       2.12523424       3.77811217       0.00001171       0.00614848       0.00208881
B        2.46601909       4.16779529       4.31850183       0.00012814      -0.01870219      -0.00393969
N        1.10904523       6.46973005       4.08862304      -0.00027113       0.00104716      -0.00110985
C       -0.00987303       8.53766501       3.66739339       0.00232029      -0.00343456      -0.00264233
C        7.40509723      -0.01982918       3.62404677      -0.00408733      -0.00378862      -0.00723716
C        6.17524077       2.13128901       3.64851424      -0.00571145       0.00175947       0.00297901
C        4.95806548       4.28396851       3.86633866       0.00168410       0.00309871       0.00549015
N        3.82366009       6.46995159       4.09091602       0.00018056       0.00088502      -0.00175644
C        2.46640502       8.50256999       3.78862102       0.00002469       0.00402090       0.00849621
C        9.86417593      -0.01986300       3.62340931       0.00425194      -0.00374709      -0.00738035
C        8.63463016       2.12664591       3.59737368      -0.00013043      -0.00350711       0.01058333
C        7.40672584       4.27050465       3.63450969      -0.00451850       0.00000516      -0.00255961
C        6.18031132       6.41776874       3.69589831      -0.00488284      -0.00072022      -0.00262113
C        4.94270458       8.53765527       3.66867171      -0.00222603      -0.00349159      -0.00254891
C       -0.01055573       1.41560637       3.66031049       0.00478771       0.00513401       0.00113134
C       -1.24710540       3.56152314       3.69431807       0.00304098       0.00048007       0.00456902
C       -2.47215025       5.69679734       3.63012128       0.00600943      -0.00113716      -0.00437743
C       -3.70183618       7.83628831       3.59053112       0.00002155      -0.00490247      -0.00720221
C       -4.93537979       9.97629829       3.60358023       0.00007266       0.00517096       0.00308965
C        2.46642156       1.42973707       3.73798557      -0.00005711       0.01382798       0.00009601
C        1.16652622       3.53724257       3.95540711      -0.00894594      -0.00039387       0.01000435
C       -0.02757000       5.72100905       3.88258965       0.00355241      -0.00005105      -0.00097182
C       -1.24363761       7.83546307       3.64469409       0.00425354      -0.00225246      -0.00525196
C       -2.46823008       9.97631608       3.60378815      -0.00031816       0.00517393       0.00264699
C        4.94341501       1.41560855       3.66282906      -0.00486545       0.00509523       0.00061486
C        3.76620262       3.53717259       3.95798375       0.00901050      -0.00038221       0.00934139
C        1.20386796       7.81893646       3.82798557       0.00347937       0.00035623       0.00314229
C        0.00193626       9.96103719       3.61940117      -0.00253857      -0.00458404      -0.00377908
C        7.40476959       1.41050974       3.60736013      -0.00565694      -0.00291690       0.00046111
C        6.17993236       3.56151812       3.69809673      -0.00292884       0.00055627       0.00356789
C        4.96040093       5.72106689       3.88619614      -0.00355521      -0.00008865      -0.00180589
C        3.72893312       7.81896284       3.82925232      -0.00346879       0.00033010       0.00301701
C        2.46641053       9.93448028       3.66293014       0.00012136       0.00357151       0.00408712
C        9.86450627       1.41047584       3.60580745       0.00547511      -0.00284827       0.00112222
C        8.63459166       3.55370695       3.60282547      -0.00003073       0.00053234       0.00297120
C        7.40489823       5.69679421       3.63228657      -0.00587297      -0.00100034      -0.00462762
C        6.17646327       7.83545120       3.64681143      -0.00417403      -0.00229860      -0.00602227
C        4.93088172       9.96098590       3.61912818       0.00263171      -0.00462933      -0.00389490
Ru       2.46533073       5.82860999       5.39964939       0.00017779      -0.00187313       0.00723554
O        2.46512867       5.81322212       7.13026770      -0.00035839      -0.01200548      -0.00378071
