53
Lattice="12.336457 0.0 0.0 -6.168228499999997 10.683685154694365 0.0 0.0 0.0 15.0" Properties=species:S:1:pos:R:3:forces:R:3 energy=-466.759771564823 free_energy=-466.759771564823 stress="-0.00397844748930305 -0.000149481249120864 5.816094550586004e-06 -0.000149481249120864 -0.000728503581570435 5.281850937228236e-06 5.816094550586004e-06 5.281850937228236e-06 8.657877569620647e-06" pbc="T T T"
C        0.10551997      -0.00682353       3.65573067       0.00143585      -0.00333493      -0.00374303
C       -1.13328576       2.12846106       3.69941959      -0.00106152      -0.00000591      -0.00094202
C       -2.36447225       4.26716264       3.67270566      -0.00011828      -0.00019499       0.00020736
C       -3.59187233       6.40696584       3.62457108      -0.00662591       0.00480467      -0.00395177
C       -4.82209917       8.54811567       3.62020694      -0.00342795      -0.00042694      -0.00166959
C        2.57642813       0.00650974       3.67928750      -0.00511869       0.00012763       0.00695323
C        1.32811772       2.12141024       3.84050779       0.00044124      -0.00057382      -0.00484373
C        0.08517053       4.27849377       3.91006301       0.00377008       0.00303774      -0.00818784
C       -1.13574376       6.41312944       3.71579308      -0.00351799       0.00180014       0.00410776
C       -2.36025363       8.54760770       3.62631839       0.00128359      -0.00487211      -0.00068655
C        5.04590020      -0.00676893       3.67968957      -0.00612677       0.00114285      -0.00624635
C        3.82033967       2.12378600       3.85668580       0.00730648      -0.00492621       0.00691333
B        2.56833789       4.17049180       4.42009878      -0.00497000       0.00178967       0.00018136
N        1.21818567       6.46309492       4.14665073       0.00594882      -0.00881206       0.00133607
C        0.09888460       8.53455054       3.71967917       0.00651492       0.01091224       0.00173029
C        7.51239084      -0.02148790       3.69723418       0.00803067       0.00300832      -0.01384006
C        6.28170513       2.13023910       3.72935015       0.00705087       0.00284728      -0.00699484
C        5.06306861       4.28281814       3.94702539      -0.01011852      -0.00238412      -0.00708388
N        3.93659691       6.47466446       4.17612275       0.00577287       0.00105062      -0.00136221
C        2.57648596       8.50365994       3.85198388      -0.00363718      -0.00193488      -0.00473320
C        9.97321931      -0.02132625       3.67961268       0.00435159      -0.00050205       0.00156010
C        8.74224004       2.12448303       3.66439805      -0.00136983      -0.00225831      -0.00120175
C        7.51345329       4.26799459       3.68974110      -0.00138724      -0.00002555      -0.00140936
C        6.28821785       6.41591429       3.73296211       0.00322235      -0.00057953       0.00318591
C        5.05438839       8.53682550       3.70861563      -0.00334421      -0.00058828      -0.00710390
C        0.09871864       1.41311407       3.71404458      -0.00108894      -0.00335844       0.00016659
C       -1.13825008       3.55763645       3.73961224       0.00357017       0.00214847       0.00213289
C       -2.36072550       5.69301303       3.65715143      -0.00824232       0.00312873       0.00402743
C       -3.59111614       7.83223594       3.61238298      -0.00360269       0.00216233      -0.00257107
C       -4.82509964       9.97410492       3.64051409      -0.00225087      -0.00215343       0.00102276
C        2.57532833       1.42708880       3.80235134       0.00305994      -0.00006204       0.01280816
C        1.27380010       3.53040545       4.03020401       0.00095711      -0.00029975      -0.00823925
C        0.08625799       5.71451758       3.91205332      -0.00093764      -0.00007214      -0.00210741
C       -1.13392159       7.83139180       3.67772576       0.00715120       0.00364167       0.01408221
C       -2.35820900       9.97383197       3.65238164      -0.00828642      -0.00492610       0.00092785
C        5.05015575       1.41422188       3.74124257       0.00900025      -0.00071586      -0.00206096
C        3.87237667       3.53497105       4.04930301      -0.00767917      -0.00558829       0.00364694
C        1.31425473       7.81558952       3.88536806      -0.00034974      -0.00189638       0.00516207
C        0.11029358       9.95788268       3.68609640       0.00191835       0.01287711      -0.00425471
C        7.51149749       1.40900016       3.68395068       0.00380204      -0.00077667      -0.00405343
C        6.28630200       3.56026434       3.77196112      -0.00368250       0.00256095       0.00518164
C        5.06327823       5.72303804       3.95080170       0.00509552      -0.00214011       0.00594174
C        3.84153390       7.81738011       3.89179951      -0.00256569       0.00188048       0.00650465
C        2.57484088       9.93494655       3.72706936       0.00563006      -0.00061993       0.00044979
C        9.97291745       1.40834930       3.66523684      -0.00168019      -0.00106413      -0.00051106
C        8.74224699       3.55152775       3.65698989      -0.00060681      -0.00273476       0.00694629
C        7.51223604       5.69445073       3.66901080       0.00006992       0.00015913       0.00045663
C        6.28677371       7.83270481       3.67429851      -0.00277327      -0.00025687       0.00510069
C        5.04048213       9.95912142       3.66294339       0.00292664      -0.00151032       0.00315036
Ru       2.54118843       5.83221934       5.47974922      -0.00085795       0.00100596      -0.00021339
O        1.98082688       5.82283157       7.21938109       0.00171278      -0.00416907      -0.01181202
O        0.47851033       5.97544208       7.21380227      -0.00283530       0.00945072       0.00127521
H        0.32797694       5.69920017       8.14259724      -0.00175970      -0.00577272       0.00466410
