50
Lattice="12.336457 0.0 0.0 -6.168228499999997 10.683685154694365 0.0 0.0 0.0 15.0" Properties=species:S:1:pos:R:3:forces:R:3 energy=-438.5234559777363 free_energy=-438.5234559777363 stress="-0.006503048205025703 0.005352391893359624 -3.474206258105113e-07 0.005352391893359624 -0.004755421469333904 1.967722484843835e-05 -3.474206258105113e-07 1.967722484843835e-05 2.4263900391117268e-06" pbc="T T T"
C       -0.00647884      -0.00459238       3.76135682      -0.00264235      -0.00908485      -0.00575738
C       -1.20779531       2.16048762       3.83015906      -0.00337947      -0.00797990      -0.00782868
C       -2.43612436       4.28612839       3.63914290      -0.00589317       0.00633731      -0.00684992
C       -3.69669033       6.41240881       3.46850232       0.00717065      -0.00116130       0.00369489
C       -4.96683143       8.53841940       3.53184815       0.00754969       0.00822952      -0.00636012
C        2.45304492      -0.02103274       3.73788407      -0.01032565      -0.00244556       0.00336754
C        1.25694109       2.12031008       3.97296542       0.00859839      -0.00434847      -0.00048100
C       -0.00950376       4.37677771       3.93361076      -0.00131911       0.00601902      -0.01018780
C       -1.26434779       6.45187571       3.63906122       0.00826250       0.00756646       0.00996436
C       -2.49022384       8.55389839       3.57647586      -0.01153506       0.00016952       0.00441867
C        4.93174406      -0.00766053       3.71842042      -0.00184639       0.00794922       0.00241152
C        3.71294667       2.06967805       3.91092214      -0.00369062       0.00163797      -0.00078504
O        1.02951079       6.54094167       4.22356576      -0.00743816      -0.00011361       0.00424209
C       -0.03249999       8.55955896       3.72519510       0.00043069      -0.00713554      -0.01096283
C        7.40447859      -0.00431185       3.78825590       0.01201734       0.00181006       0.00083737
C        6.20327146       2.11316586       3.73138422      -0.00176221       0.00955446       0.00783124
C        5.04629467       4.26139080       3.63864542       0.00139721      -0.01319967       0.00709551
S        3.44981979       6.20100594       3.18493189       0.00695762      -0.00648469      -0.00537196
C        2.41676179       8.53602891       3.83275338      -0.00519455       0.00022357      -0.00540681
C        9.87232285      -0.00245002       3.80735774       0.00464687      -0.00007984      -0.01482581
C        8.66683776       2.13548415       3.71959058      -0.01116899      -0.00093391       0.00703750
C        7.45561734       4.26093819       3.52450016       0.00592631      -0.00061798       0.00384209
C        6.19517366       6.40720377       3.35059885       0.00154874       0.00223411      -0.00571871
C        4.89572760       8.52397308       3.59417482      -0.00208237       0.00496812      -0.00265132
C        0.01546090       1.43145303       3.86786704       0.00537344      -0.01015779       0.00344488
C       -1.20512720       3.59549711       3.79591102      -0.00713578       0.00208693      -0.00285443
C       -2.46630487       5.70438242       3.55844871       0.00862169       0.00818257       0.01257407
C       -3.72360174       7.83657378       3.50411718      -0.00203914      -0.00275226      -0.00442258
C       -4.95307415       9.96137956       3.67664410      -0.00512589       0.00090333      -0.00637445
C        2.46914950       1.39537740       3.89394185       0.00403671      -0.00756729       0.00702137
B        1.28633060       3.62982029       4.15484991       0.00931827       0.00737919       0.00296544
C       -0.07476052       5.78269546       3.88441380       0.00466334       0.00778814       0.00608601
C       -1.26834153       7.85997510       3.62496100      -0.00762732       0.00381653      -0.00032893
C       -2.48115811       9.97250080       3.66794081      -0.01119731       0.00197280       0.00894769
C        4.95454593       1.40540759       3.78592406      -0.00330599       0.01275303      -0.00130752
B        3.78206774       3.55361479       4.06139844      -0.00277282      -0.00567322       0.01482908
C        1.15050928       7.87015058       3.87632331      -0.00545288      -0.00774883       0.00613282
C       -0.00359372       9.98114181       3.72986840       0.00682528       0.00016740      -0.00388420
C        7.42884714       1.41697238       3.74052682      -0.00688443       0.00309235       0.01153157
C        6.24714783       3.52517940       3.62564557       0.00644533       0.00276868       0.00265740
C        5.04295856       5.62208740       3.35033835       0.00195533      -0.01145362      -0.00345743
C        3.64163679       7.86360475       3.61643967      -0.00808545       0.00375179      -0.00812163
C        2.45785558       9.96674783       3.83242174       0.01213413       0.00185437      -0.00537459
C        9.89545626       1.43271601       3.79136663      -0.00981342      -0.00281464      -0.00911159
C        8.67863512       3.55670319       3.61704767      -0.00145574      -0.00278450      -0.00208965
C        7.43214633       5.68346105       3.42478837       0.00610435      -0.00054957       0.00296955
C        6.13951777       7.82568366       3.46104370       0.00790689       0.01147855      -0.00090367
C        4.92488119       9.96430118       3.73437368      -0.00013114      -0.00311458      -0.00207575
Ru       2.65944042       4.89348159       5.02102721      -0.00316271      -0.00650193       0.00743361
O        2.71422886       5.12848785       6.71987375       0.00457737      -0.00999149      -0.00784246
