51
Lattice="12.336457 0.0 0.0 -6.168228499999997 10.683685154694365 0.0 0.0 0.0 15.0" Properties=species:S:1:pos:R:3:forces:R:3 energy=-458.80324043170344 free_energy=-458.80324043170344 stress="-0.005111507705717424 -0.0010603866771312714 7.950742672077413e-06 -0.0010603866771312714 -0.001390502346357282 -7.341891214105439e-07 7.950742672077413e-06 -7.341891214105439e-07 4.935419683796431e-07" pbc="T T T"
C       -0.00102100      -0.00292535       3.60043639      -0.00188370      -0.00217721      -0.00857600
C       -1.24771944       2.12533957       3.62818596      -0.00668970      -0.00079578       0.00161169
C       -2.48116310       4.26675376       3.62026748      -0.00747836       0.00464562       0.00678304
C       -3.69995711       6.41187676       3.59136001      -0.00030780      -0.00711490      -0.01125134
C       -4.92624119       8.55404709       3.58689216       0.00696670       0.00285918      -0.00842051
C        2.47034325       0.01193771       3.64103995      -0.00340617      -0.01173942      -0.00704320
C        1.21651903       2.12578911       3.76318713       0.00886101       0.00102172       0.00804313
C       -0.04112270       4.26005329       3.85714319       0.00144996      -0.00870051       0.00029746
C       -1.25027381       6.40951516       3.71634826       0.01087179       0.00842779       0.00416545
C       -2.46539513       8.55181264       3.61500011      -0.01728420       0.00273094      -0.00142214
C        4.93810022      -0.00264748       3.64249826       0.00912322       0.00332532      -0.00542677
C        3.71001930       2.13822771       3.78174502      -0.00918521       0.00120320       0.00277825
B        2.44551356       4.23361388       4.24612234      -0.00195702       0.00485701      -0.00536394
C        1.14996686       6.43499916       4.14076997      -0.01317626       0.00204290      -0.00841576
C       -0.00052346       8.53902766       3.71591594       0.00205774      -0.00941954       0.01000282
C        7.40436087      -0.01660081       3.63976840      -0.00110353       0.00677599       0.00203407
C        6.17041152       2.13422863       3.65883629       0.01237384       0.00004352      -0.00356461
C        4.95159611       4.28957886       3.84743354       0.00211619      -0.01501667       0.00081818
N        3.82779765       6.47923051       4.07648281       0.00752166       0.00173295       0.00533201
C        2.48005568       8.51959646       3.80390261      -0.00233847       0.01301377       0.00129272
C        9.86569438      -0.01747219       3.61063466      -0.00001560      -0.00290134       0.00145841
C        8.62960596       2.12635204       3.59612306      -0.00081285      -0.00390238      -0.01916514
C        7.40187094       4.27241293       3.62192586      -0.00001589       0.00309694       0.00157607
C        6.18203622       6.42194462       3.66955175      -0.00263829       0.01149933       0.00015079
C        4.95181834       8.54272487       3.65090140       0.00260100      -0.00464608       0.00977216
C       -0.01198177       1.41530159       3.64601239       0.00305861       0.00291586       0.00807309
C       -1.25986712       3.54905103       3.67994276      -0.00865463       0.00028307       0.00761676
C       -2.47429455       5.69480702       3.62767393       0.00983795       0.00741052       0.00443032
C       -3.69511606       7.83834531       3.58916999      -0.00741408      -0.00935260       0.00159391
C       -4.93030612       9.97924229       3.60287731      -0.00176500      -0.00352236      -0.01229982
C        2.46674969       1.43369904       3.73672332      -0.00107063      -0.01336573       0.00768451
C        1.15725489       3.53119013       3.93637623       0.01180394       0.00456389      -0.00213474
C       -0.02907859       5.68941779       3.90220394       0.00394828      -0.00740622       0.00047587
C       -1.23710394       7.83383272       3.68097783      -0.00932009       0.00938585      -0.00135966
C       -2.46480490       9.97652868       3.62628545      -0.00037199       0.00172898       0.00540555
C        4.94004415       1.42061036       3.68195728       0.00369063       0.00935381       0.00062706
C        3.75368946       3.55528083       3.94100401      -0.01435029       0.00467295      -0.00292482
C        1.23527471       7.81883281       3.87218088       0.00443907      -0.00616760      -0.00121327
C        0.00278641       9.96029503       3.65256616       0.00795850      -0.00844921       0.00726054
C        7.40013241       1.41202944       3.61626411       0.00536937       0.00061705       0.00092643
C        6.17415117       3.56483248       3.69194325       0.00880967      -0.00597763      -0.00137017
C        4.96026812       5.72955344       3.85921625       0.00633262      -0.00846076       0.00118551
C        3.73864925       7.82630696       3.82574564      -0.00311439       0.00418989      -0.00396505
C        2.46998221       9.94382233       3.66582014      -0.00443339       0.01309936       0.00301490
C        9.86010956       1.40921023       3.59314265      -0.00433727      -0.00571306       0.00037802
C        8.62815490       3.55338430       3.59349349      -0.00557869      -0.00254565       0.00023559
C        7.40523628       5.69891956       3.61328200      -0.00731341       0.00519832      -0.00342605
C        6.18134237       7.83972438       3.62489994       0.01052482       0.01198546      -0.00123841
C        4.93500343       9.96298251       3.60259047      -0.00084885      -0.00895496       0.00573960
Ru       2.49611822       5.83254394       5.43646419       0.00324783       0.00740010      -0.00455494
O        2.41004716       5.72242566       7.14653913      -0.00609865      -0.00375167       0.00237241
