50
Lattice="12.336457 0.0 0.0 -6.168228499999997 10.683685154694365 0.0 0.0 0.0 15.0" Properties=species:S:1:pos:R:3:forces:R:3 energy=-440.7203053594636 free_energy=-440.7203053594636 stress="-0.007230045641477335 0.004024007839231151 5.188151126372022e-06 0.004024007839231151 -0.005393160938407776 -2.807774128082518e-06 5.188151126372022e-06 -2.807774128082518e-06 -5.499939305605848e-06" pbc="T T T"
C       -0.01528962       0.01075312       3.61187897      -0.00359758      -0.00113747       0.00315971
C       -1.23712192       2.15717147       3.50740885       0.00439466       0.00475098      -0.00047209
C       -2.50470925       4.29404350       3.52395562      -0.00219250      -0.00151438      -0.00097150
C       -3.74393263       6.42503812       3.55959389       0.00012775       0.00293889      -0.00028938
C       -4.97029202       8.55121463       3.63287093      -0.00283021      -0.00329098      -0.00288822
C        2.45462629      -0.01451878       3.64278470      -0.00504012      -0.00091255       0.00087551
C        1.26178884       2.10767995       3.59574615       0.00500148      -0.00095296       0.00822490
C       -0.11743188       4.36012650       3.82563555       0.00812468      -0.00598840      -0.00146406
C       -1.34252437       6.44498680       3.97336036       0.00053533      -0.00244479      -0.00375151
C       -2.49985856       8.55738720       3.73472817      -0.00517431      -0.00184614      -0.00426401
C        4.92839107      -0.00323336       3.64142509      -0.00407239      -0.00296667       0.00417857
C        3.72258193       2.11658628       3.70052452       0.00128866       0.00537305      -0.00264340
P        1.20159467       6.39540411       5.09009275       0.01010958      -0.00949517      -0.00832334
C       -0.03618662       8.58036153       3.99258917      -0.00016723       0.00406950       0.00083038
C        7.39556608       0.00610812       3.64052999       0.00548949       0.00583888       0.00369161
C        6.17802466       2.12420327       3.46862614      -0.00260364      -0.00273250      -0.00320533
C        4.96425145       4.25061857       3.61562261       0.00114998      -0.00116415      -0.00097226
B        3.69424342       6.34205487       4.24678542      -0.00089464      -0.01013111       0.00697585
C        2.45142966       8.59720481       4.04341436       0.00081510       0.00158855      -0.00156254
C        9.86174533       0.01493915       3.62784288       0.00001720       0.01006202       0.00306213
C        8.63418343       2.14081637       3.43376655      -0.00069951      -0.00109953      -0.00534142
C        7.39075567       4.27827499       3.39290911       0.00143890      -0.00019646       0.00271947
C        6.14853890       6.41326442       3.61163838       0.00268696      -0.00069410      -0.00190636
C        4.90343795       8.55026625       3.80756962      -0.00261600       0.00083861       0.00009253
C        0.00197214       1.44565903       3.56130475       0.00386799       0.00056847       0.00447578
C       -1.27234944       3.58413146       3.57380906       0.00181869       0.00208822      -0.00042648
C       -2.52585258       5.71700941       3.65299032      -0.00311694      -0.00107736       0.00230350
C       -3.73774870       7.84595381       3.63712607      -0.00280391      -0.00005687      -0.00268521
C       -4.95842688       9.97445003       3.63303189      -0.00489700      -0.00391133      -0.00505888
C        2.47638129       1.40188386       3.66178400       0.00449197       0.00102197       0.00712515
P        1.52496865       3.85385458       3.48153831       0.00303374      -0.00291742      -0.00130645
C       -0.19757087       5.68939361       4.26007794       0.00488241      -0.00414474      -0.00925215
C       -1.28668403       7.86348825       3.93584777      -0.00212568       0.00077702      -0.00568134
C       -2.48201155       9.97269995       3.67330906      -0.00695225      -0.00292073      -0.00230724
C        4.94679145       1.41397494       3.58473481      -0.00394869      -0.00233145      -0.00734772
C        3.78620708       3.51982829       3.89301402      -0.00323155       0.00718715       0.01104770
C        1.20101709       7.95897619       4.27923364       0.00045278      -0.00253008      -0.00293652
C       -0.01253218       9.98222177       3.73108606       0.00310964       0.00680547       0.00995986
C        7.40710571       1.41975665       3.47834569      -0.00046454       0.00182865      -0.00096207
C        6.17944113       3.54415098       3.41488602       0.00079076      -0.00210408      -0.00120834
C        4.96131163       5.65693068       3.75683475       0.00392714      -0.00221784      -0.00386369
C        3.67353806       7.86239515       4.04804941      -0.00117548      -0.00449165      -0.00472069
C        2.45993010       9.99728112       3.75058328       0.00416052       0.00509463      -0.00380129
C        9.87074398       1.43736946       3.49721536       0.00219191       0.00755918      -0.00297929
C        8.62187770       3.56897037       3.40723009      -0.00162077      -0.00377532       0.00103620
C        7.37492590       5.70431550       3.47234358       0.00344744       0.00115127       0.00318153
C        6.13521558       7.83812708       3.68706740      -0.00156843      -0.00094745       0.00187258
C        4.91994903       9.98231422       3.67920150      -0.00510386       0.00378958       0.00507476
Ru       2.74230989       4.72029261       5.25871527      -0.00492414      -0.00365417       0.00824612
O        3.02207463       4.29955018       6.90512998      -0.00553338       0.01031576       0.00445892
