51
Lattice="12.336457 0.0 0.0 -6.168228499999997 10.683685154694365 0.0 0.0 0.0 15.0" Properties=species:S:1:pos:R:3:initial_magmoms:R:1:forces:R:3 energy=-444.52696811815474 free_energy=-444.52696811815474 stress="-0.005836335380860204 -0.0043945802923894845 -3.1729358747918115e-06 -0.0043945802923894845 -0.004580361406616606 2.8791983158553815e-05 -3.1729358747918115e-06 2.8791983158553815e-05 -9.572451166803438e-06" pbc="T T T"
C        0.02455166      -0.00037522       3.80753193       0.00000000       0.00124351      -0.00857280      -0.00678620
C       -1.24179107       2.12698768       3.98807609       0.00000000      -0.00231381       0.00467131      -0.00040313
C       -2.46845941       4.28132813       3.70907967       0.00000000      -0.01488439      -0.00929740      -0.00184691
C       -3.64677644       6.43321249       3.45071744       0.00000000       0.01791413       0.00350517      -0.00147945
C       -4.87561254       8.57884019       3.52429934       0.00000000      -0.00280898       0.00296265      -0.00213021
C        2.50593379      -0.02031211       3.83874614       0.00000000       0.00436727       0.00250490      -0.00647531
C        1.24576017       2.00952860       4.37790024       0.00000000       0.00561191      -0.01137217      -0.00048354
C       -0.16817739       4.32353177       4.40140557       0.00000000       0.00033142       0.01209646       0.01115194
C       -1.23041906       6.42934908       3.78934498       0.00000000      -0.00844062      -0.00118879       0.01682908
C       -2.41427533       8.55850748       3.62466447       0.00000000      -0.00259580      -0.00162660       0.00224388
C        4.96622124       0.01840779       3.67841626       0.00000000      -0.00694143      -0.00699676      -0.00256403
C        3.67919090       2.10668514       3.76921285       0.00000000       0.00771581       0.00432019      -0.01152342
B        1.26728887       6.40254141       4.23163012       0.00000000      -0.00593977      -0.00034590      -0.00747009
C        0.04502799       8.55789933       3.75777310       0.00000000      -0.00395699       0.00567363       0.00839187
C        7.42953921       0.01099789       3.62689554       0.00000000       0.00833819       0.01100774      -0.00672159
C        6.17174631       2.16565913       3.48921225       0.00000000      -0.00853163      -0.00063120      -0.00218313
C        5.03566158       4.38883934       3.30375252       0.00000000       0.00829144       0.00653926      -0.01212320
N        3.89707007       6.46282114       3.68781355       0.00000000      -0.00640177       0.00374662       0.00889342
C        2.52443584       8.54596878       3.74071419       0.00000000       0.00384537      -0.01133823       0.01534631
C        9.89378264       0.00715312       3.67546185       0.00000000       0.00007410      -0.00324855       0.01086340
C        8.64819167       2.14847796       3.59955534       0.00000000      -0.00111907       0.00194181      -0.00129745
C        7.44350709       4.30142331       3.36526635       0.00000000       0.00370810       0.00027493       0.00047734
C        6.26775614       6.48668756       3.27688674       0.00000000       0.00438184      -0.00154443       0.00350955
C        4.99386129       8.57215165       3.53134598       0.00000000       0.00050501       0.00285084      -0.00248845
C       -0.00047432       1.39840495       4.08427127       0.00000000      -0.00242525      -0.01095311      -0.00033663
C       -1.28913174       3.55306852       4.04485331       0.00000000      -0.00396823       0.01379367      -0.00135752
C       -2.44413114       5.70876380       3.62710695       0.00000000       0.00186027      -0.01251126       0.00750434
C       -3.64402446       7.85635878       3.51448729       0.00000000       0.00152283       0.00677551      -0.00627517
C       -4.89987829       9.97872044       3.73628784       0.00000000       0.00480722      -0.00049483      -0.00366392
C        2.49083104       1.37896005       4.05270974       0.00000000       0.00616136       0.00363521      -0.01124097
P        1.26054273       3.58056896       5.10164698       0.00000000       0.00439953      -0.01327518       0.00779099
C       -0.07835899       5.69668976       4.14242496       0.00000000      -0.00287737       0.00957608       0.00515121
C       -1.18768374       7.84665153       3.70938118       0.00000000      -0.00496948      -0.00117097       0.00977783
C       -2.42228925       9.97820734       3.70584873       0.00000000      -0.00465925      -0.00484403      -0.00580377
C        4.93966503       1.45971927       3.63115370       0.00000000      -0.00397064      -0.00668600      -0.00057869
S        3.44193278       3.76974971       3.28735299       0.00000000      -0.01102419       0.00545586      -0.01319156
C        1.29472822       7.86826042       3.87965488       0.00000000      -0.00485697      -0.00127126       0.00969563
C        0.03308677       9.98563629       3.66874711       0.00000000       0.00223492       0.01062430      -0.00460588
C        7.40815798       1.44433676       3.55099654       0.00000000      -0.00198794       0.01261197      -0.00270366
C        6.19752301       3.59359896       3.35200669       0.00000000       0.00510454       0.00058653      -0.00636319
C        5.04215228       5.80165460       3.34762152       0.00000000      -0.00530940       0.00495036       0.00486413
C        3.78100190       7.82697660       3.65267249       0.00000000       0.00449531       0.00056559       0.00360573
C        2.50276841       9.97636389       3.65387413       0.00000000       0.00466880      -0.00924464      -0.00144984
C        9.88167816       1.43167228       3.74154238       0.00000000      -0.00166804       0.00150647       0.00139147
C        8.65226055       3.57344161       3.53477519       0.00000000      -0.01060683      -0.00748081      -0.00180102
C        7.46596377       5.72739121       3.32110966       0.00000000       0.01722817       0.00330583       0.00082235
C        6.23485755       7.88933000       3.41283524       0.00000000      -0.00265795       0.00011502      -0.00131299
C        4.96506088       9.98372608       3.65918892       0.00000000      -0.00019851      -0.00099207       0.00018303
Ru       2.78366875       5.21813708       4.91818765       0.00000000       0.00492475       0.00189710       0.00110492
O        1.38853355       3.78443540       6.71296707       1.00000000      -0.00128499      -0.01089726      -0.00803231
O        2.44436458       4.96877369       6.74748338       1.00000000       0.00266354      -0.00151073       0.00509479
