50
Lattice="12.336457 0.0 0.0 -6.168228499999997 10.683685154694365 0.0 0.0 0.0 15.0" Properties=species:S:1:pos:R:3:forces:R:3 energy=-437.2562859558269 free_energy=-437.2562859558269 stress="-0.005344226984157896 0.0023769680965386635 -2.822345908687375e-05 0.0023769680965386635 -0.011934186068474455 -1.0483344048526366e-05 -2.822345908687375e-05 -1.0483344048526366e-05 -2.8432424393254526e-06" pbc="T T T"
C        0.02007237       0.01026418       3.68586754       0.00277140       0.00205185      -0.00338325
C       -1.19178754       2.16444952       3.43575469      -0.00873612       0.00048196      -0.00833525
C       -2.45556101       4.30114419       3.41857244       0.00501624      -0.00754979       0.00153536
C       -3.68977274       6.42377777       3.58060014      -0.01243756       0.00476889       0.00224305
C       -4.93070149       8.54365601       3.73108608       0.00397962      -0.00000843      -0.00144528
C        2.48207834      -0.04041343       3.83122721       0.00045169      -0.00711835       0.00410688
C        1.29346123       2.06352826       3.60432804      -0.00403411       0.00481019      -0.00578013
C       -0.04509164       4.35108879       3.31107095      -0.00052885      -0.00011279      -0.00711298
C       -1.23186687       6.43976902       3.61924567       0.00019234       0.00558107       0.00839643
C       -2.45294854       8.54494808       3.74305143      -0.00716767       0.00238603       0.00033591
C        4.95346518      -0.00134478       3.82234902      -0.00356164       0.00889207       0.00183499
C        3.71122182       2.07869063       4.01234254       0.00261319      -0.00788221       0.00120717
B        1.32113778       6.39082030       3.99964235       0.00783737      -0.01288810      -0.00519186
C        0.01158257       8.57651371       3.81745503       0.00089267       0.00994013       0.00835464
C        7.41396257       0.04718367       3.73073629      -0.00202808      -0.00291552      -0.00127680
C        6.19383168       2.14331379       3.75450808       0.01198300       0.00254342       0.00243209
C        5.00997677       4.26544571       3.87153676       0.00067544       0.00168302       0.00637340
P        3.41010442       6.25154474       4.18598606      -0.00158143      -0.01143998       0.01009220
C        2.46317190       8.65611262       3.92065264      -0.00122098       0.00539289       0.00171183
C        9.89795230       0.05204750       3.67846035       0.00645142       0.00321266       0.00562625
C        8.66142785       2.16780991       3.53831626      -0.00714984      -0.01242063      -0.00357246
C        7.42708906       4.28992822       3.56558573      -0.00119939       0.00085204      -0.00724060
C        6.18604488       6.42812351       3.68944215      -0.00253204       0.00426340      -0.00906252
C        4.94493152       8.58079390       3.85148992       0.00621781      -0.01540445      -0.00516276
C        0.03619621       1.44001428       3.55236326      -0.00628478       0.00757983      -0.00794451
C       -1.21828567       3.58165686       3.33197463       0.00771446      -0.00500244      -0.00081767
C       -2.45660875       5.71928627       3.51616659      -0.00479475       0.00272762      -0.00845701
C       -3.69240083       7.83891999       3.68308020      -0.00566275       0.00235672      -0.00033106
C       -4.92629264       9.96350253       3.75633751       0.00115037      -0.00327153      -0.00112363
C        2.49374109       1.37689613       3.87359594      -0.00333840      -0.00705531      -0.00052501
S        1.52458879       3.68709070       3.08206929      -0.01234171       0.01307854       0.00788542
C       -0.00574435       5.71179386       3.61070318      -0.00476095      -0.00731994       0.00894370
C       -1.22317303       7.85243476       3.73921758      -0.00277805       0.01196894       0.00522046
C       -2.44574741       9.95876477       3.81986320      -0.00058389      -0.00012552      -0.00042384
C        4.95554978       1.42333270       3.87785536       0.00974140       0.00626286      -0.00233562
B        3.72139869       3.55868006       4.27086233       0.00726876      -0.00469905      -0.00060156
C        1.25361578       7.92277923       3.92237122      -0.00079845      -0.00294230      -0.00793933
C        0.01733970      10.00107661       3.78561145      -0.00427663       0.00935238       0.00301809
C        7.42396177       1.45808363       3.65812207       0.00045559      -0.00923516      -0.00032846
C        6.21166111       3.55662934       3.71014721       0.00209294       0.00328205       0.00700005
C        4.99817110       5.66030803       3.78986663       0.00631835       0.00537095       0.00888317
C        3.68847840       7.95572612       4.01142347       0.00089065      -0.00371897       0.01180909
C        2.48477471      10.05630291       3.76677407       0.00238097       0.00470168       0.00705230
C        9.90824455       1.46749337       3.53222037      -0.00643446       0.00051932      -0.00556702
C        8.65503078       3.58519308       3.48356163      -0.00017735      -0.01188608       0.00038398
C        7.41695648       5.71233245       3.58395515      -0.01110030       0.00391314      -0.00522876
C        6.17031595       7.84566027       3.76088846       0.01049128      -0.00237529      -0.01381355
C        4.95187294      10.00565868       3.73508475       0.00571393      -0.00693436       0.00074032
Ru       2.16365976       4.66526795       5.18440246       0.00341585       0.00423454       0.00019203
O        1.71844309       4.36258143       6.80122068       0.00879346       0.01009800      -0.00237787
