51
Lattice="12.336457 0.0 0.0 -6.168228499999997 10.683685154694365 0.0 0.0 0.0 15.0" Properties=species:S:1:pos:R:3:initial_magmoms:R:1:forces:R:3 energy=-446.1049928057609 free_energy=-446.1049928057609 stress="-0.007908322796290012 0.003977395903268054 4.161177872173084e-07 0.003977395903268054 -0.006948786246685071 9.74638632742569e-06 4.161177872173084e-07 9.74638632742569e-06 -4.352869352827087e-05" pbc="T T T"
C        0.03544450      -0.03580774       3.60478464       0.00000000       0.00353875       0.00075071       0.00092173
C       -1.18503469       2.10986116       3.46570680       0.00000000      -0.00354758      -0.00490292       0.00731521
C       -2.45418334       4.24724247       3.48152329       0.00000000      -0.00160462      -0.00268255       0.00217862
C       -3.69480107       6.37761103       3.55373224       0.00000000       0.00099733       0.00655278      -0.00463433
C       -4.91949446       8.50275746       3.64019769       0.00000000      -0.00341151       0.00128303      -0.00617238
C        2.50436281      -0.06663346       3.65019593       0.00000000      -0.00217753      -0.00642831      -0.00179526
C        1.31325406       2.05695266       3.58447152       0.00000000       0.00708643      -0.00173037      -0.00834642
C       -0.06316773       4.30939203       3.74941237       0.00000000      -0.00029701       0.00332256       0.00517720
C       -1.28871603       6.39493449       3.92682666       0.00000000      -0.00462020      -0.00419789       0.00960886
C       -2.44670203       8.50760414       3.72938035       0.00000000       0.00140695       0.00096349      -0.00260042
C        4.97715207      -0.05110045       3.65048968       0.00000000      -0.00121868       0.00248602      -0.00818143
C        3.77162843       2.05914150       3.70465018       0.00000000       0.00157795      -0.00168162      -0.00143501
P        1.25282800       6.36015191       5.00732299       0.00000000       0.00423876       0.00107173       0.00936174
C        0.01253960       8.54262993       4.00206812       0.00000000      -0.00198006       0.00172351      -0.00367124
C        7.44552792      -0.03472583       3.64991686       0.00000000       0.00543717       0.00408226       0.00012042
C        6.22824461       2.07757721       3.48640846       0.00000000      -0.00255626      -0.00328669      -0.00704829
C        5.01563241       4.20245481       3.64224299       0.00000000      -0.00034514       0.00086024      -0.00842643
B        3.73892329       6.30603734       4.25084769       0.00000000      -0.00253553       0.00173657      -0.00130258
C        2.50429220       8.56884362       4.05703280       0.00000000       0.00010574      -0.00771464       0.01021729
C        9.91421760      -0.02673765       3.61532351       0.00000000       0.00134512      -0.00022439       0.00587137
C        8.68456027       2.09532341       3.42009767       0.00000000      -0.00648352       0.00555865      -0.00184802
C        7.44009418       4.23197616       3.40663220       0.00000000      -0.00466681      -0.00017514      -0.00316950
C        6.19905514       6.36864184       3.62919632       0.00000000       0.00340499       0.00134934      -0.00148490
C        4.95501742       8.50781122       3.80831738       0.00000000       0.00534445       0.00513832       0.00166170
C        0.05198509       1.39799657       3.54058809       0.00000000       0.00200318      -0.00172737       0.00074314
C       -1.22380238       3.53469628       3.50915392       0.00000000       0.00102481      -0.00297812       0.00459848
C       -2.47508729       5.66945644       3.61604529       0.00000000      -0.00376487      -0.00306259       0.00085725
C       -3.68670802       7.79702341       3.63689850       0.00000000      -0.00130950       0.00669841      -0.00066930
C       -4.90880329       9.92539396       3.63655171       0.00000000      -0.00121028      -0.00323039      -0.00179724
C        2.52641425       1.34827940       3.66666463       0.00000000       0.00359964      -0.00460488      -0.00518905
P        1.58510950       3.79281071       3.41919212       0.00000000       0.00814450      -0.00497523       0.00338072
C       -0.15266790       5.62676030       4.20128191       0.00000000       0.00361814       0.00118007       0.00433713
C       -1.23061467       7.81621047       3.91828566       0.00000000      -0.00092908      -0.00166225      -0.00120443
C       -2.43154767       9.92307254       3.67914986       0.00000000       0.00034164      -0.00017336       0.00034382
C        4.99780468       1.36337126       3.59644852       0.00000000      -0.00045704      -0.00003060      -0.00092510
C        3.83735094       3.46166020       3.88857852       0.00000000      -0.00171755       0.00024323      -0.00237303
C        1.25329898       7.94342213       4.32452627       0.00000000      -0.00593737      -0.00515269       0.00570379
C        0.03756185       9.93929049       3.74187101       0.00000000       0.00148412       0.00826291       0.00489821
C        7.45751198       1.37571929       3.48412999       0.00000000      -0.00126454       0.00300798      -0.00710525
C        6.23128517       3.49703190       3.44123280       0.00000000      -0.00217878      -0.00430837      -0.00693405
C        5.01145614       5.61069222       3.77645088       0.00000000       0.00192003       0.00247220      -0.00532409
C        3.72319273       7.82605455       4.05319231       0.00000000       0.00565476       0.00131047      -0.00424336
C        2.51166119       9.96013362       3.75250092       0.00000000       0.00299305      -0.00584780       0.00661294
C        9.92190377       1.39238602       3.47026195       0.00000000      -0.00830171       0.00194311       0.00611297
C        8.67089560       3.52254936       3.39263516       0.00000000      -0.00479606       0.00308505       0.00182604
C        7.42314441       5.65764034       3.48707237       0.00000000       0.00088647       0.00232678      -0.01327161
C        6.18535817       7.79175250       3.69738766       0.00000000       0.00048453       0.00226270      -0.00268993
C        4.97072760       9.93834349       3.67208930       0.00000000       0.00460722       0.00400695      -0.00044720
Ru       2.76358578       4.69872369       5.14908214       0.00000000      -0.00101769       0.00343617       0.00080716
O        1.11432802       6.20036332       6.62525095       1.00000000      -0.00782524       0.01034537       0.01438670
O        2.08794554       5.00587414       6.87466197       1.00000000       0.00490839      -0.01668241       0.00524735
