51
Lattice="12.336457 0.0 0.0 -6.168228499999997 10.683685154694365 0.0 0.0 0.0 15.0" Properties=species:S:1:pos:R:3:initial_magmoms:R:1:forces:R:3 energy=-453.7582941105757 free_energy=-453.7582941105757 stress="-0.007338093154753673 -0.00059981997395725 -8.291897804600555e-07 -0.00059981997395725 0.00016699554098556594 -7.150310943852005e-06 -8.291897804600555e-07 -7.150310943852005e-06 -1.2092657007048105e-05" pbc="T T T"
C        0.00700643       0.03005330       3.71776589       0.00000000       0.00401712       0.00038421       0.00079617
C       -1.24390960       2.13667838       3.61671368       0.00000000      -0.00391561       0.00140776      -0.00223900
C       -2.47916061       4.28947811       3.47606007       0.00000000      -0.00154600       0.00281345       0.00069596
C       -3.69306869       6.44456720       3.50064924       0.00000000       0.00199291      -0.00230210      -0.00627368
C       -4.91493055       8.59322333       3.63865524       0.00000000      -0.00289117      -0.00198871      -0.00111535
C        2.47808592       0.05972436       3.74567110       0.00000000       0.00369958       0.00523418      -0.00264738
C        1.23226550       2.19758039       3.84089555       0.00000000      -0.00097205      -0.00383181      -0.00231758
C       -0.06189169       4.27574850       3.71986156       0.00000000      -0.00279972      -0.00057417      -0.00435747
C       -1.25476111       6.44151099       3.60639896       0.00000000      -0.00234531      -0.00152752       0.00434193
C       -2.45987835       8.59017376       3.63699972       0.00000000       0.00497936       0.00021413      -0.00244206
C        4.94436643       0.03708292       3.70500019       0.00000000      -0.00236250      -0.00033804       0.00021820
C        3.71741374       2.20020941       3.82345940       0.00000000       0.00144271      -0.00525553       0.00322091
B        1.24642576       6.36632447       4.03189122       0.00000000       0.00215966       0.00885224       0.01016468
C        0.00403911       8.56967063       3.75091127       0.00000000       0.00602703       0.00086938       0.00264048
C        7.41580963       0.00653474       3.67960550       0.00000000      -0.00251772      -0.00807347       0.00065086
C        6.18987638       2.14739238       3.60877791       0.00000000       0.00248153      -0.00045953      -0.00412933
C        5.00098213       4.29563953       3.70266372       0.00000000      -0.00294391       0.00222790      -0.00606798
C        3.77905582       6.39146716       3.97730876       0.00000000      -0.00258713       0.00843109      -0.00928767
C        2.48084951       8.54873290       3.85120766       0.00000000       0.00218011      -0.00002013       0.00768154
C        9.87533625       0.00130525       3.68736001       0.00000000      -0.00275167      -0.00459269      -0.00526543
C        8.64283957       2.14174922       3.53263887       0.00000000      -0.00020441       0.00266461       0.00160968
C        7.42125243       4.29470615       3.47570326       0.00000000       0.00655293       0.00112855       0.00443784
C        6.20699002       6.45226843       3.59654390       0.00000000       0.00250490      -0.00423072      -0.00495927
C        4.94934722       8.55547219       3.75555341       0.00000000      -0.00333641       0.00063315       0.00828462
C       -0.00175746       1.45083566       3.72472868       0.00000000      -0.00352423      -0.00059923       0.01031921
C       -1.27082850       3.55487405       3.55874293       0.00000000      -0.00448442       0.00188956      -0.00355006
C       -2.47748800       5.72204160       3.49573693       0.00000000      -0.00153131      -0.00131459       0.00225301
C       -3.68971883       7.87504579       3.58069182       0.00000000       0.00153358      -0.00274214       0.00033939
C       -4.91914325      10.01786374       3.70863935       0.00000000       0.00547883       0.00108354       0.00002755
C        2.47682708       1.48694441       3.83302728       0.00000000       0.00087400       0.00045193       0.00118811
C        1.15603168       3.60386310       3.95271247       0.00000000      -0.00563724      -0.00580002       0.00211517
C       -0.07490170       5.68387471       3.73456766       0.00000000      -0.00146011       0.00026812       0.00408952
C       -1.23462401       7.86902045       3.66346573       0.00000000       0.00638341      -0.00055367       0.00599448
C       -2.46124887      10.01877422       3.70227219       0.00000000       0.00077863       0.00218383      -0.00272625
C        4.95085818       1.45932169       3.71153168       0.00000000       0.00165880      -0.00129099      -0.00221282
C        3.79677258       3.61024131       3.92529005       0.00000000      -0.00169817      -0.00398497      -0.00190125
C        1.24370372       7.87202178       3.87087203       0.00000000       0.00492192       0.00616722       0.00779180
C        0.00785639       9.99485279       3.70774266       0.00000000      -0.00355188      -0.00155963      -0.00063793
C        7.41745448       1.42833577       3.59091037       0.00000000       0.00172992      -0.00533294      -0.00097429
C        6.20951877       3.56879804       3.55618809       0.00000000       0.00292422       0.00242565      -0.00555386
C        4.99293721       5.72443795       3.72808958       0.00000000      -0.00299022       0.00463873      -0.00543971
C        3.71427125       7.81101952       3.87412650       0.00000000      -0.00165302       0.00576671       0.00131011
C        2.47961220       9.97301663       3.73424304       0.00000000      -0.00139247      -0.00802600      -0.00005392
C        9.86741616       1.42189124       3.59686760       0.00000000      -0.00253034      -0.00106062      -0.00951398
C        8.63865367       3.57173237       3.46483522       0.00000000       0.00365151       0.00339643      -0.00034346
C        7.42021298       5.72730992       3.49647539       0.00000000       0.00455719      -0.00225380      -0.00532123
C        6.19271029       7.87182573       3.65978561       0.00000000      -0.00649050      -0.00337261      -0.00255668
C        4.94375351       9.98004023       3.72061557       0.00000000       0.00023620       0.00010273      -0.00246377
Ru       2.50022324       4.93694160       4.69339366       0.00000000      -0.01109410       0.00681642       0.01454073
O        2.25434243       3.68144441       6.91263227       1.00000000      -0.00707784      -0.00018344       0.00716129
O        2.22558463       4.95020223       6.57824196       1.00000000       0.01352336       0.00121754      -0.00752183
