52
Lattice="12.336457 0.0 0.0 -6.168228499999997 10.683685154694365 0.0 0.0 0.0 15.0" Properties=species:S:1:pos:R:3:initial_magmoms:R:1:forces:R:3 energy=-462.9563803734742 free_energy=-462.9563803734742 stress="-0.005160937058997644 -0.0013314053977235417 7.846549163199358e-06 -0.0013314053977235417 -0.001686742717070766 2.1461439487430866e-06 7.846549163199358e-06 2.1461439487430866e-06 -2.4552045320254014e-05" pbc="T T T"
C        0.03777563      -0.00284160       3.55685364       0.00000000       0.00194203      -0.00000842       0.00402614
C       -1.21089557       2.12418343       3.61261614       0.00000000      -0.00599831      -0.00304230      -0.00003216
C       -2.44547198       4.26606705       3.61387160       0.00000000       0.00147414      -0.00201182      -0.00772233
C       -3.66247728       6.41062073       3.56532056       0.00000000       0.00391583       0.00471360      -0.00076192
C       -4.88623214       8.55403216       3.53651842       0.00000000       0.00319538      -0.00258523       0.00605457
C        2.50951687       0.01025377       3.60707951       0.00000000      -0.00154663      -0.00003667       0.00170568
C        1.25293106       2.11944390       3.76190327       0.00000000      -0.00082376       0.00100203      -0.00275186
C       -0.00610457       4.25346728       3.85822753       0.00000000       0.00210983       0.00037586      -0.00141135
C       -1.21469636       6.40790966       3.70063826       0.00000000      -0.00474905       0.00068651      -0.00219210
C       -2.42634887       8.55059804       3.58436384       0.00000000       0.00067014       0.00141921       0.00008886
C        4.97637748      -0.00228637       3.62784580       0.00000000      -0.00357302      -0.00297563      -0.00085659
C        3.74756126       2.13650449       3.79044520       0.00000000       0.00127747       0.00028867       0.00585694
B        2.47748690       4.21451878       4.31369022       0.00000000       0.00193956      -0.00516966       0.00187749
C        1.18410888       6.43368913       4.12781793       0.00000000       0.00080878      -0.00425801       0.00768744
C        0.03831891       8.54093207       3.70622497       0.00000000      -0.00188374      -0.00112784       0.00593087
C        7.44173585      -0.01513720       3.62944071       0.00000000      -0.00059174       0.00359359       0.00137236
C        6.20667117       2.13586339       3.66124885       0.00000000       0.00110365       0.00037090      -0.00571152
C        4.98576628       4.29049100       3.86990042       0.00000000      -0.00177411       0.00057885       0.00215538
N        3.88965505       6.50066094       4.12127441       0.00000000       0.00278665      -0.00014608      -0.00212938
C        2.52069645       8.52453286       3.79111343       0.00000000      -0.00351853       0.00416618       0.00179965
C        9.90407539      -0.01646951       3.58537604       0.00000000       0.00126442       0.00168155      -0.00393288
C        8.66608059       2.12678549       3.58534145       0.00000000      -0.00159741       0.00225708      -0.00096924
C        7.43665866       4.27291018       3.62092731       0.00000000       0.00122874       0.00134600      -0.00676490
C        6.22025424       6.42331487       3.65358618       0.00000000       0.00569714      -0.00410231      -0.00877273
C        4.99312724       8.54553749       3.61488565       0.00000000       0.00127791      -0.00116320       0.00451204
C        0.02541561       1.41384134       3.62409610       0.00000000      -0.00348511       0.00055792      -0.00116075
C       -1.22601283       3.54576833       3.67244491       0.00000000       0.00131388      -0.00290866      -0.00305270
C       -2.43773632       5.69370816       3.61313517       0.00000000      -0.00221450      -0.00080495       0.00035567
C       -3.65590720       7.83676936       3.55117349       0.00000000       0.00447334       0.00253568      -0.00302308
C       -4.89111546       9.97930648       3.55266374       0.00000000       0.00112009      -0.00243607       0.00736170
C        2.50511992       1.42976817       3.72873136       0.00000000       0.00038607       0.00080808       0.00570692
C        1.18860995       3.52084369       3.96370154       0.00000000       0.00343740       0.00109391       0.00117303
C        0.00189267       5.68252136       3.89405803       0.00000000      -0.00252472       0.00111571      -0.00060232
C       -1.19945323       7.83354271       3.66420629       0.00000000      -0.00274947       0.00009244      -0.00043294
C       -2.42504945       9.97580978       3.59799126       0.00000000      -0.00385451      -0.00119096       0.00464450
C        4.97721096       1.42131544       3.67930690       0.00000000       0.00110065      -0.00219606       0.00405544
C        3.79230117       3.55058139       3.97849428       0.00000000      -0.00298644       0.00157562      -0.00470953
C        1.27518131       7.82910700       3.86811992       0.00000000      -0.00074349      -0.00129750      -0.00047852
C        0.04102437       9.96184524       3.64281651       0.00000000      -0.00139475      -0.00019568      -0.00189531
C        7.43646302       1.41335860       3.61047177       0.00000000       0.00121319       0.00236576      -0.00533018
C        6.20768916       3.56657745       3.70063521       0.00000000      -0.00113094       0.00144581      -0.00050265
C        4.99855528       5.73524354       3.87784900       0.00000000       0.00429807      -0.00071556       0.00233724
C        3.78409771       7.82985872       3.82050904       0.00000000      -0.00234597       0.00048230      -0.00073718
C        2.50817606       9.94669802       3.64759903       0.00000000       0.00027808       0.00642053       0.00692519
C        9.89684617       1.40922890       3.57476295       0.00000000      -0.00573022      -0.00044745      -0.00430299
C        8.66306168       3.55367188       3.58890973       0.00000000       0.00023208       0.00082352      -0.00937183
C        7.44113072       5.69898789       3.59790753       0.00000000       0.00744467       0.00140149      -0.00325075
C        6.22144152       7.84047154       3.58505762       0.00000000       0.00288701      -0.00391186       0.00022516
C        4.97356163       9.96396493       3.56333703       0.00000000       0.00238631       0.00009806       0.00017612
Ru       2.44321856       5.84705387       5.45783100       0.00000000      -0.00212896      -0.00067242      -0.01419251
O        1.43739902       5.04082486       6.86093351       1.00000000      -0.00358908      -0.00328402       0.00980683
O        1.61470529       6.40381258       7.04855280       1.00000000      -0.00032806       0.00339151       0.01121698
