50
Lattice="12.336457 0.0 0.0 -6.168228499999997 10.683685154694365 0.0 0.0 0.0 15.0" Properties=species:S:1:pos:R:3:forces:R:3 energy=-451.1138559591327 free_energy=-451.1138559591327 stress="-0.005491946243989893 8.566451839732112e-07 1.7894346658500414e-07 8.566451839732112e-07 -0.001678579878016422 -1.4712667053206912e-05 1.7894346658500414e-07 -1.4712667053206912e-05 1.9388533694721255e-06" pbc="T T T"
C       -0.00410034      -0.00492581       3.60995968       0.00033416       0.00677146       0.00410143
C       -1.24275388       2.13071279       3.64129070       0.01070434       0.00277437      -0.00101259
C       -2.47452330       4.26906799       3.63492409       0.00227609       0.00181265      -0.00532317
C       -3.70160732       6.41091900       3.60219464      -0.00375903      -0.00775638       0.00075172
C       -4.93181406       8.55128453       3.60078672      -0.00153948      -0.00004144      -0.01203236
C        2.46613139       0.00911291       3.62932331       0.00194084      -0.00635179      -0.00494769
C        1.21908132       2.12237924       3.76928541       0.00387146      -0.00696262       0.01381848
C       -0.02625146       4.28196046       3.86749863      -0.00311756      -0.00002427       0.00239383
C       -1.25286382       6.41843961       3.69776860      -0.00245199       0.00093654      -0.00288663
C       -2.47225714       8.55138698       3.59946182       0.00595336      -0.00097371      -0.00898089
C        4.93658362      -0.00518036       3.61131335       0.00306969       0.01267074       0.00527327
C        3.71353629       2.12235103       3.77171124      -0.00426875      -0.00671710       0.01300772
B        2.46564117       4.15678365       4.35565273       0.00394215       0.01064033       0.00576596
N        1.10219592       6.46809435       4.08342856       0.00125693       0.00027544      -0.00505957
C       -0.01405922       8.54101250       3.68099068       0.00105634       0.00059563      -0.00710197
C        7.40500214      -0.01937850       3.62081308      -0.00642326      -0.00393102       0.00532001
C        6.17545602       2.13059239       3.64528900      -0.00737123       0.00288947      -0.00226198
C        4.95905157       4.28192237       3.87236464       0.00446198      -0.00344675       0.00049386
N        3.83060729       6.46831546       4.08578945       0.00046134      -0.00139274      -0.00546918
C        2.46645809       8.50670563       3.80960171      -0.00131649      -0.00256782      -0.00040714
C        9.86452473      -0.01927333       3.61964955       0.00089274      -0.00663930       0.00566951
C        8.63468311       2.12559631       3.59280543      -0.00140126       0.00167435       0.00490732
C        7.40771197       4.26903240       3.63810924      -0.00803399       0.00037810      -0.01202162
C        6.18598706       6.41817031       3.70158328       0.00102137       0.00378583      -0.00318046
C        4.94682513       8.54099149       3.68296566       0.00084337       0.00128385      -0.00464688
C       -0.01053026       1.41530721       3.65413914       0.00791996       0.00421594       0.00466503
C       -1.25022032       3.55862497       3.69355255       0.00350835       0.00138319      -0.00310130
C       -2.47352036       5.69590586       3.63457533      -0.00113457      -0.00093922      -0.00171668
C       -3.70194387       7.83593762       3.59361699      -0.00003285      -0.00417594      -0.00614584
C       -4.93508179       9.97655133       3.60342775      -0.00333293       0.00136905       0.00921699
C        2.46627467       1.43008332       3.73423796       0.00008674      -0.00952971       0.00441200
C        1.16295416       3.53288956       3.96066419      -0.00662376      -0.01185110       0.00814586
C       -0.03184748       5.71735612       3.89085444      -0.00509143       0.00389146      -0.01163560
C       -1.24606381       7.83623083       3.65333503       0.00419595      -0.00142716       0.00607696
C       -2.46911619       9.97653800       3.60494488       0.00879300       0.00205770      -0.00129259
C        4.94307585       1.41506297       3.65668327      -0.00385829       0.00919714       0.00885154
C        3.76960662       3.53284255       3.96433136       0.00840497      -0.01438525       0.00485913
C        1.20222891       7.82494292       3.85549629      -0.00347567       0.00310765      -0.00519248
C        0.00111901       9.96189817       3.62491738      -0.00483406       0.00127262      -0.00735430
C        7.40469001       1.40996890       3.60110484      -0.00773401       0.00062443       0.00821922
C        6.18320260       3.55859914       3.69813336      -0.00418911      -0.00042734      -0.00156148
C        4.96483093       5.71734677       3.89504643       0.00699978       0.00265141      -0.01209938
C        3.73059034       7.82502496       3.85718187       0.00318322       0.00203866      -0.00647589
C        2.46661577       9.93987195       3.66166110      -0.00414090      -0.00716742       0.00963160
C        9.86464465       1.41004566       3.59806073       0.00567243      -0.00129977       0.01503822
C        8.63478904       3.55225800       3.60394745      -0.00231650       0.00439350      -0.00329797
C        7.40679080       5.69591179       3.63595297      -0.00516671      -0.00436030       0.00776045
C        6.17871543       7.83597799       3.65707776      -0.00038041       0.00141553      -0.00207786
C        4.93169649       9.96189786       3.62486435       0.00409655      -0.00021414      -0.00969295
Ru       2.46553173       5.83155811       5.32829061      -0.00295283       0.01847528      -0.00140365
