51
Lattice="12.336457 0.0 0.0 -6.168228499999997 10.683685154694365 0.0 0.0 0.0 15.0" Properties=species:S:1:pos:R:3:initial_magmoms:R:1:forces:R:3 energy=-447.0431486608563 free_energy=-447.0431486608563 stress="-0.00571461292525467 -9.934055126548011e-07 -1.919303224343877e-05 -9.934055126548011e-07 -0.0026406731635062186 3.3151017927042823e-07 -1.919303224343877e-05 3.3151017927042823e-07 -2.9785320062967564e-05" pbc="T T T"
C       -0.02612094       0.00688097       3.89333923       0.00000000       0.00023882      -0.00583589       0.00060294
C       -1.26996796       2.12530412       3.97302111       0.00000000       0.00740065      -0.00156140       0.01633266
C       -2.50106798       4.26766999       3.94450194       0.00000000      -0.00020477      -0.00026188      -0.00460587
C       -3.72309231       6.40960422       3.83242352       0.00000000      -0.00339797       0.00194247       0.00398844
C       -4.96197544       8.54986047       3.79211126       0.00000000       0.00246946       0.00416904      -0.00146422
C        2.43757882      -0.00093102       3.88394846       0.00000000       0.00246522      -0.00176474       0.00479965
C        1.20968979       2.16300146       3.86092942       0.00000000       0.00241158      -0.00267231      -0.00582371
C       -0.05741566       4.26703390       3.97113454       0.00000000       0.00568072      -0.00229014      -0.01207126
C       -1.28272286       6.41704508       3.99195706       0.00000000       0.00695492       0.00320754      -0.00439192
C       -2.50145020       8.55038038       3.94050787       0.00000000       0.00213619       0.00056957       0.00057637
C        4.91216702      -0.00969813       3.82634845       0.00000000       0.00373485       0.00101785       0.01437779
C        3.66715806       2.05742391       3.45348121       0.00000000      -0.00315643       0.00581650       0.00652370
C        1.16847701       6.38478079       3.88021038       0.00000000      -0.00285070       0.00369999      -0.01060887
C       -0.02790511       8.53245421       3.94076039       0.00000000       0.00194170       0.00324262      -0.00283436
C        7.37392687      -0.01072110       3.87998828       0.00000000       0.00441509       0.00361336       0.00040305
C        6.16051029       2.11716541       3.57743828       0.00000000      -0.00285328      -0.00447666      -0.00086317
C        5.08325168       4.27371048       2.94943304       0.00000000       0.00300255      -0.00260353      -0.00544888
P        3.53720675       6.43727757       2.45052373       0.00000000      -0.01194379      -0.00204337      -0.00430646
C        2.44013899       8.54403900       3.76008190       0.00000000      -0.00314424       0.00114091      -0.00751952
C        9.84151310      -0.00878334       3.89511830       0.00000000       0.00250029       0.00300739       0.00159367
C        8.60719168       2.12692265       3.86635648       0.00000000       0.00090393      -0.00432576       0.00271329
C        7.40902016       4.26636892       3.61953349       0.00000000      -0.00027521      -0.00306335       0.00482057
C        6.21082325       6.43176989       3.37407419       0.00000000      -0.00472529       0.00683226      -0.00047770
C        4.92068566       8.56060412       3.60888290       0.00000000      -0.00332411       0.00263586      -0.00702315
C       -0.02805060       1.43114119       3.94079074       0.00000000       0.00476446      -0.00608257       0.00017684
C       -1.28280185       3.54621367       3.99216158       0.00000000       0.00287121      -0.00041869      -0.00401988
C       -2.50096367       5.69544228       3.94444365       0.00000000       0.00243993       0.00405590      -0.00397833
C       -3.72882051       7.83652695       3.86561898       0.00000000       0.00017808       0.00224280       0.00630078
C       -4.96225855       9.97404668       3.88055694       0.00000000       0.00148156      -0.00022967      -0.00315855
C        2.43992381       1.41963192       3.76036152       0.00000000       0.00007994      -0.00359544      -0.00620969
C        1.16843114       3.57892070       3.88391833       0.00000000      -0.00108272      -0.00446096      -0.01706781
C       -0.05748079       5.69644250       3.96970772       0.00000000       0.00739582       0.00049741      -0.00769768
C       -1.26967376       7.83802994       3.97401922       0.00000000       0.00393790       0.00325405       0.01250622
C       -2.49506244       9.97218087       3.89639809       0.00000000       0.00341766      -0.00123445      -0.00094043
C        4.92018051       1.40274207       3.60855027       0.00000000      -0.00316776      -0.00179209      -0.00558697
P        3.53730278       3.52648765       2.44984602       0.00000000      -0.01564228       0.00022739      -0.00257919
C        1.20983457       7.80097234       3.85891042       0.00000000      -0.00233320      -0.00068819      -0.00224813
C       -0.02648430       9.95669061       3.89298110       0.00000000       0.00584622       0.00362623       0.00375117
C        7.37407894       1.41349664       3.79343545       0.00000000      -0.00045229      -0.00060006      -0.00842600
C        6.20977169       3.53176298       3.37586740       0.00000000       0.00231172      -0.00492035      -0.00043977
C        5.08443339       5.69005441       2.94716149       0.00000000      -0.00426552       0.00016596      -0.00170625
C        3.66763312       7.90581535       3.45493193       0.00000000      -0.00451564      -0.00457078       0.00119413
C        2.43759738       9.96447724       3.88315813       0.00000000       0.00313794       0.00269370       0.00433655
C        9.83469560       1.41295876       3.93917634       0.00000000       0.00520898       0.00155277       0.00472694
C        8.61288970       3.55382135       3.83288411       0.00000000      -0.00051175      -0.00522187       0.00454453
C        7.40956649       5.69704372       3.61896048       0.00000000      -0.00604553       0.00164850       0.00397046
C        6.16099919       7.84619281       3.57641585       0.00000000      -0.00023244       0.00843632      -0.00048791
C        4.91260651       9.97322272       3.82595194       0.00000000      -0.00156876      -0.00277056       0.01457763
Ru       2.63652743       4.98311170       3.99897737       0.00000000      -0.00658519       0.00006713      -0.00225789
O        2.63477554       4.97968954       6.56373089       1.00000000      -0.00291758      -0.00031663       0.00481305
O        3.64901743       4.95237713       5.73754278       1.00000000      -0.00413096      -0.00156218       0.01661312
