51
Lattice="12.336457 0.0 0.0 -6.168228499999997 10.683685154694365 0.0 0.0 0.0 15.0" Properties=species:S:1:pos:R:3:initial_magmoms:R:1:forces:R:3 energy=-446.6917279843239 free_energy=-446.6917279843239 stress="-0.001554806394012782 -0.0008975590803119884 -4.467663906748903e-05 -0.0008975590803119884 0.005885691539273984 2.409084349570303e-05 -4.467663906748903e-05 2.409084349570303e-05 0.00012191784393815168" pbc="T T T"
C       -0.02832380      -0.03954228       3.72283609       0.00000000      -0.00005136      -0.00193829      -0.00106915
C       -1.28158963       2.07445499       3.76018434       0.00000000       0.00843958      -0.00242087      -0.00092242
C       -2.51344078       4.22105197       3.75434998       0.00000000       0.00745030       0.01051023      -0.00368465
C       -3.73842422       6.36979368       3.70029874       0.00000000      -0.00066633      -0.00106319      -0.00069353
C       -4.96489104       8.51372512       3.69970332       0.00000000       0.00276366      -0.00627680      -0.00323154
C        2.44066738       0.01189147       3.67315613       0.00000000      -0.00219848      -0.00234290       0.00318189
C        1.17763914       2.09728688       3.71768019       0.00000000      -0.00678568      -0.01078784      -0.00206395
C       -0.08807203       4.21052363       3.81376808       0.00000000       0.02806271       0.02562204       0.00147350
C       -1.30020943       6.37077285       3.73299780       0.00000000      -0.01630111       0.00948221      -0.00731948
C       -2.50390436       8.52111865       3.67532480       0.00000000      -0.00427877      -0.00160339       0.00051546
C        4.90096841      -0.03115275       3.64511326       0.00000000       0.00105240       0.01056073       0.00124067
C        3.70816310       2.13600176       3.65565341       0.00000000      -0.00493442       0.00512358       0.00541587
C        1.13677568       6.37498383       3.91077965       0.00000000      -0.00446731      -0.04558531       0.00382213
C       -0.02703249       8.49513399       3.68789849       0.00000000      -0.00851716       0.00450861      -0.00049030
C        7.37743679      -0.06998902       3.67586022       0.00000000       0.00111808       0.00126794       0.00359935
C        6.14037636       2.09519049       3.64856365       0.00000000       0.00078337      -0.00371376       0.00379248
C        4.93422321       4.23732646       3.65603493       0.00000000       0.00117145      -0.01292241       0.00628214
O        3.74182287       6.37153322       3.78299404       0.00000000       0.00067225      -0.00109132       0.00706306
C        2.46463613       8.44670140       3.73524266       0.00000000       0.00853608       0.00385954       0.00063808
C        9.83663474      -0.07500092       3.72242785       0.00000000      -0.00170105       0.00744770      -0.00230123
C        8.59984115       2.07771254       3.70811079       0.00000000       0.00066425      -0.00242644      -0.00065741
C        7.36684942       4.23142899       3.68743524       0.00000000       0.00045152       0.00528168      -0.00092893
C        6.13805925       6.36193481       3.69632967       0.00000000      -0.00054132       0.01030350       0.00204636
C        4.91055111       8.47853460       3.73229402       0.00000000       0.00303351       0.00745318      -0.00071726
C       -0.02738760       1.39230770       3.73466680       0.00000000       0.00026679       0.00915558       0.00208041
C       -1.28986800       3.49157250       3.79512679       0.00000000      -0.02106150      -0.01415675      -0.00398498
C       -2.51247088       5.64884240       3.72632224       0.00000000      -0.00173229      -0.01171779      -0.00267520
C       -3.73036913       7.80117905       3.68940887       0.00000000       0.00010114       0.00744937      -0.00236031
C       -4.95483427       9.95663844       3.69922989       0.00000000      -0.00096187       0.00041926      -0.00193252
C        2.44373735       1.46704566       3.67412074       0.00000000      -0.00051764      -0.00196725       0.00303684
O        1.13975820       3.52802658       3.64769411       0.00000000      -0.00082800       0.01041108      -0.00430015
C       -0.06479939       5.62861270       3.82777936       0.00000000       0.03163846      -0.01703481      -0.00093785
C       -1.27578343       7.79526897       3.69421976       0.00000000      -0.00069698       0.00757086      -0.00057042
C       -2.50393319       9.95759118       3.65945788       0.00000000       0.00082808      -0.00479503      -0.00021083
C        4.89846791       1.40591129       3.63803884       0.00000000       0.00478790      -0.01066329       0.00601778
O        3.75660748       3.51732689       3.68672488       0.00000000       0.00021887       0.00713440       0.00197003
C        1.20708896       7.75954001       3.75966924       0.00000000      -0.00253259       0.02915886      -0.00800327
C       -0.03130713       9.92089835       3.65931572       0.00000000       0.00195191      -0.00327551       0.00319635
C        7.36478729       1.36707928       3.67237361       0.00000000       0.00454795       0.00063537       0.00189699
C        6.13705090       3.52176581       3.65559479       0.00000000       0.00124763       0.00867662       0.00481685
C        4.92842497       5.65428455       3.69061728       0.00000000      -0.00304309      -0.00407770       0.00282720
C        3.70585166       7.75069333       3.73766108       0.00000000      -0.00971092      -0.00164835       0.00153767
C        2.44450956       9.88058847       3.70472347       0.00000000      -0.00495698      -0.00522460       0.00156275
C        9.83456118       1.35979197       3.73123304       0.00000000      -0.00395544      -0.00209006      -0.00389344
C        8.59663099       3.50836718       3.71599510       0.00000000      -0.00117198       0.00037678      -0.00189833
C        7.36806242       5.65033923       3.69470259       0.00000000       0.00277265      -0.00707345      -0.00184718
C        6.14765018       7.78918067       3.71549286       0.00000000       0.00650564      -0.00474546       0.00134693
C        4.90465203       9.91166970       3.73177941       0.00000000       0.00114628      -0.00497759      -0.00475197
Ru       1.80163030       4.96747765       4.95988732       0.00000000      -0.12093737       0.04467137       0.18298301
O        3.17897981       5.28447264       6.16926740       1.00000000      -0.08451278       0.03432265      -0.17196905
O        2.34474484       6.38515464       6.08269732       1.00000000       0.18684996      -0.07578299      -0.01892844
