50
Lattice="12.336457 0.0 0.0 -6.168228499999997 10.683685154694365 0.0 0.0 0.0 15.0" Properties=species:S:1:pos:R:3:forces:R:3 energy=-447.73465112570125 free_energy=-447.73465112570125 stress="-0.005361556084849953 -0.00224933076583567 5.0986355246924565e-06 -0.00224933076583567 0.006384514734609719 -5.380762031011523e-06 5.0986355246924565e-06 -5.380762031011523e-06 -3.0136682238008515e-06" pbc="T T T"
C       -0.00681807      -0.00336425       3.72230010      -0.00697376       0.00008301       0.00616033
C       -1.26911689       2.09996372       3.62119546      -0.00176989      -0.00809394      -0.00168740
C       -2.49115968       4.25567606       3.53793679       0.00588067       0.00556735       0.00947174
C       -3.69623998       6.41443612       3.57455113      -0.00631318      -0.00149536       0.00565172
C       -4.92349085       8.56672787       3.68122085       0.00317567      -0.00027947      -0.01066415
C        2.45436149       0.05526639       3.76719492      -0.00454597      -0.00005335      -0.00074138
C        1.17546113       2.13914963       3.76374450       0.00588999       0.00521978       0.00379028
C       -0.08739386       4.23182908       3.60152641      -0.00723510       0.00046235       0.00107280
C       -1.26008310       6.39829467       3.58777158      -0.00354081      -0.00493563       0.00667053
C       -2.47451168       8.56602997       3.67381054       0.00907141       0.00134649       0.00061232
C        4.92352610       0.01166274       3.78079827       0.00172154       0.00123236       0.00442027
C        3.68321001       2.21655410       3.90035322      -0.00231049       0.00575530       0.00120725
C        1.15625931       6.33816497       3.91880718      -0.00130212       0.00909170      -0.00113530
C       -0.00809201       8.51776122       3.76647957       0.00171270      -0.00651997       0.00050166
C        7.39780892      -0.04541814       3.77254533       0.00205641      -0.00750072      -0.00429936
C        6.16812446       2.11932988       3.75098987      -0.00190306      -0.00654316      -0.00210572
C        4.97356366       4.28534703       3.82496130       0.00763769      -0.00142008      -0.00178826
N        3.83037800       6.39170477       3.92716072       0.00151838      -0.00003232      -0.00707799
C        2.47154516       8.46031711       3.86625804       0.00392108       0.00253640       0.00206524
C        9.85179203      -0.05207289       3.73771085      -0.00142308       0.00008620      -0.00207908
C        8.61907029       2.10209041       3.64848448      -0.00133572       0.00632553      -0.00323018
C        7.40834211       4.26249522       3.61796380       0.00336021      -0.00358890      -0.00893024
C        6.20934309       6.42822424       3.67003465      -0.00107549       0.00230078      -0.00762720
C        4.94503962       8.51888963       3.76887737      -0.00381036      -0.00228972       0.00506941
C       -0.02334904       1.42422608       3.69755722       0.00531686       0.00217847       0.00089844
C       -1.27315832       3.52055035       3.55265591      -0.00252893      -0.00770925      -0.00165561
C       -2.47683821       5.68475639       3.54135302      -0.00521449       0.00226607       0.01148083
C       -3.69677545       7.84704180       3.63210156       0.00726949       0.00075957      -0.00180114
C       -4.93152619      10.00071124       3.72586262      -0.00672814      -0.00042880      -0.00146609
C        2.42836773       1.49792458       3.83404337       0.00114203       0.00252493      -0.00539513
O        1.10487046       3.53487938       3.70626988       0.00725101       0.01132855       0.00187136
C       -0.03901663       5.64276511       3.66365420      -0.00563304      -0.00064509       0.00840158
C       -1.24739791       7.82861201       3.67032254       0.00285659      -0.00695269       0.00115517
C       -2.48209514       9.99987462       3.74698089       0.00173330       0.00377306       0.00093232
C        4.91752050       1.44338178       3.81793380      -0.00578517       0.00181038      -0.00105237
C        3.76502511       3.62362745       4.02910714       0.00008514       0.00608372       0.00427192
C        1.22654536       7.74812542       3.85689052       0.00374133       0.00566502       0.00288846
C       -0.01046225       9.94758192       3.77711432       0.00099994      -0.00769960       0.00416510
C        7.39564039       1.38548224       3.72199933       0.00000532      -0.00403302      -0.00819855
C        6.19229286       3.54479755       3.70935981       0.00331639      -0.00596996      -0.01067736
C        5.00122614       5.71917349       3.78595972       0.00396653       0.00045025      -0.00428531
C        3.73105580       7.76582471       3.86617549      -0.00114870      -0.00173400       0.00721308
C        2.45998421       9.89877293       3.79321304       0.00412090      -0.00222661       0.00186269
C        9.85101137       1.38206208       3.66078454      -0.00502045      -0.00058703      -0.00142836
C        8.62512178       3.53619147       3.58504618       0.00858663       0.00814829       0.00660810
C        7.42136762       5.69606049       3.60451462      -0.00550381      -0.00402833      -0.00380350
C        6.18944767       7.84480869       3.70220678      -0.00021533       0.00270137      -0.01129934
C        4.92852320       9.94232237       3.74089420      -0.00550845      -0.00187721       0.00814138
Ru       2.48409137       5.06345477       4.70920028      -0.00761525      -0.00472978      -0.01153416
O        2.74621433       5.41276321       6.40087353      -0.00189641       0.00367708       0.00737921
