49
Lattice="12.336457 0.0 0.0 -6.168228499999997 10.683685154694365 0.0 0.0 0.0 15.0" Properties=species:S:1:pos:R:3:forces:R:3 energy=-439.69604366684837 free_energy=-439.69604366684837 stress="-0.006184822088071503 0.0023608368514058823 6.790102952024465e-06 0.0023608368514058823 0.00025452091571035113 -2.3899212136715806e-06 6.790102952024465e-06 -2.3899212136715806e-06 8.514512188579744e-07" pbc="T T T"
C       -0.00723061       0.01337434       3.77845265      -0.00175644       0.00318705       0.00709598
C       -1.23830545       2.13137551       3.94043854      -0.00845838       0.00281797       0.00466764
C       -2.47284297       4.27280138       3.99922208       0.00159848       0.00275872      -0.00853270
C       -3.71541350       6.41562639       3.86865961       0.00054304       0.00541472      -0.00560091
C       -4.95557661       8.55453198       3.70841586      -0.00603565      -0.00236094       0.00431331
C        2.45470374       0.02504425       3.77945609       0.00830934      -0.00437271       0.00417482
C        1.23801373       2.18117701       3.81376307      -0.00536262       0.00252487       0.00649071
C       -0.02188769       4.30103241       3.99954079      -0.00287910       0.00045516       0.00443628
C       -1.28439803       6.44121563       4.02425658      -0.00044819      -0.00143389       0.00016457
C       -2.49614068       8.56566000       3.88653648       0.00552375      -0.00251886       0.00180585
C        4.93056282      -0.00163624       3.84009012      -0.00024215       0.00484920      -0.00235752
C        3.71430396       2.14235845       3.65485968       0.00278704       0.00324089       0.00199908
N        1.09988253       6.43185280       3.90445055      -0.01275046       0.00015359       0.00563590
C       -0.02558697       8.53618260       3.90372729      -0.00181216      -0.00438186      -0.00651581
C        7.40528988      -0.02963090       3.88780583      -0.00548466      -0.00322857       0.00558254
C        6.19417198       2.10526214       3.78075637       0.00464030       0.00194596      -0.00788539
C        5.02276100       4.23438538       3.37635433      -0.00193678       0.00252705      -0.00479433
S        3.70904948       6.40003202       2.37940285       0.00496595      -0.00470806       0.00323213
C        2.44949728       8.49692698       3.68449688       0.00181641       0.00607878      -0.00208305
C        9.86170383      -0.02250864       3.83919459       0.00516593      -0.00399279       0.00148208
C        8.64313888       2.11824119       3.92672651       0.00960815      -0.00364150       0.00289238
C        7.43023804       4.25950334       3.77975572      -0.00696034      -0.00074531      -0.00340673
C        6.20503437       6.40876292       3.47349552       0.00056471       0.00044561      -0.00394072
C        4.92370852       8.54378121       3.53824009       0.00005635      -0.00312057      -0.00536535
C       -0.00493140       1.43745244       3.85491465      -0.00953224       0.00465957       0.00199194
C       -1.24724137       3.55922310       4.01251621      -0.00250228       0.00165062      -0.00281473
C       -2.49176959       5.70363130       3.98802194       0.00022199       0.00413283       0.00043064
C       -3.72337838       7.84348608       3.82420462       0.00087633       0.00450917       0.00551791
C       -4.94516103       9.98815641       3.75183996       0.00155513      -0.00094499       0.00370325
C        2.46452390       1.45587575       3.74414871       0.00016561       0.00069292       0.00255061
C        1.19745718       3.60843847       3.86136848      -0.01013450       0.00184533      -0.00310111
C       -0.05718925       5.73851550       4.01717274      -0.00208792      -0.00085673       0.00603086
C       -1.26791069       7.85210930       3.95609267       0.00096481      -0.00566595      -0.01221947
C       -2.48507621       9.98940772       3.83112731       0.00925961      -0.00389233       0.00215291
C        4.95317823       1.41006247       3.75698161       0.00379226       0.00623407      -0.00085802
C        3.79026645       3.53428246       3.44523306       0.00962277      -0.00634421      -0.01086829
C        1.18972286       7.79048218       3.81416683       0.00101990       0.00095177       0.00929505
C       -0.00582013       9.95703464       3.88285885      -0.00807733      -0.00347031      -0.00626913
C        7.41729234       1.39430591       3.88313642       0.00631457      -0.00181031       0.00667728
C        6.22948689       3.52141187       3.65199005      -0.00773371       0.00169154      -0.00741266
C        5.06679811       5.63488389       3.16778409       0.00159858       0.00294772       0.00789548
C        3.67182317       7.87049031       3.36996055       0.00265530       0.00154669       0.00010163
C        2.46231452       9.93576855       3.83512777      -0.00016258       0.00355933       0.00180318
C        9.86781408       1.40619967       3.92421587       0.00502103      -0.00617618       0.00020725
C        8.64696649       3.54856789       3.92577192       0.00151130      -0.00072310      -0.00287275
C        7.41609117       5.68933258       3.72772658      -0.00207840       0.00179027      -0.01048001
C        6.16186153       7.83615424       3.53838545      -0.00621802      -0.00359129       0.00238876
C        4.92681900       9.96641014       3.73721583       0.00247218      -0.00334307      -0.00347596
Ru       2.57877794       4.98151408       3.68465931       0.01002309      -0.00128784       0.00613461
