52
Lattice="12.336457 0.0 0.0 -6.168228499999997 10.683685154694365 0.0 0.0 0.0 15.0" Properties=species:S:1:pos:R:3:forces:R:3 energy=-456.25194993810675 free_energy=-456.25194993810675 stress="-0.00485619251086644 -0.0020257048446888975 -3.06520475863932e-05 -0.0020257048446888975 0.006251609974566035 -4.029512181615285e-05 -3.06520475863932e-05 -4.029512181615285e-05 5.986863411425555e-06" pbc="T T T"
C       -0.00922782      -0.01196792       3.72936802      -0.00056642      -0.00632359       0.00347068
C       -1.27085631       2.09142653       3.62901478       0.00048759       0.00041678       0.00497450
C       -2.49213565       4.24746168       3.57146956      -0.00412567       0.00021525       0.00048737
C       -3.70024203       6.40428309       3.60581604      -0.00126931       0.00191679      -0.00249507
C       -4.92697857       8.55680508       3.69203874       0.00143090      -0.00474710      -0.00044031
C        2.45114661       0.04338067       3.78306262       0.00154611      -0.00286389      -0.00076399
C        1.17743309       2.13280951       3.75664590      -0.00532215      -0.00323425       0.00004043
C       -0.08574519       4.22559410       3.61256480       0.00472308      -0.00518076       0.01186339
C       -1.26222383       6.38894667       3.63005514       0.00554363      -0.00344748       0.00045304
C       -2.47740206       8.55563628       3.70759718      -0.00454231      -0.00061250      -0.00315965
C        4.92072544       0.00113177       3.81043179       0.00635148       0.00195820       0.00378598
C        3.68200931       2.20252893       3.92056235      -0.00357192       0.00725951       0.00373233
C        1.16141996       6.33517678       3.94432836       0.00736864      -0.00568615       0.01170160
C       -0.01196469       8.51049657       3.79600469      -0.00166598      -0.00041773       0.00618813
C        7.39571772      -0.05416799       3.79502407      -0.00047617       0.00940782      -0.00124012
C        6.16620559       2.10982133       3.77704821      -0.00232944       0.00324601      -0.00636928
C        4.96483181       4.27557003       3.84219718      -0.00096898       0.00304725       0.00245076
N        3.82069729       6.37828480       3.94930974      -0.00850405      -0.01208072      -0.00481681
C        2.46891386       8.45410697       3.87442000       0.00484725      -0.00226595       0.01016158
C        9.85030746      -0.06018393       3.75090958      -0.00584019       0.00067070      -0.00650496
C        8.61679080       2.09451242       3.67070524       0.00565896      -0.00741263       0.00321375
C        7.40355165       4.25298275       3.63947964      -0.00319021      -0.00178019      -0.00025679
C        6.20327163       6.41869798       3.66818415      -0.00545366       0.00480595       0.00416033
C        4.94153864       8.50843163       3.77296385       0.00294494       0.00540296      -0.00214956
C       -0.02465829       1.41543747       3.69848083      -0.00415152      -0.00615814       0.00154563
C       -1.27474582       3.51235844       3.56866758       0.00004498       0.00189613       0.00821311
C       -2.47942872       5.67575935       3.58348278       0.00092833       0.00250364      -0.00426633
C       -3.70009007       7.83684928       3.65810613      -0.00242406      -0.00231148       0.00041082
C       -4.93499930       9.99073451       3.73649437       0.00174756      -0.00866008      -0.00194648
C        2.42753455       1.48723292       3.84187565      -0.00494449       0.00132792      -0.00398015
O        1.11466595       3.53176370       3.66976851       0.00658583      -0.00230427      -0.00548633
C       -0.03772695       5.63523635       3.69738641       0.00589120      -0.00691284       0.00095242
C       -1.25066875       7.81910793       3.70895921      -0.00458524      -0.00111230       0.00071074
C       -2.48537492       9.98942698       3.77555165       0.00509692       0.00047611      -0.00751874
C        4.91651115       1.43170380       3.84498214      -0.00101506       0.00420548      -0.00728941
C        3.75663003       3.61061824       4.05672138      -0.00338578       0.00703043      -0.00103856
C        1.22395997       7.74468894       3.87804998       0.00221158      -0.00210046       0.00357871
C       -0.01318750       9.93870821       3.80594906       0.00453452       0.00328663      -0.00349619
C        7.39378949       1.37672053       3.74630342       0.00006665       0.00575752      -0.00962793
C        6.18684557       3.53510665       3.72829082      -0.00492659       0.00123050      -0.00227971
C        4.98852587       5.71096817       3.78913872      -0.00069325      -0.00201031       0.00676406
C        3.72474174       7.75104815       3.86976139       0.00755978      -0.00746819      -0.00194923
C        2.45850565       9.89119291       3.80731795      -0.00430162       0.00347594      -0.00060109
C        9.84888984       1.37407577       3.67621156       0.00445600      -0.00415613      -0.00367596
C        8.62256483       3.52869149       3.61301042      -0.00190782      -0.00799802       0.00235912
C        7.41523879       5.68671656       3.62104554      -0.00379964       0.00345831       0.00132337
C        6.18515857       7.83431810       3.70414484       0.00071862       0.00548712       0.00154305
C        4.92607707       9.93191311       3.75021727      -0.00476362       0.00493764      -0.00205194
Ru       2.46569052       5.03415870       4.70869634      -0.01082140       0.00465495      -0.01068093
O        3.05037212       5.75683793       6.31498542       0.00371185       0.00138973       0.00156855
O        2.41613722       4.99564231       7.42585157       0.00598755       0.01282667      -0.00305793
H        3.11549716       5.10021090       8.10893441       0.00910257       0.00495323       0.00149005
