51
Lattice="12.336457 0.0 0.0 -6.168228499999997 10.683685154694365 0.0 0.0 0.0 15.0" Properties=species:S:1:pos:R:3:initial_magmoms:R:1:forces:R:3 energy=-448.33285228533776 free_energy=-448.33285228533776 stress="-0.004803250303186207 0.0005920596006934817 2.9713735611814926e-05 0.0005920596006934817 -0.00434729992815764 -1.144476584509358e-05 2.9713735611814926e-05 -1.144476584509358e-05 8.905271612536268e-06" pbc="T T T"
C        0.04489092      -0.02544234       3.60760787       0.00000000      -0.01098938       0.00702834      -0.00026899
C       -1.19404992       2.09236989       3.47729930       0.00000000      -0.00117841      -0.00212266       0.01616945
C       -2.42722131       4.23843814       3.37326713       0.00000000       0.01006486      -0.00872838       0.01195281
C       -3.65808391       6.38120794       3.42261407       0.00000000       0.00108922      -0.00221868       0.00200516
C       -4.89509211       8.51761848       3.58401975       0.00000000      -0.00304246       0.00494936       0.00584922
C        2.50792984      -0.02174317       3.64768786       0.00000000       0.00815175      -0.00750490       0.00385876
C        1.27044874       2.11170381       3.83937298       0.00000000      -0.00673341       0.00173818       0.00227946
C       -0.02267553       4.20282022       3.87632603       0.00000000      -0.00298697      -0.00738814      -0.00242059
C       -1.22920345       6.37537489       3.74770455       0.00000000       0.00260786       0.00103317      -0.00268919
C       -2.42535747       8.51855049       3.60909140       0.00000000       0.00218448      -0.00872651       0.01673727
C        4.97377597      -0.02821507       3.57997141       0.00000000       0.00027041       0.00535085      -0.00156094
C        3.75655771       2.10133713       3.79073736       0.00000000       0.00323188      -0.00063163       0.01595193
P        1.24656184       6.32934292       4.94100120       0.00000000      -0.00414182      -0.01313381       0.00767759
C        0.02582341       8.54323112       3.90056350       0.00000000      -0.00284077       0.01446299      -0.01109264
C        7.44208840      -0.02832441       3.55280706       0.00000000      -0.00162521      -0.00972582       0.00651020
C        6.21928195       2.08428360       3.40387577       0.00000000       0.00341687      -0.00327463       0.00489105
C        5.04092720       4.18577573       3.72439389       0.00000000      -0.00474338       0.01177064      -0.00001358
P        3.72374208       6.24168633       4.71497834       0.00000000      -0.01012853      -0.01242540      -0.00873805
C        2.49944650       8.59312189       4.05411256       0.00000000       0.00899902       0.00233284      -0.00740012
C        9.91404994      -0.02852350       3.56333479       0.00000000       0.00058198       0.01186996      -0.00352561
C        8.68242200       2.09475810       3.31615009       0.00000000      -0.00234490      -0.00138985      -0.00199837
C        7.45459911       4.23626707       3.30849251       0.00000000      -0.00076529       0.00062038       0.00991772
C        6.23916352       6.37759153       3.62015662       0.00000000       0.00319155      -0.00020785       0.00032002
C        4.98337685       8.52919469       3.82883088       0.00000000       0.00738790      -0.00599943      -0.00168594
C        0.03903382       1.39388199       3.62143666       0.00000000      -0.00472204       0.00474862      -0.00883028
C       -1.21380555       3.51004168       3.50323801       0.00000000       0.00631216      -0.01175432       0.00118937
C       -2.43431284       5.66419081       3.46326330       0.00000000       0.00451548      -0.00445935       0.00472787
C       -3.66017659       7.80603385       3.52541055       0.00000000      -0.00343817      -0.00006951      -0.00193368
C       -4.89038962       9.94518821       3.61780371       0.00000000      -0.00532960       0.00729855      -0.00771039
C        2.51057139       1.39773336       3.78908268       0.00000000      -0.00331308      -0.00203713      -0.01836631
C        1.19108278       3.49281510       4.14148661       0.00000000      -0.00475052       0.00486682      -0.00265116
C       -0.09841979       5.59909618       4.06918469       0.00000000      -0.00645932      -0.00828494       0.00352158
C       -1.20389297       7.80997196       3.77079084       0.00000000       0.00683233       0.00248897      -0.01730038
C       -2.42986643       9.94656266       3.61285474       0.00000000       0.01146602      -0.00951772      -0.00171064
C        4.98389031       1.38764604       3.55776118       0.00000000       0.00309033       0.00181282       0.00173212
C        3.86008844       3.47836665       4.06367791       0.00000000       0.00707424       0.00172375       0.00139951
C        1.25474488       7.94286608       4.27151907       0.00000000      -0.00040382       0.00831241      -0.00158193
C        0.03775835       9.94898197       3.64869026       0.00000000      -0.00719254       0.00696626      -0.00386923
C        7.45063642       1.37998266       3.37442499       0.00000000       0.00090121      -0.01534695      -0.00620416
C        6.23966588       3.50070392       3.39347060       0.00000000      -0.00399877       0.00276518       0.00570950
C        5.08261388       5.59651826       3.86158542       0.00000000      -0.00175538       0.01280832       0.00424073
C        3.74401468       7.89398640       4.15625361       0.00000000       0.01151072      -0.00160203       0.00027674
C        2.50719293       9.96572777       3.68981774       0.00000000       0.00613287       0.00107434      -0.00784463
C        9.91193718       1.38272910       3.40695710       0.00000000      -0.00011208       0.00972153      -0.00195828
C        8.68296951       3.52292693       3.27684701       0.00000000       0.00390602       0.00042059      -0.00527969
C        7.45415274       5.66463722       3.39945710       0.00000000       0.00057845      -0.00061573      -0.00267424
C        6.21180383       7.80404506       3.68743448       0.00000000       0.00606841      -0.00472433       0.00623040
C        4.97998875       9.94621348       3.64869962       0.00000000      -0.00619936       0.00065588      -0.00635293
Ru       2.54842043       4.40328136       5.29959091       0.00000000      -0.01334950       0.00675925       0.00562751
O        1.02164278       6.22607828       6.57009872       1.00000000      -0.00172955       0.00674111       0.00064639
O        1.80335978       4.97242873       6.95967022       1.00000000      -0.00529177       0.00156861      -0.00376041
