51
Lattice="12.336457 0.0 0.0 -6.168228499999997 10.683685154694365 0.0 0.0 0.0 15.0" Properties=species:S:1:pos:R:3:initial_magmoms:R:1:forces:R:3 energy=-449.2381603463556 free_energy=-449.2381603463556 stress="-0.004001224188487444 -0.002912823293254191 -0.00041405707531842674 -0.002912823293254191 0.0004129934498427373 0.00024581592615383014 -0.00041405707531842674 0.00024581592615383014 0.0009704188100289103" pbc="T T T"
C        0.03180764       0.07670853       3.81203377       0.00000000       0.01850885       0.01449282       0.00968225
C       -1.22599603       2.18382796       3.77587189       0.00000000      -0.01411662       0.00888627       0.01252721
C       -2.45282171       4.33555835       3.76427032       0.00000000       0.00308221      -0.00367661       0.00506078
C       -3.64883391       6.48097834       3.79827327       0.00000000      -0.01455825       0.00082781      -0.00975390
C       -4.87651091       8.63062322       3.82643746       0.00000000      -0.01665483      -0.01319866      -0.01401116
C        2.48655374       0.04802633       3.55188733       0.00000000      -0.01751590      -0.01326977      -0.01301130
C        1.20568137       2.25631304       3.54312636       0.00000000       0.02789577      -0.00421347       0.02113750
C       -0.04484302       4.31081602       3.53433692       0.00000000       0.00105753       0.01679192       0.02242920
C       -1.17581768       6.44712428       3.73486015       0.00000000       0.00710417      -0.01330528       0.01274442
C       -2.41268512       8.60585466       3.70939713       0.00000000      -0.02479012      -0.01013246       0.00920745
C        4.97529374       0.05205387       3.58176678       0.00000000      -0.00476781      -0.01494806      -0.01851153
C        3.70947393       2.14880032       3.27742971       0.00000000      -0.01167334       0.01898071       0.02330256
C        1.14105913       6.46947890       4.44285424       0.00000000      -0.21207556       0.24087107      -0.04471522
C        0.05681155       8.58417620       3.77551928       0.00000000      -0.00921655      -0.01284350      -0.02167658
C        7.43010189       0.04601861       3.75047292       0.00000000       0.00781977      -0.01265357      -0.02479436
C        6.18486998       2.20115955       3.61260916       0.00000000       0.00655863      -0.00191492      -0.00490822
C        5.00908816       4.42347047       3.61354156       0.00000000       0.02598669      -0.00209755       0.01087456
N        3.82928141       6.52232362       3.64302635       0.00000000      -0.07267225      -0.05549206       0.06441841
C        2.49830102       8.56584636       3.87787385       0.00000000      -0.00536655      -0.00535810      -0.02555738
C        9.88891216       0.04514005       3.84279879       0.00000000       0.01562375      -0.01935720      -0.02022678
C        8.64738793       2.19269782       3.78235405       0.00000000       0.00165384      -0.00127864      -0.02042679
C        7.42731271       4.34398156       3.78210555       0.00000000       0.01833350       0.01236070      -0.02260358
C        6.24604372       6.51815753       3.85783233       0.00000000      -0.03305572      -0.00967211       0.01467193
C        4.98828111       8.61727357       3.88148919       0.00000000       0.00507857      -0.02460879       0.02925951
C        0.00575687       1.49259668       3.76666370       0.00000000      -0.00481188       0.01145971       0.00929902
C       -1.23664497       3.61182723       3.71847844       0.00000000      -0.00329187       0.01094523       0.02528603
C       -2.42780275       5.75479612       3.73795383       0.00000000      -0.01306696       0.00102863       0.02727711
C       -3.64592438       7.90639887       3.78171750       0.00000000      -0.02190864      -0.01077081      -0.00179182
C       -4.89822921      10.04930781       3.74762698       0.00000000      -0.01066635      -0.01929796      -0.05061221
C        2.44578508       1.46653061       3.30940044       0.00000000      -0.01983445       0.01295832       0.00422820
O        0.97083044       3.57431007       2.95989615       0.00000000      -0.12984931      -0.13411019       0.02168586
C        0.03820296       5.70913611       3.75134587       0.00000000      -0.00347932       0.03169203       0.02841846
C       -1.18078826       7.87852197       3.75132712       0.00000000      -0.01396126      -0.01730237       0.00596224
C       -2.43070409      10.02925737       3.60853648       0.00000000      -0.02014633      -0.00929444      -0.03048756
C        4.98334064       1.46805651       3.47329517       0.00000000       0.00556468       0.00164250      -0.00863816
P        3.45449851       3.86214535       3.07538981       0.00000000      -0.16477307       0.22857720       0.08188310
C        1.27035361       7.87196089       3.91216243       0.00000000      -0.01182032      -0.01401960       0.02034610
C        0.04050231      10.02035367       3.69172389       0.00000000       0.00658355      -0.00994506      -0.00855657
C        7.41697420       1.48230287       3.72499625       0.00000000       0.00462755      -0.00681950      -0.03042731
C        6.18238279       3.64282373       3.67188541       0.00000000       0.02683065       0.00082355       0.03012843
C        5.00008311       5.86236364       3.72717989       0.00000000       0.02449660       0.02169983       0.04889682
C        3.77160096       7.85355297       3.82594714       0.00000000       0.02525840      -0.02135135      -0.00438899
C        2.49349536       9.99852529       3.82564725       0.00000000       0.00749214      -0.00674963      -0.00058828
C        9.88352344       1.47606616       3.80861931       0.00000000      -0.00126576      -0.00451213       0.03380535
C        8.64581310       3.62143157       3.78541095       0.00000000       0.01483456      -0.00079750      -0.00099698
C        7.45209511       5.77178234       3.83067871       0.00000000      -0.01033545       0.01608864      -0.01800669
C        6.23353012       7.92782240       3.88362332       0.00000000      -0.01543388      -0.00516554      -0.00135534
C        4.96449725      10.03438190       3.86736770       0.00000000       0.03121903       0.00789155      -0.00356389
Ru       2.65699384       2.62213175       4.90975938       0.00000000       0.48956359       0.29499075       1.03608937
O        2.59706039       2.88775184       6.54802710       1.00000000      -0.01413049      -0.09642193      -0.83991293
O        1.66874268       6.11560556       5.50085285       1.00000000       0.12006480      -0.37843044      -0.36909833
