52
Lattice="12.336457 0.0 0.0 -6.168228499999997 10.683685154694365 0.0 0.0 0.0 15.0" Properties=species:S:1:pos:R:3:initial_magmoms:R:1:forces:R:3 energy=-464.68417653187515 free_energy=-464.68417653187515 stress="-0.002364379273793733 -1.558979758593053e-05 -4.6438414336046165e-06 -1.558979758593053e-05 -0.0011906052172784279 1.7958573314948093e-06 -4.6438414336046165e-06 1.7958573314948093e-06 2.7003576098009377e-06" pbc="T T T"
C        0.01038087       0.01716714       3.58247910       0.00000000       0.00057873       0.00212799      -0.00343688
C       -1.22230167       2.15653335       3.64267702       0.00000000       0.00021547      -0.00306472       0.00073459
C       -2.45321608       4.29124895       3.63046376       0.00000000       0.00028825       0.00093768       0.00193943
C       -3.68861024       6.42794620       3.57089781       0.00000000      -0.00477151       0.00528304      -0.00468182
C       -4.92143483       8.56634149       3.55142459       0.00000000       0.00201851       0.00058927       0.00448666
C        2.47929317       0.01760558       3.57287134       0.00000000       0.00062334      -0.00597881      -0.00341047
C        1.24043843       2.14330858       3.70401590       0.00000000       0.00141889       0.00352778      -0.00135690
C        0.01239452       4.30668275       3.82800555       0.00000000       0.00056156       0.00393441      -0.00169802
C       -1.22965822       6.43718995       3.65724380       0.00000000      -0.00069041      -0.00195688       0.00133662
C       -2.45604388       8.56712595       3.55373014       0.00000000      -0.00013083      -0.00630731      -0.00421112
C        4.94795751       0.01833258       3.59406711       0.00000000       0.00239325      -0.00119763      -0.00228946
C        3.71764727       2.14485114       3.71504471       0.00000000      -0.00027947      -0.00135612       0.00613002
C        2.47665226       4.17446136       4.15822210       0.00000000      -0.00110136      -0.00541805       0.00104171
N        1.11555781       6.49449776       4.09264553       0.00000000       0.00539491      -0.00376723       0.00336736
C        0.00585650       8.56192682       3.66402962       0.00000000      -0.00253416      -0.00001393       0.00317018
C        7.41656445       0.00806820       3.64569865       0.00000000       0.00264880       0.00342353      -0.00259869
C        6.18049978       2.15754430       3.66301490       0.00000000       0.00100092      -0.00093984      -0.00959882
C        4.94563692       4.30801873       3.85074280       0.00000000      -0.00074657       0.00026952      -0.00012069
N        3.84510947       6.49877935       4.11717623       0.00000000      -0.00419481      -0.00214625       0.00005477
C        2.47998770       8.53153676       3.81482780       0.00000000      -0.00164638       0.00320113      -0.00172855
C        9.87832444       0.00759904       3.63705582       0.00000000      -0.00092320       0.00321362       0.00198785
C        8.64742374       2.15171427       3.62539782       0.00000000      -0.00098807      -0.00063293       0.00268531
C        7.41176120       4.29152385       3.64451242       0.00000000      -0.00339868       0.00015492      -0.00102492
C        6.18869943       6.43700652       3.67304836       0.00000000      -0.00102908       0.00133034      -0.00510892
C        4.95343842       8.56126653       3.66341534       0.00000000       0.00374295       0.00301219       0.00097096
C        0.00951396       1.44120963       3.63008241       0.00000000       0.00275418       0.00157475      -0.00251011
C       -1.21547078       3.58646129       3.68663878       0.00000000       0.00250366      -0.00130929       0.00223804
C       -2.45497082       5.71566453       3.60511793       0.00000000      -0.00440311       0.00334267       0.00166194
C       -3.68851553       7.85207270       3.54628364       0.00000000      -0.00119593       0.00150911      -0.00201176
C       -4.92325499       9.99203288       3.55597266       0.00000000      -0.00129703      -0.00228306       0.00137116
C        2.47946371       1.43722457       3.65878074       0.00000000      -0.00042837      -0.00299350       0.00067227
C        1.23801906       3.56961481       3.88864752       0.00000000      -0.00025930       0.00410640       0.00027934
C       -0.00662952       5.74153279       3.84507318       0.00000000       0.00219475       0.00118828       0.00128705
C       -1.22709362       7.85545463       3.61436247       0.00000000      -0.00129966      -0.00394176       0.00032838
C       -2.45438907       9.99279289       3.56168947       0.00000000       0.00254970      -0.00718470       0.00114595
C        4.94866599       1.44235065       3.64592823       0.00000000       0.00083743       0.00017741       0.00154158
C        3.71884829       3.57130528       3.90239389       0.00000000      -0.00059919      -0.00071427       0.00501263
C        1.21739651       7.84439985       3.84258942       0.00000000      -0.00192921      -0.00122260       0.00563831
C        0.01343193       9.98686495       3.62154660       0.00000000       0.00312785       0.00187951      -0.00178471
C        7.41354208       1.43824552       3.63455040       0.00000000       0.00118922       0.00016376      -0.00140879
C        6.17331160       3.58764659       3.70900909       0.00000000      -0.00227173      -0.00153233      -0.00243755
C        4.96471608       5.74452329       3.86952346       0.00000000      -0.00165004      -0.00029857       0.00024901
C        3.74305674       7.84447544       3.85193350       0.00000000      -0.00097118      -0.00107196      -0.00999820
C        2.47927510       9.96197184       3.68788940       0.00000000       0.00049936       0.00511939       0.00090392
C        9.88097755       1.43761252       3.62192098       0.00000000      -0.00180494      -0.00040302       0.00714536
C        8.64729717       3.57795382       3.62088054       0.00000000      -0.00191319      -0.00011954       0.00183625
C        7.41420359       5.71583472       3.61699700       0.00000000      -0.00292350       0.00213202      -0.00580959
C        6.18618338       7.85437626       3.61714541       0.00000000       0.00443478       0.00205408       0.00137244
C        4.94499237       9.98588877       3.61194086       0.00000000       0.00012427       0.00485840       0.00181197
Ru       2.45334071       5.67358235       5.35252203       0.00000000       0.00121804      -0.00579536       0.01470082
O        2.82266902       5.08283176       7.13019726       1.00000000      -0.00940905       0.00335502      -0.00470445
O        1.44674186       5.23952481       6.92410652       1.00000000       0.01247111      -0.00081653      -0.00517146
