50
Lattice="12.336457 0.0 0.0 -6.168228499999997 10.683685154694365 0.0 0.0 0.0 15.0" Properties=species:S:1:pos:R:3:forces:R:3 energy=-445.7161377189437 free_energy=-445.7161377189437 stress="-0.007981876354754593 0.0009731654747606501 8.589529152397898e-06 0.0009731654747606501 0.0014601587910531434 -8.016589410033293e-06 8.589529152397898e-06 -8.016589410033293e-06 9.308630526144752e-06" pbc="T T T"
C        0.00967834      -0.00261064       3.73182094      -0.00598220      -0.00810532       0.00669101
C       -1.22925683       2.12218437       3.48563659      -0.00262904       0.00109673      -0.00185305
C       -2.49149080       4.27607325       3.55813263      -0.00132099      -0.00962274       0.00404839
C       -3.70495637       6.42283053       3.76247397       0.00068750       0.00996508       0.00386353
C       -4.92141245       8.56403011       3.86811002       0.00111447      -0.00046613      -0.00903736
C        2.47866213       0.02262467       3.83901579      -0.00728483      -0.00723258      -0.00165577
C        1.26612614       2.08114144       3.43990327      -0.00300389      -0.00180698       0.00706137
C       -0.12628843       4.33550255       3.16820457       0.01148353       0.00155508       0.00023770
C       -1.29978325       6.45084829       3.53108081      -0.00305170      -0.00518991      -0.00419510
C       -2.47166649       8.57365510       3.79284073       0.00234149      -0.00071825      -0.00524953
C        4.94985022       0.01126039       3.84890320      -0.00726447      -0.00090331       0.01245511
C        3.71976023       2.18852461       3.88061615       0.00908997       0.00146590       0.00320124
C        1.13408534       6.38931338       3.60689669       0.01076566      -0.00699275      -0.01396532
C       -0.00178879       8.54302758       3.73982356      -0.00070956       0.00109973       0.00674456
C        7.42685137      -0.03246543       3.81218978       0.00375369      -0.00533131      -0.00858392
C        6.20319150       2.12196522       3.88300119       0.01016134      -0.00401772       0.00615123
C        4.98811338       4.27839728       3.99370725      -0.00838773       0.00763772      -0.00260966
N        3.82417964       6.39517420       4.04001291      -0.00706480      -0.00027287      -0.00487410
C        2.48848802       8.47799295       3.84382193       0.00206814       0.00047632       0.00269318
C        9.88109937      -0.03430659       3.74930009       0.00324783       0.01407427       0.00352914
C        8.65461613       2.11633290       3.71821710      -0.00662868      -0.00147734       0.00481300
C        7.42578930       4.26753397       3.83396983      -0.00550460       0.00043045      -0.00843483
C        6.21123430       6.42849878       3.93707869       0.00235756       0.00075466      -0.00016230
C        4.95190685       8.52351417       3.89450521       0.00307310      -0.00150397      -0.00315981
C        0.01026632       1.42000728       3.53762161      -0.00533754      -0.00780071       0.00972328
C       -1.26887907       3.55358225       3.37649354       0.00875222      -0.00149951      -0.00217236
C       -2.49800418       5.70776477       3.60270833      -0.00577251      -0.00569660       0.00939635
C       -3.69711471       7.85125728       3.81572683       0.00259389       0.00857914      -0.00859658
C       -4.92242905       9.99014900       3.82294985      -0.00682947      -0.00648176      -0.00158754
C        2.48209330       1.45052456       3.76217335       0.00372833      -0.00168282      -0.00634932
S        1.38108179       3.64933865       2.69580954       0.00633562       0.01774733       0.00091709
C       -0.08509197       5.73131074       3.37419405       0.00423555      -0.00081566      -0.00405070
C       -1.25139908       7.86175623       3.69033463       0.00101823      -0.00447060       0.00782383
C       -2.45811382       9.99350174       3.84836301      -0.00734385      -0.00415416       0.01096554
C        4.95688169       1.43585082       3.89053527       0.01004310      -0.00059010       0.00342126
C        3.78178434       3.58652498       4.00482153      -0.00482686       0.00351422       0.00594749
C        1.23527894       7.78290783       3.73592726       0.00219584      -0.00477566       0.00238293
C        0.01327483       9.96102556       3.81115860      -0.00402941       0.00298064       0.00645195
C        7.43214542       1.39625287       3.81368334       0.00438426      -0.00935589      -0.00338194
C        6.21630508       3.54648583       3.91733652      -0.00733552      -0.00049143      -0.01524246
C        4.99909036       5.72100634       4.00377665      -0.00671011       0.00508902      -0.00988310
C        3.73561210       7.76583373       3.93378980      -0.00019642      -0.00023528       0.00191857
C        2.48768573       9.91366959       3.80742001       0.00882161       0.00487352      -0.00632313
C        9.88875855       1.40141370       3.64577979      -0.00557926       0.01175231       0.00389475
C        8.64370230       3.54867509       3.70622401      -0.00735781      -0.00601990       0.00029447
C        7.42080038       5.69915837       3.84963445       0.00462179       0.00326586       0.00454068
C        6.19042802       7.84397463       3.91176420       0.00426319      -0.00126910      -0.00852517
C        4.94545583       9.94803364       3.79095828      -0.00362851       0.00073363       0.00498888
Ru       2.32175019       4.98913132       4.36609673       0.00289753       0.00081748      -0.00017122
O        1.98246831       4.89526255       6.07332724      -0.00025569       0.01107129      -0.00409228
