50
Lattice="12.336457 0.0 0.0 -6.168228499999997 10.683685154694365 0.0 0.0 0.0 15.0" Properties=species:S:1:pos:R:3:forces:R:3 energy=-449.7147401766937 free_energy=-449.7147401766937 stress="-0.004275128733809908 0.0035165542840240272 -5.080949267077241e-06 0.0035165542840240272 -0.00834222741151628 7.0188360156317234e-06 -5.080949267077241e-06 7.0188360156317234e-06 3.7802483117751697e-06" pbc="T T T"
C       -0.01867343      -0.01194826       3.85478561      -0.00368819      -0.00722090      -0.00321733
C       -1.23351858       2.14095112       3.90721198      -0.00364891      -0.00243342      -0.00250934
C       -2.46235408       4.26834190       3.90648422      -0.00267134       0.00683182       0.00752285
C       -3.71922992       6.39684766       3.85358753      -0.00542841       0.00816110       0.00130767
C       -4.96880134       8.52573218       3.81415254       0.00630616      -0.00192927       0.00243647
C        2.43978545      -0.02942951       3.81087811      -0.00519808      -0.00018028      -0.00188105
C        1.22640634       2.11196676       3.90755571       0.00280022       0.00361107      -0.00075397
C        0.01486639       4.28077626       4.00158948       0.00641985      -0.00799908      -0.01092868
C       -1.25725264       6.41326238       3.91145532       0.00191157       0.00437781      -0.00443910
C       -2.50551326       8.53434546       3.81165145       0.00229351       0.00468662       0.00428340
C        4.90774174      -0.01742065       3.70259881      -0.00245191      -0.00089853       0.01697681
C        3.68610012       2.08158241       3.71450234      -0.00210204       0.00241166       0.00198889
C        2.50322032       4.19132498       3.92816180       0.00818724       0.00823636      -0.00861937
C        1.18303757       6.47964864       3.93389749      -0.00961697       0.00400105      -0.00240860
C       -0.05404025       8.55873295       3.71950077       0.00230851       0.00256944       0.00841148
C        7.37634506       0.00682964       3.67758676       0.00690423      -0.00437050       0.01025390
C        6.16274876       2.10911101       3.67448319      -0.00039974       0.00235353       0.01373797
C        4.94855156       4.19964831       3.54612217      -0.00805938       0.00308431       0.00417862
S        3.81710929       6.47597792       2.20081863       0.00006703       0.00543460      -0.00342140
C        2.41147783       8.59363650       3.55425461       0.00183852      -0.00370725      -0.00013234
C        9.85726571       0.01343660       3.75595885      -0.00753182       0.00994898      -0.00241486
C        8.63347916       2.13427284       3.78717345      -0.00221223      -0.00759627      -0.00178837
C        7.40841641       4.25422350       3.75397053       0.00773992      -0.01434765      -0.00935277
C        6.15715387       6.39469569       3.67977033      -0.00069968      -0.00664886      -0.00350637
C        4.91625300       8.54255084       3.68356106       0.00068391       0.00472724      -0.00731792
C       -0.00779181       1.41495862       3.90351161       0.00024187      -0.00427293       0.00149907
C       -1.22349174       3.56533773       3.95389927      -0.00154012      -0.00006713      -0.01176234
C       -2.47798617       5.69261963       3.90386477      -0.00482919       0.01288581       0.00217258
C       -3.73413858       7.81729895       3.83855307       0.00467292       0.00655536      -0.01311696
C       -4.96399119       9.94913605       3.83707440      -0.00034359      -0.00676345       0.00006510
C        2.44629551       1.39013792       3.81519273      -0.00241834       0.00128499       0.00002361
C        1.24623108       3.55297868       3.96754384       0.01537435       0.00706618       0.00291497
C        0.00109356       5.71100891       3.97232525       0.00454083      -0.00583477      -0.00624272
C       -1.27285466       7.83038265       3.81828096       0.00287597       0.00448976       0.00147266
C       -2.49625684       9.95247497       3.76681906      -0.00542301       0.00158544       0.00705175
C        4.92313618       1.39521633       3.67793746      -0.00254204       0.00083049       0.00728273
C        3.70997419       3.49919988       3.68611311      -0.00089479       0.00182840       0.00559100
C        1.18597303       7.87153121       3.69542123      -0.00102871      -0.00444048      -0.00821461
C       -0.02968861       9.97322257       3.68042004       0.00278264       0.00095461       0.01018630
C        7.39409470       1.41866683       3.71272217       0.00030833      -0.00489935       0.01045560
C        6.18540124       3.52520569       3.64912449      -0.00397989       0.00198762       0.00331071
C        4.95086733       5.63396928       3.43841996      -0.00672213      -0.00253823      -0.00936023
C        3.65420689       7.87773269       3.44384753      -0.00158420       0.00729290      -0.00469168
C        2.44588686      10.00228313       3.65412861       0.00464196      -0.00266473       0.00218292
C        9.86790857       1.43153762       3.82463315      -0.00590430       0.00324620       0.01025336
C        8.64168014       3.55435235       3.82535110       0.00647216      -0.01062035      -0.00176655
C        7.38781207       5.68109821       3.78411390       0.00217004      -0.01086366       0.00640993
C        6.12785119       7.81008135       3.72457014       0.00397307      -0.00132050      -0.01175315
C        4.91434078       9.96530995       3.78818150      -0.01062495       0.00688632      -0.00297142
Ru       3.01115038       6.00986764       4.25689716       0.00602916      -0.01571209      -0.00939923
