53
Lattice="12.336457 0.0 0.0 -6.168228499999997 10.683685154694365 0.0 0.0 0.0 15.0" Properties=species:S:1:pos:R:3:forces:R:3 energy=-462.383343475859 free_energy=-462.383343475859 stress="-0.0028702451725349577 0.005908251291306787 -2.691640185073063e-06 0.005908251291306787 -0.0009364835424057018 -6.617322196276024e-06 -2.691640185073063e-06 -6.617322196276024e-06 -1.0064716609778445e-05" pbc="T T T"
C        0.06501786      -0.03234726       3.84583218       0.00420581       0.00512236      -0.01002771
C       -1.13296582       2.12194517       3.88094349      -0.00322638      -0.00481208       0.00321677
C       -2.36005103       4.24426298       3.83594397       0.00139740      -0.00495581       0.00260239
C       -3.63667884       6.37156677       3.76365637      -0.00031440       0.00555001       0.01090071
C       -4.88683659       8.50728138       3.76862097       0.00453950       0.00433265      -0.00084858
C        2.51995882      -0.03404472       3.76132383       0.00403900       0.00204263       0.01892066
C        1.32782600       2.14573844       3.82254500       0.00263370      -0.00127587       0.01233954
C        0.12244726       4.30280248       3.92055174       0.00230409      -0.00068873       0.00514803
C       -1.18414207       6.39746302       3.85922544      -0.01029331      -0.00144237       0.00982394
C       -2.42521869       8.51641101       3.78815959       0.00481824       0.00297326      -0.01479770
C        4.99481147      -0.03722842       3.74122863      -0.00350505      -0.00322167       0.00418229
C        3.78242048       2.06341527       3.62536670       0.00045635       0.00173310      -0.00135886
C        2.65880684       4.25671923       3.82573275      -0.00600968       0.00693450       0.00177866
O        1.15477126       6.48639364       4.08522498       0.00317865      -0.00373184      -0.00876060
C        0.01649226       8.53181998       3.82535694      -0.00032185       0.00338699      -0.00802771
C        7.47228129      -0.04806181       3.82155550      -0.00458034       0.00580591      -0.00693678
C        6.27020120       2.06616729       3.66503312      -0.00087851      -0.00439837       0.01614722
C        5.06379111       4.14169187       3.47055867      -0.00168304      -0.00210717       0.00351448
P        3.59643243       6.24585127       2.68437513       0.00831102      -0.00266983      -0.01975084
C        2.46804540       8.49643262       3.84769685       0.00075361       0.00218517       0.00169756
C        9.94137650      -0.04250591       3.88220480      -0.00649138      -0.00117326       0.00355315
C        8.73499396       2.09199412       3.80928861       0.00074581      -0.00241285       0.00429633
C        7.51307409       4.21685587       3.68372974      -0.00048288      -0.00316040       0.00822100
C        6.25726968       6.36573944       3.64451041       0.00364291       0.00050898       0.00275013
C        4.97950373       8.47810142       3.81270787      -0.00424540       0.00379144      -0.01340482
C        0.09216599       1.40944212       3.86062467       0.00060086       0.00186252       0.00222478
C       -1.11163965       3.55905857       3.88553755       0.00337618      -0.00434309       0.00554627
C       -2.39818768       5.66446309       3.82061778      -0.00651703      -0.00288151      -0.00992786
C       -3.65815289       7.79750514       3.77010852       0.00579096       0.00671878       0.01762903
C       -4.88138715       9.93316799       3.79671495       0.00597941       0.00415021       0.00569325
C        2.53694018       1.39074227       3.74014122       0.00086839       0.00071189      -0.01092131
C        1.38093477       3.59815027       3.86852009       0.00319042      -0.00048310       0.00073633
C        0.03166245       5.71861161       3.93612575      -0.00752630      -0.00276228       0.00333041
C       -1.20588315       7.81601222       3.82456438      -0.00135978       0.00027921       0.00369816
C       -2.41804206       9.94200249       3.75833667       0.00001873       0.00012531       0.00111143
C        5.01817826       1.37099519       3.66532359      -0.00074821      -0.00478839      -0.01077855
C        3.81986715       3.47731146       3.55763195      -0.00466853       0.00362364       0.00498929
C        1.21923082       7.84535214       3.85466979       0.00349273       0.00285953      -0.00776300
C        0.05658885       9.94680630       3.79616247      -0.00290033       0.00295933      -0.00432890
C        7.49689224       1.37147687       3.77049471       0.00216098       0.00186659      -0.00657204
C        6.29523040       3.47883260       3.58507521      -0.00039394      -0.00623889      -0.00674218
C        5.03131973       5.58459717       3.54058489       0.00176905       0.00022280       0.00016730
C        3.70824451       7.72888009       3.81991284      -0.00335433      -0.01198006      -0.00540107
C        2.52532968       9.91950827       3.86714983      -0.00685519       0.00394915      -0.00503741
C        9.96523504       1.38789913       3.86962500      -0.00407605      -0.00514069      -0.00573004
C        8.74293613       3.51824157       3.77753989       0.00103597      -0.00410591       0.00491358
C        7.47802887       5.65160662       3.69663440       0.00342802      -0.00032549      -0.00090103
C        6.21225429       7.77649234       3.73681763       0.00016852       0.00338831       0.00566523
C        4.99765642       9.91345747       3.86721953      -0.00091585       0.00643041      -0.00912651
Ru       3.41699678       5.84654913       4.83557270       0.00034014      -0.00685839       0.01132118
O        2.69486245       5.71917893       6.50658909       0.00452751       0.00152127      -0.01132862
O        1.68050199       6.80555533       6.77278866       0.01097040      -0.00964943      -0.01399606
H        1.77139811       6.82162612       7.75071266      -0.00739661       0.01057154       0.01634908
