50
Lattice="12.336457 0.0 0.0 -6.168228499999997 10.683685154694365 0.0 0.0 0.0 15.0" Properties=species:S:1:pos:R:3:forces:R:3 energy=-442.88025395841674 free_energy=-442.88025395841674 stress="-0.004817097952474893 -7.505743792372983e-05 -6.847197869481537e-06 -7.505743792372983e-05 -0.002278936486753294 2.655385436374332e-05 -6.847197869481537e-06 2.655385436374332e-05 2.307869825599608e-05" pbc="T T T"
C        0.00201844       0.03107188       3.58491609      -0.00228257       0.00527250       0.00962037
C       -1.24173076       2.14202187       3.44412687       0.00524682       0.00306114      -0.00296297
C       -2.47517367       4.29009906       3.32781812       0.00012857      -0.00169388       0.00660346
C       -3.70181227       6.43888380       3.39117326      -0.00006691      -0.00957714       0.00371185
C       -4.93313479       8.57874714       3.57645599      -0.01023959       0.00250857       0.00376249
C        2.46714345       0.04527249       3.64441115       0.00002285       0.01218098       0.00374415
C        1.21957795       2.17171359       3.83921468      -0.00408694      -0.00020566       0.00032703
C       -0.07104617       4.24996143       3.82679218      -0.00766727       0.00014500      -0.00767173
C       -1.27510031       6.43189009       3.67677143       0.00468936      -0.00428233      -0.00762197
C       -2.46902920       8.57886547       3.57004305       0.01002354       0.00301272       0.00573676
C        4.93195095       0.03161579       3.58469597       0.00232906       0.00557245       0.01076677
C        3.71401254       2.17237342       3.84597752       0.00360372       0.00040579      -0.00050148
P        1.13053302       6.35683130       4.96320790      -0.00793427       0.00222346       0.00916889
C       -0.01323204       8.58648935       3.84552426       0.00535039      -0.00031885      -0.00218079
C        7.40239142       0.01723449       3.54659039      -0.00599835      -0.00445762      -0.00099315
C        6.17526447       2.14314241       3.45401587      -0.00522197       0.00295329      -0.00190850
C        5.00538076       4.25144444       3.84971411       0.00679787       0.00104511      -0.00836894
P        3.81208535       6.36597084       5.00065711       0.01230895       0.00463695       0.01472864
C        2.46801845       8.62227328       4.05111605       0.00047487      -0.00219639      -0.01689059
C        9.86829232       0.01702299       3.54641904       0.00565148      -0.00401585      -0.00059712
C        8.63480308       2.14460140       3.30707925       0.00019153       0.00220837       0.00920965
C        7.40800162       4.29037096       3.33885141      -0.00072405      -0.00207809       0.00424302
C        6.20955329       6.43167021       3.69680441      -0.00524939      -0.00445787      -0.00864665
C        4.94785342       8.58704722       3.85661066      -0.00615577      -0.00055105      -0.00535679
C       -0.00599518       1.44955488       3.59670289      -0.00139510       0.00232995       0.00540049
C       -1.26130810       3.55989122       3.45590227      -0.00393427      -0.00045857      -0.00137418
C       -2.48032327       5.71943144       3.40701608       0.00400897      -0.00647110       0.00113926
C       -3.70126481       7.86547855       3.49366989       0.00008187      -0.00102321       0.00944178
C       -4.93020148      10.00769536       3.60170237      -0.00325461       0.01032174       0.00385693
C        2.46701243       1.46420025       3.80492459      -0.00010997       0.01016750       0.00279797
C        1.11506799       3.54308341       4.14103018      -0.00679080       0.00117398      -0.01318541
C       -0.13934053       5.65596354       3.99427481      -0.00271684      -0.00310941       0.00642128
C       -1.24643115       7.86394271       3.71070213       0.01102713      -0.00498021       0.00042148
C       -2.47200201      10.00780181       3.59941437       0.00341710       0.01084257       0.00481769
C        4.93970189       1.45024873       3.60342208       0.00101663       0.00261203       0.00492383
C        3.81735425       3.54299830       4.15341107       0.00643505       0.00178670      -0.01307839
C        1.21415373       7.95310365       4.20320830       0.00194502       0.00665025       0.00019602
C       -0.00367673       9.99965292       3.63074656      -0.00421684      -0.00173759       0.00266205
C        7.40546731       1.43084596       3.38777912      -0.00759514      -0.00025369      -0.00285932
C        6.19473031       3.56100178       3.47329283       0.00279449      -0.00033769      -0.00332075
C        5.07536163       5.65693009       4.02297829       0.00171019      -0.00214127       0.00581751
C        3.72102929       7.95412301       4.21473485      -0.00130205       0.00623407       0.00089437
C        2.46732076      10.00227896       3.67995556      -0.00003076      -0.00424418      -0.01184993
C        9.86440462       1.43023340       3.38382316       0.00787396      -0.00001296      -0.00288003
C        8.63445873       3.57433240       3.26497975      -0.00007703       0.00363389       0.00226124
C        7.41332005       5.71946924       3.41854469      -0.00441777      -0.00675500      -0.00076980
C        6.18152079       7.86422614       3.72478800      -0.01165435      -0.00506842      -0.00213616
C        4.93782819       9.99942024       3.63412192       0.00376302      -0.00160100       0.00077376
Ru       2.46078142       4.47955366       5.37700213       0.00003359      -0.01665426      -0.00849040
O        2.45287677       4.01186111       7.03714608       0.00219657      -0.01229575      -0.00980368
