49
Lattice="12.336457 0.0 0.0 -6.168228499999997 10.683685154694365 0.0 0.0 0.0 15.0" Properties=species:S:1:pos:R:3:forces:R:3 energy=-436.8156209421243 free_energy=-436.8156209421243 stress="-0.006051886814071757 -3.3756843134704276e-06 -8.43106927537593e-06 -3.3756843134704276e-06 -0.002016315477949882 1.5600724483276217e-05 -8.43106927537593e-06 1.5600724483276217e-05 7.626200310183605e-06" pbc="T T T"
C        0.00022441       0.01737506       3.60102460      -0.00320018       0.00361846       0.00153215
C       -1.24403864       2.12636934       3.43846044      -0.00823734       0.00471775       0.01353829
C       -2.47698936       4.27704491       3.32886706      -0.00513730      -0.00395215      -0.00005487
C       -3.70176113       6.42761546       3.40044135      -0.00245451      -0.00846703      -0.00014328
C       -4.93355132       8.56733781       3.59678802       0.00429178       0.00107485      -0.00347346
C        2.46681588       0.02995270       3.63914455      -0.00011035       0.00551459      -0.00160910
C        1.22432389       2.16049610       3.79414974      -0.00286525      -0.00713271       0.00527752
C       -0.07883694       4.24475826       3.81375925       0.00318434       0.00106168       0.00802999
C       -1.28324342       6.42490198       3.67822584      -0.00289171      -0.00180334       0.00371772
C       -2.46977577       8.56842467       3.58391824      -0.00281939      -0.00487904       0.00064607
C        4.93361705       0.01825609       3.59690470      -0.00090676       0.00176501       0.00094562
C        3.70981102       2.16013095       3.80371345       0.00484537      -0.00156600       0.00126927
P        1.08048745       6.34493017       5.03692910      -0.00972979      -0.00766586       0.00145209
C       -0.01468103       8.57164884       3.87235847       0.00718979      -0.00049204      -0.00739629
C        7.40452082      -0.00191280       3.57745747       0.00393408       0.00712907      -0.00331212
C        6.17919556       2.12697447       3.45522134       0.00631680       0.00584356       0.00247058
C        5.01555015       4.24381032       3.84877791      -0.00354464      -0.00097242       0.00108657
P        3.84609135       6.34738418       5.06307933       0.01413350      -0.00552468       0.00221412
C        2.46667087       8.59704522       4.09752231      -0.00006149      -0.00097049      -0.00331362
C        9.86644949      -0.00200990       3.58029666      -0.00077930       0.00529509      -0.00657614
C        8.63558614       2.12722246       3.32280212      -0.00141239       0.00207732       0.00404612
C        7.41158121       4.27673174       3.34850017       0.00355116       0.00084526      -0.00068465
C        6.21900357       6.42349933       3.71339749      -0.00091114       0.00072834      -0.00720549
C        4.94811358       8.57144182       3.89150209      -0.00266772       0.00073877      -0.00474679
C       -0.00896412       1.43497749       3.58662066      -0.00515713       0.00347947      -0.00565964
C       -1.26577516       3.54525132       3.43885779      -0.00305031       0.00197535       0.00680767
C       -2.48238797       5.70767283       3.40856940      -0.00679571      -0.00786235       0.00046585
C       -3.70182955       7.85478047       3.50853841      -0.00012692      -0.00904722       0.00196014
C       -4.93059680       9.99580089       3.61496853       0.00051319       0.00369405      -0.00367986
C        2.46688347       1.45529531       3.77038610       0.00345758       0.00398298       0.00752717
C        1.13113890       3.54634991       4.06843736       0.00244707      -0.00251007       0.00621715
C       -0.15185768       5.64580109       4.00631989       0.00631273       0.00329445       0.00259980
C       -1.24824486       7.85329934       3.72494675       0.00156525       0.00076810       0.00296937
C       -2.47219377       9.99670905       3.60894982      -0.00361589      -0.00225829      -0.00380853
C        4.94332540       1.43548668       3.59518693       0.00536687       0.00407862      -0.00233148
C        3.80317274       3.54418519       4.08706333      -0.00972846       0.00448257       0.00677897
C        1.20873266       7.93440280       4.24461523       0.00213967      -0.01621775      -0.00717007
C       -0.00331451       9.98373681       3.65676801       0.00239654       0.00603100       0.00472538
C        7.40826478       1.41178091       3.40501926       0.00337566       0.00485700       0.00430889
C        6.20169816       3.54530721       3.46832237       0.00318355       0.00384957       0.00230662
C        5.08846362       5.64461005       4.04548202       0.00159838      -0.00278994       0.00367534
C        3.72327405       7.93477459       4.26040601      -0.00122217      -0.01024362      -0.01360690
C        2.46715662       9.98098686       3.72058934       0.00163688       0.00730478      -0.00884676
C        9.86301240       1.41112529       3.39961366      -0.00520305       0.00395728       0.00347888
C        8.63527637       3.55887059       3.27436281      -0.00152827      -0.00176850      -0.00112053
C        7.41634809       5.70698912       3.43103943       0.00042143      -0.00346386      -0.00725524
C        6.18234793       7.85245101       3.75006877       0.00156443       0.00279172      -0.00157627
C        4.93722279       9.98308651       3.66680483      -0.00152281       0.00289532      -0.00055754
Ru       2.46107493       4.56538860       5.12954116       0.00225392       0.00173536      -0.00591871
