50
Lattice="12.336457 0.0 0.0 -6.168228499999997 10.683685154694365 0.0 0.0 0.0 15.0" Properties=species:S:1:pos:R:3:forces:R:3 energy=-454.8517429363601 free_energy=-454.8517429363601 stress="-0.0039501313909431355 -4.278706520044226e-06 -5.769441482203461e-06 -4.278706520044226e-06 -0.0039539974469034985 -6.321861776028078e-07 -5.769441482203461e-06 -6.321861776028078e-07 -1.3954977152120984e-06" pbc="T T T"
C       -0.00040998      -0.00225654       3.64245113      -0.00571275       0.00072288       0.00762158
C       -1.23495563       2.13473669       3.64791617      -0.00343089      -0.00214049      -0.00040637
C       -2.46858065       4.27063131       3.64668015       0.00666427       0.00310607       0.00373671
C       -3.70205484       6.40803443       3.64475085       0.00259007       0.00471791      -0.00311160
C       -4.93132456       8.54720012       3.65170661       0.00592031       0.00237590      -0.00239743
C        2.46631171      -0.00677631       3.64875349       0.00460570      -0.00692804      -0.00489640
C        1.23308088       2.12125447       3.71478492       0.00900267       0.00633713      -0.00498192
C       -0.00386884       4.26953238       3.80795804      -0.00329293      -0.00383743       0.00772366
C       -1.24563683       6.41499024       3.71696418      -0.00222910       0.00300614      -0.00140886
C       -2.47261962       8.54735062       3.65150738       0.00138266       0.00002910      -0.00494770
C        4.93362187      -0.00200908       3.64369530      -0.00221857      -0.00692439       0.00474848
C        3.69945782       2.12145066       3.71724120      -0.00046477      -0.00047656      -0.00333635
C        2.46609368       4.20608855       4.08075358       0.00106613      -0.00214855       0.00157230
C        1.17673501       6.43983846       4.08043577      -0.00650937       0.00570289      -0.00614584
C       -0.01244741       8.55067608       3.71868920      -0.00433229       0.00086392      -0.00577569
C        7.40132852      -0.00170978       3.65143478       0.00137757      -0.00746947      -0.00047158
C        6.16801809       2.13482479       3.64947846      -0.00421997      -0.00142057       0.00442231
C        4.93699450       4.26926804       3.81300927      -0.00621248       0.00615128       0.00592074
C        3.75629284       6.44062011       4.08304706       0.00042669      -0.00160576       0.00465748
C        2.46638834       8.54790399       3.81237016       0.00295721       0.00601222       0.00671402
C        9.86778690      -0.00203317       3.65253955       0.00169723       0.00388141      -0.00710850
C        8.63472816       2.13437323       3.61716084      -0.00088143       0.00202641       0.00307388
C        7.40089828       4.27072278       3.64833325       0.00209669       0.00160618       0.00299185
C        6.17834769       6.41525450       3.72069353       0.00123408      -0.00089225      -0.00541973
C        4.94567983       8.55149816       3.71990213      -0.00378577      -0.01379250       0.00153077
C       -0.00059752       1.42041310       3.65832941       0.00404422       0.00639457       0.00190949
C       -1.23653251       3.55804806       3.67884122      -0.00125701      -0.00539334       0.00614490
C       -2.46965632       5.69681578       3.65949277       0.00249455       0.00373202       0.00219290
C       -3.70204428       7.83317627       3.64526528       0.00601599       0.00251186      -0.00213246
C       -4.93467088       9.96887094       3.64376985      -0.00078490       0.00083953      -0.00736296
C        2.46624496       1.41529748       3.69410044       0.00426699      -0.00792922       0.00759949
C        1.22605527       3.54844188       3.85342967       0.00114707       0.00782971      -0.00322070
C       -0.01301978       5.69506798       3.85388248      -0.00436923      -0.00362796      -0.00297859
C       -1.24093308       7.83616844       3.69887390      -0.00468186       0.00292345      -0.00765052
C       -2.46890811       9.96918084       3.64358181       0.00264406      -0.00540949      -0.00140595
C        4.93351958       1.42080750       3.66140002      -0.00647055      -0.00484805      -0.00579887
C        3.70686303       3.54843606       3.85724960      -0.00393484       0.00575345      -0.00761449
C        1.22723237       7.84279037       3.85521074       0.00116708       0.00743556       0.00459781
C       -0.00250704       9.96987067       3.66158741      -0.00353521      -0.00568660       0.00320565
C        7.40058803       1.42216109       3.62578853      -0.00066337      -0.00687059      -0.00149254
C        6.16933206       3.55788708       3.68162393      -0.00225851       0.00174103       0.00902303
C        4.94612087       5.69505565       3.85882893      -0.00478169       0.00163670      -0.00381009
C        3.70610166       7.84374313       3.85805964      -0.00707894      -0.00761900      -0.00351904
C        2.46615064       9.97123662       3.68461310       0.00694946       0.00669256       0.00420494
C        9.86887987       1.42178359       3.62555070      -0.00269779       0.00322111       0.00009427
C        8.63436146       3.55938135       3.62273180       0.00525540       0.00568605       0.00275835
C        7.40203541       5.69689197       3.66136127       0.00079337       0.00461721       0.00311229
C        6.17364015       7.83640023       3.70027096       0.00441058      -0.00064192      -0.00554521
C        4.93565449       9.97025011       3.66216003      -0.00557273      -0.01030878       0.00091951
Ru       2.46450310       5.69506503       5.28239876       0.01116689      -0.00158328       0.00246298
