53
Lattice="12.336457 0.0 0.0 -6.168228499999997 10.683685154694365 0.0 0.0 0.0 15.0" Properties=species:S:1:pos:R:3:forces:R:3 energy=-465.8641309463701 free_energy=-465.8641309463701 stress="-0.0018892314417643002 0.003921936770245529 4.754304247970186e-06 0.003921936770245529 -0.0065967251476007375 -3.9490458581829665e-05 4.754304247970186e-06 -3.9490458581829665e-05 3.634720336675285e-05" pbc="T T T"
C        0.01096495      -0.04602759       3.79615975       0.00291271      -0.00189724      -0.00262126
C       -1.19638833       2.11075474       3.83266671      -0.00569297      -0.00539997      -0.00201480
C       -2.42497078       4.23778384       3.84913279      -0.00399735       0.00719476      -0.00891707
C       -3.68911909       6.36184093       3.82463947       0.00402717       0.00506290       0.00083168
C       -4.93943964       8.48984931       3.78697652       0.00056306       0.00166125       0.00620764
C        2.46928702      -0.06213946       3.75230501       0.00751993       0.00254482       0.00139290
C        1.26261798       2.09243233       3.83254946       0.00541114      -0.00222277      -0.00860482
C        0.05550058       4.25051297       3.93515125      -0.00491426      -0.00413274      -0.00749192
C       -1.20953688       6.37640152       3.86957461      -0.00958112       0.01020895      -0.00795619
C       -2.47205555       8.49831217       3.77686099      -0.00367542       0.00584556      -0.00428991
C        4.94005834      -0.05105790       3.67830029      -0.00852783      -0.00582965       0.00349821
C        3.71824810       2.05008819       3.67593140      -0.00070215      -0.00357138       0.00023074
C        2.55262584       4.18650194       3.93389749       0.01459246       0.00346070      -0.00028168
C        1.25199072       6.44470955       3.96066033      -0.00072711      -0.00120084      -0.00172589
C       -0.01907092       8.52534579       3.71780818      -0.00053455      -0.00956771      -0.00433564
C        7.40935457      -0.02554493       3.67328501       0.00386656      -0.00780711       0.00581525
C        6.19574091       2.07570211       3.66087620      -0.00171596       0.00629564       0.00673371
C        4.97788510       4.15984494       3.62087185      -0.00841861      -0.00535839      -0.00689399
P        3.54936138       6.26961976       2.70461215       0.00789405       0.00572546       0.00707621
C        2.43782158       8.56149415       3.63639463       0.00408684      -0.00401640       0.00222644
C        9.88987041      -0.02144590       3.74128554       0.00458053       0.00490636      -0.00335706
C        8.66781114       2.10217987       3.74807089       0.00859840       0.00590047      -0.00028854
C        7.43894861       4.22227496       3.75243623       0.00472983       0.00081676       0.00029484
C        6.17137146       6.35529520       3.75530981      -0.00059025      -0.00882300      -0.01650937
C        4.93585451       8.49901215       3.73653636      -0.01219311      -0.00162846       0.01165428
C        0.02796483       1.38612183       3.82503412       0.00007137      -0.00264173       0.00707780
C       -1.18220191       3.53698595       3.87558158      -0.01320813      -0.00606192       0.01165129
C       -2.43952883       5.66052931       3.85583505      -0.00301607       0.00809859       0.00056200
C       -3.70375780       7.78317717       3.80330215       0.00312997       0.00455044       0.00458339
C       -4.93403581       9.91300936       3.78293855       0.00979431       0.00290967       0.00782751
C        2.47850418       1.35832074       3.75331823       0.00525068      -0.00299155       0.00194807
C        1.29135387       3.53196714       3.90719484       0.00998810       0.00299833       0.00257062
C        0.05377317       5.68162222       3.93289055      -0.00648713       0.00358848      -0.00692639
C       -1.23709455       7.79656645       3.79500355      -0.00879113       0.00520613      -0.01005133
C       -2.46580286       9.91744018       3.72731650      -0.00404447      -0.00040627       0.00729373
C        4.95458227       1.36170138       3.65194275      -0.00416170      -0.00176669       0.01329257
C        3.74313309       3.46259455       3.67607340       0.00127417      -0.00688252       0.00157505
C        1.21721993       7.83932092       3.71384338       0.00710725      -0.00160112      -0.00138958
C        0.00287517       9.93944056       3.67603484      -0.00715468      -0.01147634      -0.00176558
C        7.42786346       1.38635406       3.68951844       0.00464887       0.00240623       0.00964783
C        6.21254845       3.49175432       3.67018006      -0.00334466       0.00764463      -0.00571102
C        4.92733690       5.59439857       3.68868745       0.00271327      -0.01374551       0.00455989
C        3.65689785       7.80579428       3.67641044      -0.00592160      -0.01198229       0.00080722
C        2.47533773       9.96558789       3.67729924       0.01104852      -0.00480303       0.00389036
C        9.90263690       1.39767068       3.77620374       0.00046247       0.00342184       0.00277233
C        8.67470988       3.52366217       3.78543478       0.00476581       0.00352269       0.00669228
C        7.40972080       5.65072185       3.79306992       0.00772071      -0.00299060      -0.01286373
C        6.15499178       7.77312036       3.76450479      -0.01189950      -0.00325432       0.00238371
C        4.94470705       9.92344922       3.76958870      -0.00404516       0.00218540       0.00126581
Ru       3.00582422       5.94243703       4.80154998      -0.00400804       0.01118271      -0.00687876
O        2.63902961       5.84875269       6.65028381       0.00439524      -0.00369172      -0.01532335
O        3.06600125       7.12713429       7.28303468      -0.00715799       0.00786222       0.00616727
H        2.89877411       6.86977580       8.21489023       0.00335754       0.01055029      -0.00633276
