50
Lattice="12.336457 0.0 0.0 -6.168228499999997 10.683685154694365 0.0 0.0 0.0 15.0" Properties=species:S:1:pos:R:3:forces:R:3 energy=-443.23922452256454 free_energy=-443.23922452256454 stress="-0.006012995640348606 -0.004980459452041364 -1.1784172025203486e-05 -0.004980459452041364 0.0022197602391377563 1.8059771965259135e-06 -1.1784172025203486e-05 1.8059771965259135e-06 -1.9874554140067926e-06" pbc="T T T"
C       -0.02114758      -0.01479894       3.87440565       0.00836240       0.00457005       0.00651781
C       -1.29381205       2.09444044       3.88680287      -0.00730117      -0.00149603      -0.00104605
C       -2.49859397       4.24992042       3.78517917       0.00143326      -0.00313220       0.00467439
C       -3.68461841       6.40847042       3.71929949       0.00253840       0.00368636      -0.00074479
C       -4.91971668       8.56100949       3.78936138      -0.00121988      -0.00317724      -0.00655000
C        2.44441858       0.01894633       3.89008668       0.01006471      -0.00589034      -0.00080989
C        1.14737372       2.11490874       3.97471069      -0.00504605      -0.00429845       0.01148094
C       -0.10410485       4.21399712       4.03597833      -0.00268843      -0.00016461       0.00013991
C       -1.25038770       6.38136372       3.89104648      -0.00391100       0.00225067       0.00149844
C       -2.46871477       8.54707801       3.84686598      -0.00505916       0.00835793      -0.00418645
C        4.91500678      -0.00406342       3.73841547       0.00417208      -0.00585221       0.00194631
C        3.63397445       2.12047882       3.55456760      -0.00396526      -0.00286045       0.00769687
C        1.18505806       6.34186178       4.04514449       0.01286924      -0.00436146      -0.00678241
C       -0.00438394       8.50924574       3.85042308      -0.00154218       0.00069306       0.00662942
C        7.37997650      -0.03982214       3.71900458       0.00210225       0.00694039      -0.00758737
C        6.13942140       2.12839329       3.49891773       0.00097020      -0.00883558       0.00047368
C        5.01625881       4.36055865       3.20906929      -0.00053059       0.00325053       0.00491311
N        3.84089606       6.43272189       3.49406591      -0.01552810      -0.00354799      -0.00639475
C        2.46900634       8.46957736       3.80220036       0.00328682       0.00080576      -0.00558111
C        9.83617026      -0.04721167       3.78505050      -0.00786217       0.00602281       0.00521430
C        8.59628070       2.10656531       3.68456601       0.00920400       0.00384896      -0.00098006
C        7.40923788       4.27080109       3.51923312       0.00149311      -0.00682749       0.00698228
C        6.24189241       6.46071157       3.48011992      -0.00193164      -0.00211163      -0.00576450
C        4.94872062       8.53443720       3.71415268      -0.00167958       0.00977119      -0.00440369
C       -0.04806720       1.40915683       3.93256494      -0.00705997       0.00247165       0.01348647
C       -1.29248612       3.51256042       3.90654890      -0.00092629      -0.00386825      -0.00890230
C       -2.46942471       5.67578431       3.79832943      -0.00154039      -0.00249919       0.00725804
C       -3.69036013       7.83618830       3.79337870      -0.00114357       0.00497216      -0.00818605
C       -4.94331566       9.98308801       3.87922652       0.01017628      -0.00389772      -0.00060010
C        2.41011706       1.45271457       3.85283472      -0.00468900      -0.00749724      -0.00939643
O        1.05646160       3.48884631       4.21833784      -0.00027358      -0.00184209       0.00068945
C       -0.02961647       5.62959642       4.00184196       0.00080044       0.00174229       0.00010869
C       -1.23965578       7.81238540       3.86777461      -0.00906415       0.00619026      -0.00700143
C       -2.48279484       9.97906778       3.83637917       0.00706216       0.00042185       0.01571524
C        4.89227209       1.42907735       3.58134520      -0.00257408      -0.01073736       0.00197469
P        3.41361313       3.74903492       2.83346078       0.00201775       0.00479354      -0.00157468
C        1.23485730       7.74728969       3.89522847       0.00473551      -0.00045533      -0.00186501
C       -0.01815599       9.94067309       3.76339107       0.00371368       0.00173438       0.00197001
C        7.36403721       1.39640274       3.62460609       0.01011271       0.00613217       0.00604293
C        6.17838192       3.56251939       3.37530104      -0.00342453      -0.00590721       0.00378586
C        5.03588000       5.78049462       3.32246840      -0.00741506       0.00282175      -0.00297239
C        3.73435079       7.79062998       3.69213705       0.00051240      -0.00066639      -0.00606791
C        2.44464249       9.90744468       3.76692187      -0.00402678       0.00253765      -0.01047570
C        9.82681346       1.38544278       3.78947201      -0.00275743       0.00087414      -0.00243534
C        8.61191000       3.53954516       3.66070684       0.00591480      -0.00230185      -0.00202362
C        7.43866222       5.70236571       3.55964139       0.00308456      -0.00352697       0.00978153
C        6.19961846       7.85980193       3.66419862      -0.00477854       0.00012659      -0.00621023
C        4.91736939       9.94728246       3.80381647      -0.00074472       0.01411307       0.00259220
Ru       2.69038243       5.11714738       4.52274055      -0.00443588      -0.00274926      -0.00754388
O        3.40307059       5.33635127       6.10432876       0.00849240      -0.00062468       0.00451354
