53
Lattice="12.336457 0.0 0.0 -6.168228499999997 10.683685154694365 0.0 0.0 0.0 15.0" Properties=species:S:1:pos:R:3:forces:R:3 energy=-470.351770910394 free_energy=-470.351770910394 stress="-0.003096151787679845 -1.3770253216790091e-05 3.597193798763762e-06 -1.3770253216790091e-05 -0.0031164548372384767 2.6092124197108053e-05 3.597193798763762e-06 2.6092124197108053e-05 5.679225405424357e-06" pbc="T T T"
C        0.06872691      -0.00474176       3.65080969      -0.00299445      -0.00061265       0.00124411
C       -1.16504872       2.13282226       3.67557942       0.00292231      -0.00062340       0.00074023
C       -2.39782476       4.26805312       3.67539065      -0.00166636       0.00614941       0.00425119
C       -3.63263437       6.40539532       3.65312061       0.00198340      -0.00431717       0.00158834
C       -4.86336534       8.54336573       3.65043966      -0.00112476       0.00158537      -0.00257497
C        2.53590034      -0.00780744       3.65163204      -0.00064456       0.00410833      -0.00284755
C        1.30137201       2.12345168       3.74576274       0.00049069       0.00041827       0.00531781
C        0.06490935       4.26620533       3.85218748      -0.00327482       0.00126681      -0.00356113
C       -1.17276688       6.40891435       3.73166107       0.00281587       0.00137034       0.00624388
C       -2.40108938       8.54361919       3.64290718       0.00002687      -0.00097798       0.00363314
C        5.00287881      -0.00410993       3.65515390       0.00367551      -0.00036603      -0.00342674
C        3.76957534       2.12407677       3.75490929       0.00299611      -0.00243293      -0.00059943
C        2.53385224       4.19638673       4.14670156       0.00132221      -0.00041295       0.00171338
C        1.23870422       6.44238130       4.12189087      -0.00158161       0.00415824       0.00586655
C        0.06168052       8.54733510       3.73082904      -0.00115388      -0.00240273       0.00759858
C        7.47112286      -0.00470800       3.67621156      -0.00132276      -0.00358482      -0.00030496
C        6.23644108       2.13342847       3.69044856      -0.00127427       0.00053148      -0.00259174
C        5.00594793       4.26738546       3.87325004       0.00185250      -0.00273404       0.00447362
C        3.83190639       6.44395821       4.14854167       0.00261508      -0.00095818      -0.00753421
C        2.53646407       8.54644974       3.84615178      -0.00091591       0.00205962       0.00419340
C        9.93715707      -0.00511102       3.67315555      -0.00058565      -0.00067199       0.00285083
C        8.70400755       2.13207143       3.65329065      -0.00102093       0.00199608      -0.00128810
C        7.46959744       4.26834106       3.69085151      -0.00323085      -0.00035898      -0.01075647
C        6.24376864       6.40881877       3.75444644       0.00533725       0.00135521       0.00194239
C        5.01012545       8.54676330       3.74218074      -0.00169511       0.00312589       0.00536372
C        0.06915625       1.41944041       3.67777749       0.00237009      -0.00171992       0.00002356
C       -1.16507288       3.55621678       3.71544771      -0.00328642       0.00145728      -0.00196661
C       -2.39892472       5.69366833       3.67409814       0.00345060       0.00358979       0.00065054
C       -3.63220784       7.83000609       3.64114883      -0.00074742      -0.00372451      -0.00335197
C       -4.86576524       9.96638224       3.64305250      -0.00197799       0.00328304      -0.00275508
C        2.53570683       1.41470099       3.71611259       0.00131880       0.00269224       0.00234205
C        1.29642580       3.54775425       3.90277087      -0.00234152       0.00056168       0.00199484
C        0.05858822       5.69255440       3.88942276      -0.00094244       0.00147701       0.00995456
C       -1.16902628       7.83231557       3.69843166       0.00060754      -0.00153130       0.00465737
C       -2.39880892       9.96666272       3.64244687       0.00115662       0.00231032      -0.00388379
C        5.00198019       1.41996169       3.68908005       0.00305359      -0.00067846       0.00070881
C        3.77388115       3.54848174       3.91437163       0.00188733      -0.00406700      -0.00086185
C        1.29779459       7.83892981       3.88623597      -0.00055570       0.00143968      -0.00191101
C        0.06777864       9.96702181       3.67526518       0.00056227      -0.00448051      -0.00310226
C        7.46968757       1.41996175       3.66070144      -0.00268737      -0.00108471      -0.00764693
C        6.23658344       3.55684644       3.73590713      -0.00181694      -0.00059873      -0.00818901
C        5.01258502       5.69326173       3.91560776       0.00620644      -0.00049678       0.00048204
C        3.77424594       7.83933251       3.89845227      -0.00066370       0.00245165       0.00091352
C        2.53592181       9.96715351       3.71233271      -0.00046533      -0.00115957      -0.00394520
C        9.93823306       1.41950611       3.65326236       0.00139815       0.00027993      -0.00721222
C        8.70401462       3.55699246       3.65904480      -0.00172469       0.00427894       0.00197925
C        7.47019047       5.69405242       3.68884105       0.00180979      -0.00364982      -0.00370199
C        6.24125576       7.83213388       3.71442942      -0.00100735       0.00250091       0.00038987
C        5.00404853       9.96626322       3.67516829      -0.00272425       0.00096965       0.00023006
Ru       2.52208145       5.70045593       5.39896088      -0.00249534       0.00268183       0.00962134
O        2.46036860       5.70137724       7.24638540      -0.00765148       0.00237334      -0.00133705
O        1.04456815       5.64617628       7.72380931      -0.00380114      -0.01887597      -0.00050703
H        1.23561411       5.76061859       8.68073244       0.00751595       0.00204880      -0.00511167
