50
Lattice="12.336457 0.0 0.0 -6.168228499999997 10.683685154694365 0.0 0.0 0.0 15.0" Properties=species:S:1:pos:R:3:forces:R:3 energy=-441.63294678368976 free_energy=-441.63294678368976 stress="-6.900577570112618e-05 -0.0009433492808413067 2.063632195268913e-06 -0.0009433492808413067 0.007027703820128981 -3.0180190093685525e-06 2.063632195268913e-06 -3.0180190093685525e-06 -1.7003857290663789e-06" pbc="T T T"
C       -0.00332298      -0.00334558       3.72019626       0.00312405      -0.00388143      -0.00474815
C       -1.25349165       2.11349594       3.82501091       0.00646978       0.01573670       0.00108127
C       -2.48645556       4.25809534       3.85167559       0.00332703      -0.00553741      -0.00076570
C       -3.71295426       6.40540803       3.74402162       0.00250220      -0.00323340      -0.00027551
C       -4.93957081       8.54768584       3.70303026      -0.00572256      -0.00323363       0.00131276
C        2.46674558       0.04908384       3.66855137      -0.00081144      -0.00099114      -0.01286019
C        1.20401849       2.14001369       3.67507210      -0.00277830      -0.00567624       0.00071860
C       -0.04624837       4.24017818       3.94147444       0.00062080      -0.00713304       0.00345655
C       -1.27058109       6.40429142       3.76624451       0.00691445      -0.00173085       0.00690348
C       -2.47610425       8.55606145       3.69073305      -0.01021403       0.00628552       0.00320886
C        4.92537450       0.00847362       3.66901057      -0.00026311      -0.00558381      -0.00427035
C        3.72993990       2.18080329       3.64937028       0.00013067       0.00144714      -0.00480261
C        1.17691180       6.41589360       3.90606668       0.00624317      -0.00761299       0.00058565
C        0.00012572       8.53132048       3.70209905       0.00144232      -0.00149503      -0.00326429
C        7.40330628      -0.03148740       3.70569331      -0.00574873       0.00737170      -0.00039634
C        6.16243745       2.13573259       3.70409625      -0.00511913      -0.00393523      -0.00448202
C        4.95170986       4.27424346       3.68384575       0.00302662       0.00775976       0.00115583
O        3.75961291       6.40066996       3.64938069      -0.00483353      -0.00334671       0.00681565
C        2.49596563       8.48674240       3.71788747       0.00499768      -0.00597997       0.00346810
C        9.86374117      -0.03576424       3.73712470       0.00066802       0.00617844       0.00261012
C        8.62510654       2.11573056       3.77394166       0.00620025      -0.00307925       0.00105275
C        7.39124829       4.26795465       3.75250762       0.00294113      -0.00346095       0.00804993
C        6.15712937       6.39185740       3.71592021      -0.00807480       0.00808779       0.00393404
C        4.93288056       8.51179652       3.71778393       0.00178434      -0.00174267      -0.00036463
C       -0.00183663       1.43010492       3.74259033      -0.00228742       0.00160640      -0.00714070
C       -1.26541700       3.52703748       3.91419287       0.00452303       0.00679473       0.00478091
C       -2.48436650       5.68554567       3.79048200       0.00683938      -0.00729857       0.00314665
C       -3.70345254       7.83676101       3.70828576      -0.00787013      -0.00008517       0.00036803
C       -4.92917807       9.99197931       3.69327748       0.00219102      -0.00662790      -0.00543993
C        2.46993288       1.50532901       3.64778242      -0.00196730      -0.00162667      -0.00565660
O        1.15292312       3.57101989       3.55342666       0.00175159       0.00411115      -0.00288623
C       -0.02586066       5.66707470       3.87273286      -0.00463499      -0.00348902       0.01017938
C       -1.24618629       7.82931951       3.71088979      -0.00459418       0.00634336       0.00185706
C       -2.47784955       9.99388157       3.67051965      -0.00334866       0.00329494      -0.00945928
C        4.92080108       1.44661585       3.66844121      -0.00415735      -0.00634334      -0.00222280
O        3.77420691       3.55926540       3.64165741       0.00118898       0.00690207      -0.00413919
C        1.23949892       7.79591661       3.74970456       0.00407516      -0.00893833       0.00243550
C       -0.00593343       9.95822910       3.68251530      -0.00055831       0.00002736       0.00058295
C        7.38888360       1.40536215       3.72647098      -0.00177399       0.00480901      -0.00665662
C        6.15776924       3.56256009       3.71611470      -0.00189961      -0.00201616      -0.00466345
C        4.94634508       5.68719192       3.68983153      -0.00315234       0.00665449       0.00716337
C        3.73088811       7.77746043       3.70679899       0.00670973      -0.00331640       0.00372411
C        2.47312006       9.91878299       3.71524208      -0.00480394       0.00183814      -0.00503623
C        9.86016405       1.39793354       3.78032612       0.01095049       0.01094973       0.00666509
C        8.62220273       3.54517557       3.79592670       0.00602353      -0.00776157       0.00264692
C        7.39254362       5.68539937       3.74062484      -0.00530709       0.00276930       0.00617941
C        6.17051847       7.82156010       3.71412509      -0.00263538       0.00306727      -0.00631650
C        4.92875008       9.94763273       3.72845727       0.00084394      -0.00192703       0.00195269
Ru       1.60611047       4.91594942       4.93642808       0.00305276       0.00258861       0.00307614
O        2.82791181       5.20490528       6.05864429      -0.00598581       0.00246032      -0.00326450
