50
Lattice="12.336457 0.0 0.0 -6.168228499999997 10.683685154694365 0.0 0.0 0.0 15.0" Properties=species:S:1:pos:R:3:forces:R:3 energy=-447.772667665267 free_energy=-447.772667665267 stress="-0.005448006235615181 0.001041296758223715 1.664874829648042e-05 0.001041296758223715 0.006278968003214515 -6.8489072718905565e-06 1.664874829648042e-05 -6.8489072718905565e-06 -8.97628889796309e-06" pbc="T T T"
C        0.00242237       0.01978197       3.76103136       0.00223060       0.00166646       0.00741248
C       -1.25177322       2.11998952       3.75770840       0.00506593      -0.00508777      -0.00450284
C       -2.49798804       4.26559828       3.63061910      -0.00296373       0.00641643       0.00254872
C       -3.71810667       6.42219335       3.56773095      -0.00500889      -0.00814604       0.00469167
C       -4.93602190       8.57420550       3.64600751      -0.00353290       0.00193224      -0.00102522
C        2.47182489       0.06211348       3.74176827       0.00057499      -0.00374564       0.00266698
C        1.23832317       2.21844464       3.91046982       0.00600908       0.00824156       0.01159897
C       -0.07978992       4.27480014       3.89165310      -0.00870406      -0.00157086      -0.00539050
C       -1.29558122       6.42689334       3.72293619       0.00763906       0.00450044      -0.00921103
C       -2.48590766       8.57338291       3.67915627      -0.00973939       0.00053126      -0.01007409
C        4.93364971       0.00156354       3.70713716       0.00604101       0.00062964       0.00977946
C        3.74665713       2.14537120       3.72048650      -0.00670418       0.00411785       0.00040047
C        1.12436521       6.37803991       4.07739333       0.00168521      -0.00047351      -0.00682539
C       -0.01209180       8.52711301       3.79803407       0.00193193      -0.00739075       0.00397027
C        7.41044683      -0.04544931       3.72983157      -0.00110590       0.00467017      -0.00390272
C        6.18619463       2.11325294       3.60795072       0.00363469      -0.00719886      -0.00794097
C        4.99889197       4.25781989       3.56925338       0.01156850       0.00220901      -0.00120762
N        3.80390312       6.37632614       3.84354322      -0.00798771       0.00044446      -0.00432920
C        2.47506756       8.46822258       3.86732005       0.00114922       0.00251081      -0.00115241
C        9.86457991      -0.03936729       3.75538804      -0.00589906      -0.00454054      -0.00362883
C        8.63439505       2.10902216       3.63995083       0.00959331       0.00713497      -0.00089873
C        7.40403924       4.26897400       3.52631802      -0.00248093      -0.00873183       0.00248067
C        6.17897797       6.41481025       3.55063440      -0.00227235      -0.00116048       0.00386075
C        4.94068923       8.52372580       3.73190296       0.00010658      -0.00386795      -0.00096598
C        0.00524513       1.44961982       3.81780594       0.01194600       0.00443130      -0.00199658
C       -1.28525961       3.54165458       3.73766991      -0.00823245      -0.00342623      -0.00611082
C       -2.50462961       5.69999973       3.62312953       0.00539965       0.00521727      -0.00336273
C       -3.71147201       7.85495917       3.61918130      -0.00991745      -0.00449951      -0.00239137
C       -4.92765934      10.00952069       3.72147926      -0.00030944       0.00021133       0.00279519
C        2.49388373       1.50492586       3.80847525      -0.00329793      -0.00244755       0.00218191
C        1.14788871       3.62089732       4.09103068      -0.00339973       0.01167692      -0.00139883
C       -0.09387344       5.69593679       3.88307185       0.00527167       0.00133359      -0.00639403
C       -1.26347048       7.84978129       3.73023749      -0.00465978       0.00282160      -0.00387575
C       -2.47757433      10.00611079       3.70865900       0.00342785       0.00083736      -0.00076797
C        4.94579595       1.43116029       3.67348011      -0.00519923       0.00362697      -0.00400501
O        3.81547633       3.53545068       3.61081541       0.00291897       0.01085730      -0.00247798
C        1.22239664       7.77787744       3.91577680       0.00507120      -0.00356382       0.00990471
C       -0.00130947       9.94779039       3.73904770       0.00441296      -0.00539290       0.01479765
C        7.40343454       1.39045676       3.64999366       0.00958061       0.00515038      -0.00367220
C        6.18360315       3.54027977       3.54320572       0.00361849      -0.01120038       0.00196645
C        4.96470308       5.68116035       3.61561497      -0.00115551       0.00259568      -0.00118764
C        3.72722321       7.75469912       3.82674467      -0.00221287       0.00151021      -0.00122644
C        2.47193716       9.90529072       3.78240220      -0.00786793       0.00053798       0.00585286
C        9.85936077       1.39086441       3.71356552       0.00417177      -0.00340278      -0.00905892
C        8.62337964       3.54338057       3.57984818       0.00051663       0.00536553       0.01066095
C        7.39608620       5.69546138       3.52136513      -0.00625363      -0.01044384       0.00465155
C        6.17346453       7.84032921       3.63434572       0.00174086       0.00021327      -0.00334216
C        4.93715568       9.95491932       3.75338668      -0.00228535      -0.00236597       0.00551098
Ru       2.40928489       5.06845389       4.71997936       0.01256065      -0.00740472      -0.00431990
O        2.68732756       5.06115079       6.44419972      -0.01667704       0.00466993       0.00891118
