53
Lattice="12.336457 0.0 0.0 -6.168228499999997 10.683685154694365 0.0 0.0 0.0 15.0" Properties=species:S:1:pos:R:3:forces:R:3 energy=-461.42881066651836 free_energy=-461.42881066651836 stress="-0.0026780673044943366 0.0009604692261993526 3.572534688417043e-05 0.0009604692261993526 -0.007286818482378428 4.188415880645282e-05 3.572534688417043e-05 4.188415880645282e-05 6.894446205783857e-06" pbc="T T T"
C        0.03892886      -0.07742726       3.95479221       0.00169582       0.00076760      -0.00562501
C       -1.19306912       2.06113356       4.05096084      -0.00414808      -0.00408332       0.00538159
C       -2.43114385       4.19946240       3.95785329       0.00079519       0.00385024      -0.00189203
C       -3.67123641       6.33002539       3.83763770      -0.00199753      -0.00224890      -0.00144058
C       -4.90000836       8.46204169       3.83868655      -0.00122221       0.00419026      -0.00124040
C        2.50336305      -0.10091359       3.93988797      -0.00492340       0.00489970       0.01099689
C        1.27968739       2.04959976       4.08134498      -0.00454908      -0.00415899      -0.00241115
C        0.03489435       4.18025696       3.95224896       0.00323600      -0.00084090       0.00210490
C       -1.20384335       6.32261824       3.65557258      -0.00029684       0.00648949      -0.00287787
C       -2.42697698       8.45698168       3.74426049       0.00080894       0.00354100       0.00178989
C        4.96743831      -0.08529957       3.80140345      -0.00285578      -0.00018431      -0.00288199
C        3.73535150       2.01665573       3.95546813       0.00520965      -0.00284515       0.00194292
C        2.54841555       4.15538171       4.09834210       0.00648730       0.00437154       0.00799651
P        1.46239301       6.19314952       2.87278238       0.00093016       0.00232734      -0.00024718
C        0.01385233       8.50590845       3.43537920       0.00293230      -0.00116291      -0.00944621
C        7.42718407      -0.04490906       3.70231854       0.00275234       0.00096282       0.00125744
C        6.20130915       2.05003588       3.88952951       0.00788822       0.00543740       0.00388716
C        4.97613410       4.13394198       3.78493678      -0.00603646      -0.00070029      -0.00753531
P        3.78846517       6.30409405       2.37104392       0.00281380       0.00490084      -0.00252974
C        2.48843688       8.60232123       3.26906168      -0.00433338       0.00451466       0.00489689
C        9.91132866      -0.04328748       3.80591445       0.00796485      -0.00209668       0.00308117
C        8.67124253       2.06832655       3.94424865       0.00865560       0.00091162      -0.00019040
C        7.43963614       4.19533317       3.90238513      -0.00451916      -0.00991690       0.00807295
C        6.19824129       6.33614303       3.74841807       0.00446025      -0.00416018       0.00176887
C        4.98651742       8.49926818       3.64112703      -0.00631790       0.00354656       0.00082314
C        0.04285236       1.34481599       4.05116085      -0.00612355      -0.00344683      -0.00525795
C       -1.19934450       3.48064436       4.03148392      -0.00025055      -0.00245639      -0.00700772
C       -2.43677549       5.61886074       3.83503802      -0.00018141       0.00573309       0.00636278
C       -3.66762979       7.75062444       3.81161439       0.00003259       0.00091157       0.00394333
C       -4.90116084       9.88083933       3.92236288      -0.00075286       0.00436914      -0.00604596
C        2.50307625       1.31906690       4.01496459      -0.00037951       0.00133381       0.00496129
C        1.29470260       3.48449308       4.07208692       0.00487755      -0.00260537       0.00360011
C       -0.01101256       5.55040722       3.60068062      -0.00266794       0.00180681      -0.00200238
C       -1.19847307       7.75415245       3.58346517       0.00406802       0.00501554      -0.00279832
C       -2.43192104       9.87896424       3.82644185      -0.00752075       0.00391452      -0.00111610
C        4.96925576       1.33049006       3.88963830       0.00857356       0.00245800      -0.00664102
C        3.74831430       3.43767801       3.92792946       0.00176430      -0.00359992       0.00276479
C        1.26540006       7.91257640       3.13262438       0.00326326      -0.00349809       0.00019688
C        0.02707917       9.91571353       3.64399859      -0.00108650      -0.00214612      -0.00323196
C        7.43484976       1.35782261       3.86502983       0.00909987       0.00358840       0.00323300
C        6.20944993       3.46866928       3.87435105      -0.00589153       0.00087939      -0.00634739
C        4.94168670       5.57686924       3.66231331       0.00068243      -0.00262515       0.00258514
C        3.72123226       7.83572428       3.35727886      -0.00842054       0.00517507      -0.00057698
C        2.50441910       9.96913396       3.58664436       0.00462078       0.00307627       0.00325196
C        9.90866376       1.36018054       3.96011658       0.00340758      -0.00367458      -0.00588243
C        8.67043151       3.48998228       3.96005063       0.00138860      -0.00032944       0.00286249
C        7.42206549       5.62453452       3.85420628       0.00090431      -0.01176601      -0.00100931
C        6.19254411       7.75456679       3.74167638      -0.00366334       0.00186178       0.00133337
C        4.97579741       9.90716692       3.81485723       0.00420273       0.00144595       0.00302070
Ru       3.10385342       6.10159627       4.54173296      -0.00008518      -0.00455965       0.00548353
O        2.63012892       6.29267810       6.34345599      -0.00906436      -0.00482662      -0.00510440
O        2.22686987       7.70633096       6.60918563      -0.01338761      -0.00403895      -0.01124745
H        2.17147776       7.64008414       7.58711242      -0.00284052      -0.01030872       0.00498757
