50
Lattice="12.336457 0.0 0.0 -6.168228499999997 10.683685154694365 0.0 0.0 0.0 15.0" Properties=species:S:1:pos:R:3:forces:R:3 energy=-448.03419336611313 free_energy=-448.03419336611313 stress="-0.003953841387436918 -0.0011206750028970528 2.2914602562912247e-05 -0.0011206750028970528 0.005756611333713685 3.0620870005880176e-06 2.2914602562912247e-05 3.0620870005880176e-06 -9.460405245728164e-07" pbc="T T T"
C       -0.00325126       0.01374664       3.73570107       0.00530904       0.00072296       0.01213696
C       -1.25666851       2.12189041       3.72896705       0.00015704      -0.00337370      -0.00444871
C       -2.48661574       4.26995558       3.61376363      -0.00074419      -0.00735271      -0.00543946
C       -3.70361405       6.42185063       3.56501450      -0.00501774      -0.00184178       0.00803994
C       -4.93266564       8.57055397       3.63823119       0.01060824      -0.00068078      -0.00536311
C        2.46869768       0.04166729       3.77486211      -0.00192730      -0.00191694       0.00695984
C        1.22043676       2.17549533       3.90002560       0.01004240       0.01413846       0.00073895
C       -0.05496896       4.28203249       3.83909482       0.00376625       0.00175830      -0.00792629
C       -1.26507369       6.42879145       3.67837260      -0.01058490      -0.00634261       0.00220065
C       -2.47017920       8.56942058       3.68316363      -0.00312650      -0.00655981      -0.00723180
C        4.93945737       0.00686635       3.75293812      -0.00288472       0.00606585       0.00485882
C        3.70562816       2.18992582       3.85755092      -0.00917683       0.00320721       0.00231788
N        1.12181780       6.37162113       4.01461795       0.01002749      -0.00320988      -0.00181017
C        0.00869314       8.51245382       3.77783442       0.00461903       0.00233122       0.00123358
C        7.41037153      -0.04049278       3.73090260       0.00987827      -0.00271120       0.00103487
C        6.17655859       2.13022066       3.67384177       0.00038442      -0.00205454      -0.00026549
C        4.95624385       4.31075861       3.66864313       0.00044338       0.00081836      -0.00183341
O        3.81128987       6.43050206       3.64216692      -0.00519486       0.00501311       0.00071048
C        2.48512485       8.44912512       3.79943758      -0.00332465       0.00159484       0.01093221
C        9.85701738      -0.03951701       3.71713826      -0.00348139       0.00157523       0.00540394
C        8.62873092       2.11598141       3.64041141      -0.01414539       0.00159762       0.00010672
C        7.40276790       4.27366483       3.54696680       0.00000398       0.00097244       0.00698324
C        6.18993252       6.43374567       3.53829940       0.01466173       0.00304894      -0.00065579
C        4.94020964       8.53489270       3.67541251       0.00463340      -0.00458068      -0.00856638
C       -0.01409184       1.43454741       3.79031625       0.00925759       0.00507947       0.00807982
C       -1.26977327       3.55079855       3.70875380       0.00678990      -0.00155467      -0.01248044
C       -2.48144639       5.70170158       3.60188677      -0.01340258      -0.00775289       0.00202986
C       -3.69875603       7.85347891       3.61925624       0.00025930      -0.00514514      -0.00410786
C       -4.92866809      10.00213940       3.72053726       0.00378285      -0.00380792      -0.00379482
C        2.46649595       1.47395820       3.87062981      -0.00020647       0.00032217       0.00499576
C        1.14958795       3.58884197       4.03588004       0.00162535       0.00315721      -0.01289178
C       -0.05273701       5.71846411       3.81973569      -0.00290071       0.00166297       0.00142023
C       -1.24286991       7.84303079       3.70966053      -0.00046674      -0.00177671      -0.00776595
C       -2.46984424       9.99791200       3.74068536      -0.00335193      -0.00411703       0.00172666
C        4.94046341       1.43469986       3.75938384      -0.00661662       0.00805797      -0.00346938
C        3.75693001       3.60914537       3.93116275      -0.00806534       0.00184136       0.00156062
C        1.21877916       7.74552939       3.87267420       0.00240023      -0.00465919       0.00674809
C        0.00550158       9.94620617       3.75203963       0.00655550       0.00798785       0.00130326
C        7.40515266       1.39630110       3.67295605      -0.00346957      -0.00655709      -0.00344842
C        6.18084549       3.56207167       3.59819901      -0.00043992       0.00050260       0.00262685
C        5.00077748       5.72535563       3.58295800       0.00785660       0.00612996      -0.00288467
C        3.74312484       7.82218297       3.72675114      -0.00360779       0.00804779      -0.00329223
C        2.46896613       9.89877559       3.74708455       0.00309013      -0.00470786       0.00683617
C        9.85394051       1.39658516       3.69029597      -0.01276787       0.00364763      -0.00761005
C        8.62827434       3.54914277       3.58422627      -0.00561870      -0.00040655       0.00537933
C        7.41161951       5.70116059       3.53182169       0.00643619      -0.00255055       0.00095045
C        6.18496161       7.85363589       3.60170058       0.01506621       0.00152269      -0.00697292
C        4.93128560       9.96419421       3.70912667       0.00047206      -0.00083311       0.00958092
Ru       2.45002380       4.84119388       4.75581018      -0.00126505      -0.00314255      -0.00881846
O        2.60312417       4.93524778       6.49411837      -0.01633880      -0.00316835       0.00418147
