52
Lattice="12.336457 0.0 0.0 -6.168228499999997 10.683685154694365 0.0 0.0 0.0 15.0" Properties=species:S:1:pos:R:3:forces:R:3 energy=-456.71044559178057 free_energy=-456.71044559178057 stress="-0.003411443314336329 -0.0004911601134770315 2.3861659187498803e-06 -0.0004911601134770315 0.006048683907040796 1.4591567725071703e-05 2.3861659187498803e-06 1.4591567725071703e-05 1.0793796401414119e-05" pbc="T T T"
C        0.08682576       0.02360033       3.74525578      -0.00225464       0.00327172      -0.00574480
C       -1.16286403       2.13284981       3.71187060      -0.00531201      -0.00672684       0.01235940
C       -2.39323320       4.27769913       3.60966515       0.00020357       0.00405389       0.00045045
C       -3.61604815       6.42888649       3.58201253       0.00827557       0.00466921       0.00374533
C       -4.84440644       8.57854493       3.65328768      -0.00056525      -0.00333587       0.00384795
C        2.55742856       0.05059769       3.80338117       0.00082026       0.00023635       0.00306996
C        1.31452392       2.19243873       3.90221411       0.00254224       0.00121148      -0.00015183
C        0.04737442       4.29281343       3.81102928      -0.00100092      -0.00287599      -0.00215590
C       -1.17725575       6.43975494       3.66901711       0.00448539       0.00176145       0.00354032
C       -2.38331287       8.57839907       3.70565194      -0.00414923      -0.00366534      -0.01185161
C        5.02740616       0.01691954       3.79920496       0.00300035      -0.00454699       0.00250934
C        3.79656225       2.19665978       3.91890416      -0.00168697       0.00492526      -0.00604784
N        1.20443494       6.38600150       4.03556080       0.00418537       0.00331231      -0.00076490
C        0.09326547       8.52527351       3.80621889      -0.00257745      -0.00153575      -0.00202811
C        7.50049916      -0.03146736       3.77157145       0.00838069      -0.00094862       0.00471357
C        6.26821492       2.13745722       3.73280837      -0.00313845       0.00049346      -0.00331214
C        5.04632765       4.31521365       3.73915415      -0.00604724       0.00453627       0.00116165
O        3.88921472       6.42144803       3.70199838      -0.01015199      -0.00426289       0.00169260
C        2.57364945       8.45925866       3.82973859       0.00497271       0.00023281      -0.00296307
C        9.94804883      -0.03005497       3.73404911      -0.00367527      -0.00203681      -0.00819612
C        8.72019200       2.12481887       3.66473309       0.00154492      -0.00252358      -0.00595438
C        7.49225701       4.28086320       3.59119235       0.00165206       0.00445380      -0.01687921
C        6.27658086       6.43951318       3.56704925      -0.00014838      -0.00152551       0.00709603
C        5.02710281       8.54041936       3.68626802       0.00034426       0.00506686       0.00494758
C        0.07832329       1.44553193       3.78415423      -0.00011023       0.00066608       0.00330912
C       -1.17395420       3.56063289       3.68068335      -0.00346827      -0.00471251      -0.00331064
C       -2.39220780       5.71010296       3.60302022       0.00601907       0.00516279       0.00133854
C       -3.61078036       7.86089930       3.63636821      -0.00092114      -0.00207936      -0.00002467
C       -4.83943985      10.01086334       3.73822968      -0.00044063      -0.00037853      -0.00833727
C        2.55804939       1.48226700       3.90199735       0.00099601       0.00333958      -0.00214654
C        1.25357677       3.60686956       4.01684499       0.00319588       0.00118993      -0.00503852
C        0.04000131       5.73214880       3.79853163       0.00478636       0.00041056       0.00523141
C       -1.15659767       7.85339160       3.72396493      -0.00454525      -0.00027900      -0.00023941
C       -2.38189112      10.00700246       3.77539533       0.00060056      -0.00492696       0.00093588
C        5.03076625       1.44331909       3.81720700      -0.00285118      -0.00077579       0.00502598
C        3.84348724       3.61721856       4.01413818      -0.00405226       0.00243561       0.00582558
C        1.30271769       7.75721722       3.89713298       0.00127769       0.00438877       0.00854075
C        0.09345087       9.95751727       3.79435517       0.00666615      -0.00222617      -0.00821395
C        7.49615224       1.40461179       3.71651372       0.00216942      -0.00141938      -0.00212327
C        6.27158832       3.56871613       3.66081918      -0.00325943       0.00499003      -0.00245576
C        5.08925952       5.72599013       3.63293340      -0.00695228       0.00125148      -0.00235864
C        3.82849733       7.82734657       3.75052595       0.00174261      -0.00172410       0.00508484
C        2.55929499       9.90904176       3.77790864       0.00469157      -0.00216672      -0.00036083
C        9.94597695       1.40650238       3.69455579      -0.00348195      -0.00618886       0.00662832
C        8.71974478       3.55752300       3.60631549       0.00197532       0.00139959       0.00409996
C        7.49841205       5.70769061       3.56288217       0.00769491       0.00605551      -0.00065574
C        6.27356163       7.86059594       3.61580717      -0.00145126      -0.00024223      -0.00173181
C        5.02073831       9.97151904       3.71862615      -0.00417092       0.00559544       0.01588677
Ru       2.54061413       4.86921391       4.79492480      -0.00398596      -0.00704393       0.00194716
O        2.23246432       4.41672382       6.57351113      -0.00129950       0.00002228      -0.00405034
O        1.02107620       5.19183056       6.94561042      -0.00558287      -0.00756086      -0.01448927
H        0.74757643       4.66866285       7.73156435       0.00505798       0.00057604       0.00859810
