52
Lattice="12.336457 0.0 0.0 -6.168228499999997 10.683685154694365 0.0 0.0 0.0 15.0" Properties=species:S:1:pos:R:3:forces:R:3 energy=-451.6016319330448 free_energy=-451.6016319330448 stress="-0.009240418216595067 0.0036089188346186156 -8.003382353237623e-06 0.0036089188346186156 -0.005892017131379644 1.2244988573389432e-05 -8.003382353237623e-06 1.2244988573389432e-05 1.38227371545914e-05" pbc="T T T"
C        0.06372220       0.04463347       3.73295447       0.00605505      -0.00200282      -0.00516735
C       -1.15999296       2.18466006       3.62255799      -0.00356384      -0.00363496       0.00110884
C       -2.41044816       4.32617555       3.72127242      -0.00510210       0.00018144      -0.00060223
C       -3.65360707       6.45998665       3.80468398       0.00293845       0.00364596      -0.00131778
C       -4.88972739       8.58923249       3.78170427       0.00318949       0.00014634       0.00002763
C        2.52427126       0.04040071       3.92002492       0.00507655      -0.00516127      -0.00647530
C        1.33335521       2.13031681       3.55033137      -0.00031805       0.00388233       0.00337717
C       -0.02956777       4.39603327       3.40374826       0.00334673      -0.00192979      -0.00222131
C       -1.22757861       6.49585650       3.79078531      -0.00431613       0.00274508       0.00400005
C       -2.43016603       8.60605519       3.95834494      -0.00550839      -0.00361282       0.00010631
C        4.99968683       0.04504987       4.03986451      -0.00354644      -0.00008579      -0.00868766
C        3.78643043       2.18113056       3.90553963      -0.00247136      -0.00629013       0.00610652
C        1.21121818       6.47436272       3.83240712       0.00335486       0.00070800      -0.00749237
C        0.04236072       8.60081173       3.98747843      -0.00092679       0.00224452      -0.00195474
C        7.47697523       0.03763156       4.00055062      -0.00264459       0.00394905       0.00343306
C        6.26532728       2.15577749       3.95701774       0.00519848       0.00113300      -0.00707624
C        5.07581959       4.26319161       3.66013790      -0.00042687      -0.00231874       0.00022417
P        3.53694483       6.29190533       2.88405153      -0.01201151      -0.00044281       0.00558837
C        2.52106091       8.60145192       3.82801298      -0.00082952       0.00427717       0.00527561
C        9.94209708       0.04482738       3.81548329      -0.00544065       0.00193536      -0.00589168
C        8.72140431       2.17399247       3.85706348       0.00296503      -0.00019758      -0.00495581
C        7.49392834       4.30644715       3.78989402       0.00315232      -0.00068784       0.00216660
C        6.25012163       6.44476185       3.58445868       0.00696289      -0.00265369      -0.01018186
C        4.98806627       8.58657784       3.63197172      -0.00261081       0.00428870      -0.00023123
C        0.07594122       1.47234960       3.62292557       0.00017885      -0.00216752       0.00457193
C       -1.18596300       3.61445133       3.56625660      -0.00303036      -0.00197478      -0.00752136
C       -2.42911391       5.75314126       3.77909154      -0.00377159       0.00203815      -0.00151895
C       -3.65685969       7.88604188       3.85516583      -0.00174297      -0.00111205       0.00612995
C       -4.87869859      10.01525413       3.81992671       0.00763146      -0.00214996      -0.00152870
C        2.54059325       1.45879379       3.83021231      -0.00246328      -0.00497358      -0.00658134
P        1.52988703       3.75877644       2.86105473       0.00692996       0.00729723      -0.00168697
C       -0.01115917       5.79464860       3.63948640      -0.00180235       0.00012260       0.00346235
C       -1.20206682       7.90398282       3.94120427      -0.00533955       0.00179095       0.00895478
C       -2.41389315      10.02296662       4.00281160      -0.00047315      -0.00585897       0.00612025
C        5.01945985       1.45983026       3.99783652       0.00099218       0.00123174       0.00685489
C        3.85158654       3.58603713       3.83721126       0.00264868      -0.00772418      -0.00176436
C        1.27499727       7.87929511       3.89792374       0.00158838       0.00400891       0.00649398
C        0.06294246      10.01575112       4.03520556      -0.00308795       0.00263148       0.00718801
C        7.49378389       1.45430408       3.96505467       0.00562103       0.00282572      -0.00285210
C        6.29189619       3.56419008       3.81104516       0.00259735       0.00093411       0.00505548
C        5.09489461       5.66082037       3.42881542      -0.00105771      -0.00055485      -0.00165442
C        3.73026874       7.92694943       3.56308767      -0.00366432       0.00170884      -0.00761228
C        2.53865446      10.02031459       3.91411517      -0.00452773       0.00454288       0.00129107
C        9.95380868       1.47108111       3.77568467      -0.00187026      -0.00159024       0.00292794
C        8.71883530       3.59963282       3.80475955      -0.00098781      -0.00241990       0.00844568
C        7.47526429       5.73301145       3.73087981       0.00838108      -0.00076227       0.00351420
C        6.22388424       7.87464964       3.63478063       0.00191700       0.00262564      -0.00257850
C        4.99925155      10.01476994       3.73197755      -0.00135798       0.00487569       0.01013600
Ru       2.53126507       5.03837196       4.47791814       0.00305080       0.00199046      -0.00605767
O        2.20691914       4.96031919       6.37203207       0.00567305      -0.00252260      -0.00664809
O        1.55043391       3.68095543       6.69998134      -0.01559769      -0.00560912       0.00119244
H        1.20714344       3.92481155       7.58665304       0.01104207       0.00067693      -0.00349297
