52
Lattice="12.336457 0.0 0.0 -6.168228499999997 10.683685154694365 0.0 0.0 0.0 15.0" Properties=species:S:1:pos:R:3:initial_magmoms:R:1:forces:R:3 energy=-460.45305151775887 free_energy=-460.45305151775887 stress="-0.002730395273937246 0.0034304776959284563 2.0088445678855042e-05 0.0034304776959284563 -0.006807964773767599 1.54416949079368e-05 2.0088445678855042e-05 1.54416949079368e-05 -3.6607044956965624e-05" pbc="T T T"
C        0.00437051      -0.01904836       3.73786176       0.00000000      -0.00095387      -0.00397343      -0.00208318
C       -1.20752363       2.13400151       3.79440119       0.00000000      -0.00056338       0.00343094      -0.00007253
C       -2.43539546       4.26107636       3.79809576       0.00000000      -0.00349563      -0.00200481       0.00435360
C       -3.69501170       6.38728132       3.74714407       0.00000000      -0.00040404      -0.00061435       0.00546406
C       -4.94937204       8.51383207       3.70740659       0.00000000       0.00131691       0.00023742       0.00091075
C        2.46119899      -0.03714921       3.70622018       0.00000000       0.00372910      -0.00090445      -0.00042495
C        1.25118916       2.11272193       3.81557341       0.00000000       0.00192080      -0.00007668       0.00015251
C        0.04143220       4.27286120       3.92062918       0.00000000       0.00152174      -0.00119945      -0.00382430
C       -1.22474649       6.40116162       3.81001734       0.00000000       0.00022520      -0.00299275      -0.00231683
C       -2.48052273       8.52340194       3.70241114       0.00000000      -0.00079785      -0.00092221       0.00175386
C        4.93145295      -0.02727614       3.63015275       0.00000000       0.00322763      -0.00246253      -0.00028723
C        3.70903703       2.07861931       3.67122392       0.00000000       0.00008359      -0.00303770      -0.00217308
C        2.53588740       4.18754526       3.96806097       0.00000000       0.00338097      -0.00232458      -0.00644821
C        1.21953703       6.47536903       3.95297550       0.00000000      -0.00259921       0.00582367      -0.00348987
C       -0.02397969       8.54493167       3.64848276       0.00000000       0.00003205       0.00356990       0.00281420
C        7.40065671      -0.00468955       3.61709234       0.00000000       0.00083246       0.00467075      -0.00137504
C        6.18564698       2.09955644       3.63204290       0.00000000      -0.00280780      -0.00015786       0.00342265
C        4.96464001       4.19040160       3.60515289       0.00000000      -0.00240314       0.00004106       0.00331762
S        3.62575201       6.32160900       2.61016774       0.00000000      -0.00112869       0.00132437       0.00029100
C        2.43677918       8.57614566       3.54942672       0.00000000       0.00001067       0.00067335      -0.00360648
C        9.88053536       0.00238461       3.66945741       0.00000000      -0.00180776      -0.00052070       0.00249744
C        8.65803357       2.12508429       3.70357289       0.00000000       0.00010390      -0.00180961      -0.00459247
C        7.42982779       4.24537563       3.69553028       0.00000000       0.00144651       0.00011807       0.00130240
C        6.16971884       6.38128298       3.66389515       0.00000000       0.00010780       0.00303857      -0.00006189
C        4.93240934       8.52865458       3.62560750       0.00000000       0.00196486      -0.00038298      -0.00025985
C        0.01744112       1.41022429       3.78870961       0.00000000       0.00033418       0.00040519       0.00027269
C       -1.19457381       3.55951028       3.84345010       0.00000000       0.00076557       0.00505222       0.00162181
C       -2.45004244       5.68416763       3.79187359       0.00000000       0.00043079      -0.00386931      -0.00099332
C       -3.71087186       7.80721027       3.72406542       0.00000000       0.00090672      -0.00160500       0.00111531
C       -4.94234479       9.93961708       3.72155395       0.00000000       0.00212393      -0.00140994      -0.00245733
C        2.46904975       1.38369908       3.73195074       0.00000000       0.00020830      -0.00172750       0.00065157
C        1.27691482       3.55147602       3.91347131       0.00000000      -0.00589657      -0.00183527      -0.00465062
C        0.03632001       5.70469618       3.90645546       0.00000000      -0.00516281      -0.00800233       0.00134397
C       -1.24612998       7.81970960       3.72123008       0.00000000      -0.00000340      -0.00091053       0.00162833
C       -2.47388286       9.94262279       3.67091002       0.00000000       0.00328441      -0.00064471      -0.00108004
C        4.94524771       1.38788407       3.62677180       0.00000000      -0.00119797      -0.00366661      -0.00132840
C        3.72723903       3.49712196       3.69484663       0.00000000      -0.00181496      -0.00099345       0.00192520
C        1.21605806       7.84871322       3.65960696       0.00000000      -0.00005325       0.00047751       0.00357395
C       -0.00457293       9.96031132       3.61346656       0.00000000       0.00352200       0.00331737      -0.00214687
C        7.41834533       1.40835892       3.64817743       0.00000000      -0.00091285       0.00157837      -0.00023264
C        6.20331097       3.51576783       3.63786013       0.00000000      -0.00092210      -0.00040012       0.00793633
C        4.94987107       5.61606674       3.57087428       0.00000000      -0.00068911       0.00006835      -0.00261619
C        3.66643745       7.86122304       3.49582614       0.00000000       0.00417983       0.00844857      -0.00087759
C        2.46793018       9.98782993       3.60442767       0.00000000      -0.00204242       0.00267009      -0.00125193
C        9.89244281       1.42219709       3.72596312       0.00000000       0.00081409       0.00090060      -0.00361149
C        8.66624379       3.54611484       3.73586683       0.00000000      -0.00170714      -0.00177644      -0.00077239
C        7.40694191       5.67250149       3.71646311       0.00000000      -0.00074718       0.00252624      -0.00131333
C        6.14766240       7.79750561       3.66385157       0.00000000       0.00120859       0.00293652      -0.00296053
C        4.93711643       9.95449162       3.68910865       0.00000000      -0.00228947      -0.00257572      -0.00366317
Ru       2.97241211       5.97721232       4.72175079       0.00000000       0.02381891       0.01507026      -0.01741222
O        2.40427480       5.62663533       6.60760577       1.00000000       0.01115494       0.00408947       0.01754805
O        2.68339463       6.93803430       6.65252926       1.00000000      -0.03225580      -0.01766781       0.01448667
