51
Lattice="12.336457 0.0 0.0 -6.168228499999997 10.683685154694365 0.0 0.0 0.0 15.0" Properties=species:S:1:pos:R:3:initial_magmoms:R:1:forces:R:3 energy=-447.21524944263786 free_energy=-447.21524944263786 stress="-0.008974537668972885 0.003162459347374662 -5.582673089397071e-06 0.003162459347374662 -0.005739533329631094 -3.9988715436725735e-06 -5.582673089397071e-06 -3.9988715436725735e-06 9.556461598116648e-06" pbc="T T T"
C       -0.02330174       0.02198174       3.65920999       0.00000000       0.00139419      -0.00126523      -0.00234064
C       -1.24957057       2.16244143       3.59317929       0.00000000      -0.00307255       0.00256063       0.00035864
C       -2.49863481       4.30416369       3.73743647       0.00000000       0.00131548      -0.00187185      -0.00051386
C       -3.74174248       6.43768961       3.79417279       0.00000000      -0.00138188       0.00235520      -0.00213875
C       -4.97541778       8.56714144       3.71620356       0.00000000      -0.00322912      -0.00325072       0.00335851
C        2.43943681       0.01892123       3.81868473       0.00000000      -0.00024181       0.00031618       0.00655177
C        1.24076891       2.10931821       3.46016019       0.00000000      -0.00183046      -0.00084599      -0.00116831
C       -0.11740508       4.37542716       3.43321785       0.00000000       0.00438053      -0.00152637       0.00644701
C       -1.31263375       6.47020396       3.84750361       0.00000000       0.00036136      -0.00278500      -0.00808072
C       -2.51764044       8.58447396       3.93343095       0.00000000       0.00149860       0.00296065      -0.00015315
C        4.91321817       0.02367374       3.96018254       0.00000000      -0.00117951       0.00255158       0.00031182
C        3.70199352       2.15941681       3.75232874       0.00000000       0.00247310      -0.00015220       0.00060945
C        1.13188983       6.45001406       3.83428372       0.00000000      -0.00055190      -0.00063793      -0.00387480
C       -0.04227127       8.57735495       3.97672110       0.00000000      -0.00030962       0.00112121      -0.00353417
C        7.38971510       0.01464821       3.94803159       0.00000000      -0.00176083       0.00140406       0.00040485
C        6.17783155       2.13310166       3.85832600       0.00000000       0.00430831      -0.00169937       0.00053463
C        4.99432666       4.23989010       3.50781503       0.00000000       0.00114789       0.00235294      -0.00694081
P        3.45763555       6.29102304       2.74685659       0.00000000      -0.00147822       0.00362781      -0.00408389
C        2.43639128       8.57667920       3.77650720       0.00000000      -0.00041236      -0.00092009      -0.00276425
C        9.85400511       0.02118895       3.76150424       0.00000000      -0.00008753      -0.00119345       0.00141030
C        8.63247044       2.15126380       3.81923659       0.00000000       0.00100053       0.00133225      -0.00221606
C        7.40642753       4.28495151       3.73448662       0.00000000      -0.00113622       0.00002383       0.00054558
C        6.16744534       6.42407815       3.49452051       0.00000000      -0.00320425      -0.00189195       0.00019350
C        4.90165121       8.56538812       3.55165037       0.00000000       0.00136503      -0.00394244       0.00690052
C       -0.01410649       1.44989530       3.55981416       0.00000000      -0.00290294       0.00005641      -0.00013942
C       -1.27489866       3.59263139       3.57790688       0.00000000       0.00278558       0.00130875       0.00047809
C       -2.51665751       5.73030368       3.80983503       0.00000000      -0.00100879      -0.00115138      -0.00627752
C       -3.74438702       7.86414976       3.82443325       0.00000000      -0.00026405       0.00244821       0.00191174
C       -4.96438287       9.99345283       3.73726364       0.00000000       0.00164601      -0.00365257       0.00024386
C        2.45559048       1.43548825       3.70149880       0.00000000      -0.00133275       0.00092881       0.00702058
P        1.40357851       3.74766835       2.78554647       0.00000000      -0.00362255       0.00171409      -0.00118253
C       -0.09655406       5.76997351       3.69268646       0.00000000       0.00233292      -0.00112227      -0.00117570
C       -1.28857407       7.88199574       3.95750109       0.00000000       0.00023022      -0.00032432      -0.00552858
C       -2.50039002      10.00182179       3.93009952       0.00000000       0.00020517       0.00299948       0.00625880
C        4.93302472       1.43663865       3.87922248       0.00000000       0.00312971       0.00132944       0.00330235
C        3.76953242       3.56026589       3.66145602       0.00000000       0.00649167      -0.00263050      -0.00956295
C        1.19216517       7.85493419       3.87934963       0.00000000       0.00062853      -0.00247474      -0.00300877
C       -0.02356904       9.99336244       3.98884520       0.00000000      -0.00281143       0.00198030       0.00030211
C        7.40499820       1.43126676       3.90337874       0.00000000       0.00377986      -0.00022826      -0.00168036
C        6.20635447       3.54139239       3.70365956       0.00000000       0.00012388      -0.00114078      -0.00294563
C        5.01796187       5.64135176       3.28958521       0.00000000      -0.00501487       0.00468365       0.00503550
C        3.64334349       7.90737565       3.48046213       0.00000000       0.00192117       0.00020075       0.00094967
C        2.45175926       9.99569430       3.86275768       0.00000000      -0.00149047      -0.00084461       0.00953390
C        9.86478384       1.44761351       3.73902424       0.00000000      -0.00174677       0.00116982      -0.00234228
C        8.62959995       3.57735318       3.78394843       0.00000000       0.00027242       0.00052828       0.00369961
C        7.38870776       5.71206835       3.68131373       0.00000000      -0.00203242       0.00128952      -0.00438189
C        6.13898317       7.85375263       3.55608376       0.00000000      -0.00251786      -0.00501812       0.00107084
C        4.91192224       9.99226769       3.66583372       0.00000000       0.00104937      -0.00135557       0.00020442
Ru       2.49796556       5.02053902       4.31455528       0.00000000      -0.00124855      -0.00383513       0.01875315
O        3.55986729       4.16923042       6.63792892       1.00000000      -0.00087929       0.00473748      -0.01263835
O        2.34612074       4.47177948       6.29014594       1.00000000       0.00290748      -0.00022047       0.00228221
