50
Lattice="12.336457 0.0 0.0 -6.168228499999997 10.683685154694365 0.0 0.0 0.0 15.0" Properties=species:S:1:pos:R:3:forces:R:3 energy=-453.14722206151987 free_energy=-453.14722206151987 stress="-0.004181216035981384 -2.366812373327951e-05 -1.8012442549430526e-06 -2.366812373327951e-05 -0.0027671850530492192 -5.790740515360947e-06 -1.8012442549430526e-06 -5.790740515360947e-06 -3.6608307953294087e-06" pbc="T T T"
C       -0.00221380      -0.00330872       3.64133814      -0.00495503       0.00684327      -0.00084563
C       -1.23670054       2.13522685       3.66363080       0.00091721      -0.00157937       0.00385688
C       -2.46877490       4.27052317       3.66315299       0.00306434       0.00278862       0.00398382
C       -3.70177668       6.40923574       3.64600041      -0.00308328      -0.00937826      -0.01166462
C       -4.93299792       8.54747833       3.64145476      -0.00173408      -0.00359048      -0.00334842
C        2.46646319      -0.00449440       3.64263335       0.00257159      -0.00410936      -0.00429071
C        1.22758228       2.11992791       3.71426550       0.00006842       0.00102421      -0.00262863
C       -0.00445317       4.28724188       3.81605716      -0.01073650      -0.00267064       0.00588780
C       -1.24945034       6.41836614       3.71122718       0.00021520      -0.00211802      -0.00798883
C       -2.47104420       8.54741846       3.64289860       0.00983248      -0.00207164      -0.00502392
C        4.93536381      -0.00350613       3.64269806       0.00474118       0.01154196      -0.00241386
C        3.70579384       2.12028217       3.71547668      -0.00534988      -0.00140896      -0.00078563
C        2.46530880       4.17364068       4.06822942       0.00838654      -0.00314143       0.00220576
N        1.11111423       6.46887257       4.04791790       0.00273526       0.00046138       0.00073084
C       -0.01180309       8.54625997       3.71176440      -0.00012547       0.00216824      -0.00548755
C        7.40437643      -0.01129949       3.66432207      -0.00565955      -0.00345736       0.00704710
C        6.16991926       2.13570523       3.66323995      -0.00589199      -0.00435907       0.00749284
C        4.93621016       4.28799199       3.82112203       0.01758184      -0.00508711       0.00469805
N        3.82314396       6.47113126       4.05898819      -0.00323353      -0.00867471      -0.01354499
C        2.46646181       8.51337838       3.82621130       0.00130193       0.00531987       0.00296530
C        9.86535172      -0.01163793       3.66521752       0.00180096       0.00119000       0.00126127
C        8.63508718       2.13089043       3.63935761      -0.00642220       0.00724353       0.00294867
C        7.40094042       4.27051123       3.66416632      -0.00024967       0.00482957       0.00337011
C        6.18238578       6.41842631       3.71421410      -0.00375400       0.00078495      -0.01015060
C        4.94489123       8.54659221       3.71055189      -0.00047372      -0.00221012       0.00170587
C       -0.00379604       1.41945729       3.66349167       0.00163858       0.00577716       0.00187748
C       -1.23477109       3.56415109       3.69797579      -0.00539556      -0.00595847       0.00252168
C       -2.47164307       5.69545749       3.66540759       0.00174853      -0.00130464      -0.00116972
C       -3.70203044       7.83282708       3.63775808       0.00308817      -0.00672533       0.00099849
C       -4.93580744       9.97124119       3.63587046      -0.00539506       0.00177812      -0.00450607
C        2.46680025       1.41536461       3.68978419      -0.00250363      -0.00282850      -0.00342847
C        1.21858564       3.54986176       3.85602098      -0.00344758       0.00018017       0.00235120
C       -0.02605653       5.71657525       3.85030673      -0.00616228      -0.00082853       0.00364277
C       -1.24342734       7.83670132       3.68858944       0.00620089      -0.00413214      -0.01383118
C       -2.46787427       9.97117169       3.63708047       0.01187811       0.00253459      -0.00388013
C        4.93723688       1.41954917       3.66401937      -0.00677115       0.00713886       0.00349865
C        3.71315547       3.55039165       3.85926314       0.01271221      -0.00508769       0.00044340
C        1.20525237       7.83334674       3.85737377      -0.00174896       0.00757075       0.00170349
C        0.00025549       9.96828555       3.66284118      -0.00354014       0.00183178       0.00571608
C        7.40166001       1.41791097       3.64349988      -0.00901783      -0.00186764       0.00548821
C        6.16663230       3.56467883       3.69943639       0.00997364      -0.00628784       0.00695634
C        4.95876815       5.71756959       3.85758977       0.00718605      -0.00337488      -0.00022216
C        3.72809982       7.83421624       3.86047348       0.00123669      -0.00185353      -0.00232124
C        2.46651047       9.94890625       3.70456543       0.00011954       0.00241056       0.00365098
C        9.86842863       1.41742284       3.64449043      -0.00206126       0.00347487       0.00321692
C        8.63442519       3.55657694       3.64337743       0.00073917       0.01019781       0.00198197
C        7.40449113       5.69544583       3.66658213      -0.00814075      -0.00084184       0.00049158
C        6.17607003       7.83663658       3.68753895      -0.00219101      -0.00287026      -0.00871939
C        4.93303754       9.96839381       3.66170794       0.00001665      -0.00115678       0.00748044
Ru       2.46309655       5.68771198       5.17947828      -0.00171105       0.01188431       0.00607777
