50
Lattice="12.336457 0.0 0.0 -6.168228499999997 10.683685154694365 0.0 0.0 0.0 15.0" Properties=species:S:1:pos:R:3:forces:R:3 energy=-445.8403636398431 free_energy=-445.8403636398431 stress="-0.0074095598546476005 0.002900925646767591 2.1287310270517826e-06 0.002900925646767591 0.0011557834866044087 -2.1623944312277854e-06 2.1287310270517826e-06 -2.1623944312277854e-06 1.1488798275798322e-05" pbc="T T T"
C       -0.01297151       0.01301111       3.78256765       0.00831486       0.00467995      -0.00039398
C       -1.24535787       2.13032051       3.90139442      -0.00634556      -0.00496802      -0.01201307
C       -2.47676012       4.27314800       3.82624568       0.00333931      -0.00207549       0.00218303
C       -3.71416949       6.41700819       3.67101207       0.00688387       0.00007516       0.00363382
C       -4.96342323       8.55806968       3.62247255       0.00117228      -0.00966589       0.00285195
C        2.44871144       0.03572059       3.79106163      -0.00758625      -0.00048804       0.00025596
C        1.22924794       2.19066727       3.91845751       0.00237468      -0.00367202       0.00373603
C       -0.04222618       4.29484347       3.98728521       0.00173412      -0.00110960      -0.00592929
C       -1.28816826       6.43807563       3.88653124      -0.00682937       0.00286831      -0.00977342
C       -2.50195767       8.56718691       3.78789124      -0.00193895       0.00730661      -0.00766079
C        4.92383903       0.00197038       3.81705454      -0.00148970      -0.00469998       0.00109692
C        3.71034721       2.16453142       3.75406689       0.00293384       0.00070056      -0.00754668
N        1.10371130       6.42021950       4.03025849      -0.00558344       0.00436347      -0.00184647
C       -0.02934310       8.53119516       3.88823244      -0.00273170      -0.00474982       0.00747745
C        7.39650741      -0.02871970       3.87138348       0.00648538       0.00380403       0.00763132
C        6.19369492       2.10143238       3.70930324      -0.00458156       0.00424920       0.00736303
C        5.01988100       4.22516166       3.38653057      -0.00431258       0.00136432      -0.00788722
S        3.52901079       6.29031398       2.72205405      -0.00177645      -0.01110811       0.00761629
C        2.43937301       8.50374235       3.78797840      -0.00071307       0.00547895      -0.00224354
C        9.85783639      -0.02482555       3.83785304       0.00920055      -0.00148808       0.00423081
C        8.64104865       2.11556627       3.82078387      -0.00136070       0.00361022      -0.00857262
C        7.43672327       4.25545081       3.59241457       0.00008067       0.00158088       0.00810326
C        6.19587936       6.40496633       3.35267021       0.00219335      -0.00270794       0.00084703
C        4.91071140       8.53647982       3.54319926      -0.00113510       0.00481587       0.00724555
C       -0.00887911       1.43856079       3.88234822      -0.00159083       0.00280324      -0.00254332
C       -1.25991936       3.55882026       3.91809835       0.00013020      -0.00608702      -0.00601390
C       -2.49279470       5.70377250       3.79870542       0.00029376      -0.00403885      -0.00053503
C       -3.72751507       7.84693730       3.68544906       0.00560596      -0.00161670       0.00600177
C       -4.95046337       9.99188329       3.73140836      -0.00125848      -0.00778611       0.00159849
C        2.45981455       1.46839903       3.83956066       0.00416094      -0.00175157       0.00018615
C        1.17317888       3.60701627       4.02810270      -0.00572663      -0.00832466      -0.00104207
C       -0.06699626       5.73625445       3.97928075      -0.00353386       0.00544953      -0.00244794
C       -1.27554695       7.85058858       3.86112225      -0.00676050       0.00243354       0.00152343
C       -2.49185860       9.99377733       3.79801366      -0.00737636       0.00503137      -0.00684538
C        4.94578500       1.41737157       3.75739989       0.00008837      -0.00385611       0.00120903
C        3.80006319       3.56784601       3.64897733       0.00055245       0.00168185      -0.00977287
C        1.18428870       7.78334216       3.89789270      -0.00067558       0.00304159       0.00736947
C       -0.01353961       9.95674074       3.86031278       0.00458783      -0.00423441       0.00642197
C        7.41465205       1.39185724       3.80963185      -0.00090807       0.00623862      -0.00040037
C        6.23625577       3.51135479       3.54184158      -0.00258389       0.00195540      -0.00579868
C        5.05495666       5.61721433       3.15296772      -0.00361777       0.00262490       0.00551136
C        3.65325131       7.86941035       3.46476783      -0.00444498       0.00056985       0.00669469
C        2.45427487       9.93669498       3.86478884       0.00837936       0.00515272       0.00320230
C        9.86350293       1.40406701       3.87192382      -0.00572432      -0.00489700      -0.01401833
C        8.64825318       3.54463516       3.75176974       0.00233656       0.00261169       0.00271049
C        7.42208058       5.68602653       3.53203602       0.00631192       0.00081770       0.00337389
C        6.15218125       7.83604079       3.47159124      -0.00241089      -0.00252572      -0.00536369
C        4.92120414       9.96370903       3.73635913       0.01116876       0.00539167       0.00587475
Ru       2.62625701       4.94235248       4.40123481       0.00937059       0.00437760       0.00732910
O        2.97153855       5.11985406       6.10468917      -0.00470300      -0.00322765      -0.00463070
