51
Lattice="12.336457 0.0 0.0 -6.168228499999997 10.683685154694365 0.0 0.0 0.0 15.0" Properties=species:S:1:pos:R:3:initial_magmoms:R:1:forces:R:3 energy=-452.308213725012 free_energy=-452.308213725012 stress="-0.002979615368803099 -0.0022703738027441754 3.719938531433015e-06 -0.0022703738027441754 0.008135484617788588 -1.5667817702263758e-06 3.719938531433015e-06 -1.5667817702263758e-06 2.3715284342330933e-05" pbc="T T T"
C       -0.02646420      -0.02685675       3.71831094       0.00000000       0.00131867      -0.00104496      -0.00168369
C       -1.28765695       2.07700181       3.61994266       0.00000000       0.00507948      -0.00074019       0.00177674
C       -2.50725590       4.23094255       3.51093386       0.00000000      -0.00027656       0.00026225      -0.00011470
C       -3.71702632       6.38898622       3.51754752       0.00000000      -0.00329125       0.00520474       0.00571359
C       -4.94392134       8.54171088       3.63593243       0.00000000       0.00100952       0.00030466      -0.00395716
C        2.43441090       0.03048076       3.76024237       0.00000000      -0.00237409       0.00029785      -0.00049625
C        1.15876837       2.12205848       3.78316768       0.00000000      -0.00251671       0.00241723      -0.00759058
C       -0.09742780       4.21017541       3.62885609       0.00000000       0.00713284      -0.00029383      -0.00984102
C       -1.27416481       6.37029494       3.58683968       0.00000000      -0.00021154       0.00237196       0.00634354
C       -2.49374223       8.53991902       3.65450124       0.00000000       0.00109807      -0.00567700      -0.00207937
C        4.90249226      -0.01179498       3.76287864       0.00000000      -0.00149528      -0.00099688       0.00009538
C        3.66138064       2.19892973       3.89261349       0.00000000       0.00504586      -0.00080316      -0.00018967
C        1.14431267       6.30666914       3.96253165       0.00000000       0.00163675      -0.00532664       0.00768408
C       -0.02618860       8.49091015       3.76324138       0.00000000       0.00280016       0.00400913      -0.00035596
C        7.37653001      -0.06901816       3.74432392       0.00000000      -0.00064647       0.00022646       0.00212221
C        6.14402546       2.09691151       3.68589707       0.00000000       0.00082910       0.00013011       0.00329859
C        4.93740736       4.25920719       3.74387090       0.00000000      -0.00007081      -0.00079854      -0.00354969
N        3.80804866       6.36070274       3.93398330       0.00000000      -0.00188697      -0.00296280       0.00702352
C        2.44949588       8.43585160       3.85923964       0.00000000      -0.00332690      -0.00007205      -0.00176978
C        9.83145147      -0.07664872       3.72371075       0.00000000      -0.00049391       0.00123360      -0.00397919
C        8.59777477       2.07887608       3.60320924       0.00000000      -0.00428946      -0.00699215      -0.00399106
C        7.38224693       4.23798910       3.52501401       0.00000000      -0.00547422       0.00045830       0.00716920
C        6.18192403       6.40378822       3.56603533       0.00000000       0.00164714       0.00001212      -0.00014734
C        4.92340553       8.49099012       3.73423175       0.00000000       0.00545779       0.00549341      -0.00603557
C       -0.04087545       1.40254619       3.70783618       0.00000000       0.00145280      -0.00279685      -0.00398559
C       -1.28663176       3.49860325       3.55393585       0.00000000       0.00645871       0.00167672      -0.00012913
C       -2.49436807       5.65961557       3.51496269       0.00000000      -0.00374368       0.00540692      -0.00427340
C       -3.71662645       7.82133671       3.58953053       0.00000000      -0.00078415       0.00155154       0.00152827
C       -4.95186691       9.97557297       3.71005676       0.00000000      -0.00074646      -0.00232211      -0.00471813
C        2.41036096       1.47512548       3.83965811       0.00000000      -0.00098550       0.00366994       0.00379966
O        1.10051387       3.52586643       3.76213156       0.00000000      -0.00737776      -0.00703346       0.00161536
C       -0.04939796       5.61893524       3.68942084       0.00000000       0.00111731       0.00018753       0.00175441
C       -1.26636878       7.80179789       3.66236561       0.00000000       0.00410133       0.00074936       0.00936437
C       -2.50210134       9.97461965       3.73509167       0.00000000      -0.00257100      -0.00469304      -0.00720680
C        4.89325981       1.42363009       3.78596010       0.00000000       0.00506393      -0.00185709       0.00381301
C        3.73769522       3.61315317       4.03188734       0.00000000       0.00188690       0.00130934      -0.00114189
C        1.20662938       7.72081345       3.86934024       0.00000000      -0.00241463      -0.00164344       0.00280369
C       -0.03096714       9.92351698       3.76030174       0.00000000       0.00076842       0.00333950       0.00002948
C        7.37356632       1.36228741       3.67019624       0.00000000      -0.00442592      -0.00319993       0.00350143
C        6.16128163       3.52202830       3.61250079       0.00000000      -0.00231133      -0.00062756       0.00263404
C        4.96329858       5.69849787       3.69399902       0.00000000       0.00135643      -0.00263401       0.00495319
C        3.70853874       7.72969431       3.84315110       0.00000000       0.00139444       0.00342295      -0.00639709
C        2.43910326       9.87287639       3.77557077       0.00000000      -0.00186237       0.00056333      -0.00420448
C        9.83056696       1.35829175       3.64163262       0.00000000       0.00115861      -0.00081139      -0.00123688
C        8.60361935       3.51292654       3.52727075       0.00000000      -0.00410294      -0.00430011       0.00374717
C        7.39524803       5.67227481       3.51130608       0.00000000      -0.00140299       0.00079904       0.00461428
C        6.16725067       7.81891675       3.63698567       0.00000000       0.00459262       0.00069596       0.00675763
C        4.90805774       9.91568363       3.72849196       0.00000000       0.00221674       0.00543702      -0.00571936
Ru       2.45401853       5.02692007       4.83682185       0.00000000      -0.00379055       0.00796856       0.01679167
O        3.58285234       5.28756118       6.38899754       1.00000000      -0.00522434       0.00231132      -0.00676725
O        2.60189843       6.24568000       6.32942691       1.00000000       0.00347416      -0.00388365      -0.01737350
