50
Lattice="12.336457 0.0 0.0 -6.168228499999997 10.683685154694365 0.0 0.0 0.0 15.0" Properties=species:S:1:pos:R:3:forces:R:3 energy=-442.8394206461852 free_energy=-442.8394206461852 stress="-0.009479717964467671 0.0036866171973675755 -2.2362903281718326e-06 0.0036866171973675755 -0.006110928520488036 2.325889211340327e-06 -2.2362903281718326e-06 2.325889211340327e-06 -3.648619988559409e-06" pbc="T T T"
C       -0.00018215      -0.00205448       3.68736139      -0.00170780      -0.00105725      -0.00051926
C       -1.22494489       2.13867634       3.58963078      -0.00401805      -0.00549041       0.00197631
C       -2.47612662       4.27970272       3.70963649      -0.00145280       0.00109519      -0.00859807
C       -3.71974197       6.41419139       3.78945528       0.00149554       0.00001261      -0.01124139
C       -4.95444788       8.54273177       3.73888565       0.00486554      -0.00081712       0.00767985
C        2.46083397      -0.00610496       3.88147915      -0.01417168      -0.00111329       0.00064742
C        1.26963546       2.08552531       3.52735612       0.01101205      -0.00130117       0.00125424
C       -0.09741038       4.35372856       3.38882329       0.00022644       0.00593517       0.00680520
C       -1.29423627       6.44860776       3.78321298       0.00188451       0.00403014      -0.00865033
C       -2.49484246       8.55988763       3.92691024      -0.00528918      -0.00410937       0.00858598
C        4.93586416      -0.00183125       4.00457743      -0.00873607      -0.00401225       0.00306372
C        3.72289917       2.13572547       3.89172705       0.00202031       0.00884258       0.00010320
C        1.14166207       6.42594779       3.82243107       0.00631344      -0.00177973       0.00037572
C       -0.02129927       8.55299978       3.96417212       0.00240807      -0.00014940       0.00517806
C        7.41151429      -0.00998827       3.96405456       0.01810007       0.00494768       0.00194458
C        6.20119800       2.10873261       3.92706908       0.00142298      -0.00109958       0.01626521
C        5.01312184       4.21709094       3.64260232      -0.00317093      -0.00525284      -0.00521928
P        3.46596722       6.23749865       2.86897751      -0.00602079      -0.00194709      -0.01024574
C        2.45733934       8.55359064       3.80190564      -0.00774490       0.00100166      -0.01012392
C        9.87641516      -0.00254859       3.77130714       0.00853881       0.00361811       0.00698131
C        8.65657611       2.12595120       3.82483794      -0.00212411       0.00362870       0.00434430
C        7.43016188       4.25979910       3.77650902      -0.00145692      -0.00184850      -0.00792893
C        6.18510803       6.39618517       3.55261646       0.00064808       0.00052727      -0.00370865
C        4.92246922       8.53960732       3.58808030      -0.00566197       0.00169562       0.00284435
C        0.01185994       1.42655144       3.58750596       0.00529553      -0.00149982       0.00291832
C       -1.25098317       3.56997198       3.54624672      -0.00090493      -0.00037863      -0.00329172
C       -2.49584094       5.70641592       3.77172526       0.00122890       0.00234692      -0.00855197
C       -3.72229808       7.84029124       3.82542811       0.00209722      -0.00356879       0.00399384
C       -4.94220973       9.96888420       3.77368361      -0.00876143      -0.00377974       0.00693866
C        2.47666754       1.41290343       3.80709652       0.00781796      -0.00094710      -0.01020303
P        1.46983314       3.72684509       2.86658407       0.00637668       0.00204091      -0.01034464
C       -0.07921668       5.74947820       3.63053013       0.00303120       0.00527718      -0.00460969
C       -1.26700490       7.85758482       3.92087023      -0.00145380       0.00128067       0.01634674
C       -2.47736496       9.97629555       3.96601417      -0.01807956      -0.00501761       0.00169247
C        4.95530180       1.41350458       3.97060286      -0.00221526       0.00006845       0.00423576
C        3.79192111       3.54083921       3.83314885      -0.00610960       0.00147995      -0.00070401
C        1.21089058       7.83090687       3.88338323      -0.00181874      -0.00859222       0.00083753
C       -0.00176168       9.96822639       4.00239401       0.00887612       0.00394775       0.00340004
C        7.42912007       1.40642155       3.92814743       0.00525012       0.00415900       0.00907236
C        6.22838921       3.51790589       3.79252383      -0.00207319      -0.00365641      -0.00852927
C        5.03126729       5.61228189       3.39838491      -0.00011745      -0.00595635       0.00670159
C        3.66485733       7.88060919       3.52572939      -0.01105161       0.00118554       0.00091340
C        2.47324212       9.97250364       3.87771501       0.01413820       0.00102210       0.00082247
C        9.88869005       1.42358480       3.73649413      -0.00513054       0.00055591       0.00746924
C        8.65414994       3.55201952       3.78939507      -0.00163792       0.00033006      -0.01088747
C        7.41039536       5.68645487       3.71389288       0.00122019      -0.00061210      -0.00815454
C        6.15923060       7.82749380       3.59288250       0.00355483       0.00556925       0.00170049
C        4.93444542       9.96830562       3.68667862       0.00147077       0.00120182      -0.00048636
Ru       2.46435192       4.98362986       4.53911552      -0.00031869      -0.00010972       0.00627954
O        2.45361157       4.98719579       6.26690946       0.00193435      -0.00170373      -0.00937364
