52
Lattice="12.336457 0.0 0.0 -6.168228499999997 10.683685154694365 0.0 0.0 0.0 15.0" Properties=species:S:1:pos:R:3:forces:R:3 energy=-451.8340257810595 free_energy=-451.8340257810595 stress="-0.006142867135694238 -0.00522708951635301 -3.1523309598213573e-06 -0.00522708951635301 0.001980720984286444 -3.5573477126621774e-05 -3.1523309598213573e-06 -3.5573477126621774e-05 1.2612090532350233e-05" pbc="T T T"
C       -0.02779260      -0.03818932       3.88469445      -0.00255952       0.00044539      -0.00312057
C       -1.30254313       2.07064128       3.88711559      -0.00623970       0.00347594       0.00155488
C       -2.50292596       4.22888606       3.76495862      -0.00664397       0.00042220       0.00311189
C       -3.68848888       6.38760898       3.69597837       0.00698974       0.00708269       0.00453851
C       -4.92419163       8.54057776       3.77422485      -0.00195739      -0.00102636       0.00219142
C        2.43826625      -0.00511009       3.91692596      -0.00219564       0.00133252      -0.00435367
C        1.13736165       2.08999991       4.02852026      -0.00278955       0.00188074      -0.01254535
C       -0.11300850       4.19268864       4.03661073       0.00305258      -0.00518982       0.00065767
C       -1.25363761       6.36000283       3.87690269       0.00080542      -0.00363443       0.00072542
C       -2.47394969       8.52587892       3.84474376      -0.00737326       0.00111050      -0.00441275
C        4.90805036      -0.02269733       3.76512896      -0.00415744      -0.00252525       0.00451518
C        3.62385167       2.10449664       3.62165376       0.00310821      -0.00150104      -0.00022729
C        1.18981572       6.31933839       4.05035395       0.00355240       0.00227163      -0.00311305
C       -0.01097680       8.49074169       3.85748005      -0.00470967      -0.00217338       0.00596666
C        7.37314252      -0.05907294       3.72666746      -0.00007539      -0.00274192       0.00556651
C        6.13005329       2.10813630       3.53078517       0.00949151       0.00101977       0.00172456
C        5.00427019       4.33880476       3.28281768      -0.00278237       0.00803676      -0.00870704
N        3.83989519       6.40212908       3.60664065      -0.00617555      -0.00612168      -0.00163779
C        2.46091467       8.45127575       3.81148043       0.00898632      -0.00189289       0.00561001
C        9.82921329      -0.06898285       3.78317989      -0.00649410       0.00821192       0.00178307
C        8.58931362       2.08661865       3.68243854       0.00430836      -0.00438502      -0.00532116
C        7.40156352       4.25037834       3.52128392       0.00594929      -0.00455182       0.00138417
C        6.23665099       6.44248463       3.47632160       0.00723120      -0.00617092      -0.00208612
C        4.94341538       8.51383912       3.70733497      -0.00033592      -0.00254369       0.00587750
C       -0.05888373       1.38315847       3.95800169      -0.00529662       0.00250584      -0.00332296
C       -1.30103931       3.48886956       3.89157601      -0.00510558       0.00237740       0.00134516
C       -2.47282603       5.65468996       3.77715298      -0.00006317       0.00114548       0.00240435
C       -3.69502034       7.81513206       3.77440792      -0.00353879       0.00404021       0.00970328
C       -4.94897830       9.96028403       3.88645956       0.00051969      -0.00132487      -0.00579285
C        2.40202621       1.42971305       3.90438529      -0.00135946       0.00069610      -0.00259876
O        1.03915955       3.46620769       4.28161564       0.00598466      -0.00269911       0.00365012
C       -0.03254063       5.60783799       3.99732720       0.00429444      -0.00394169       0.00157299
C       -1.24558783       7.79209605       3.86429885      -0.00708276      -0.00238999      -0.00529789
C       -2.48846605       9.95795696       3.85684973      -0.00623829      -0.00079653      -0.00308024
C        4.88289207       1.41192906       3.62503269       0.00580061      -0.00126270      -0.00138897
P        3.38255995       3.75878045       2.96369383      -0.01090195       0.00071197       0.00177971
C        1.22798892       7.72986612       3.90388468       0.00437612       0.00101152      -0.00390981
C       -0.02457909       9.92225809       3.77807813      -0.00482975      -0.00215742      -0.00033902
C        7.35673619       1.37676610       3.63676371       0.00866128      -0.00445755      -0.00091068
C        6.16938026       3.54002979       3.41015231      -0.00070884       0.00497848       0.00353973
C        5.02195456       5.75922218       3.37744549       0.00042263       0.00194772       0.00755289
C        3.72686056       7.76381813       3.71551071       0.00213182      -0.00768448      -0.00701652
C        2.43744431       9.88745807       3.76729443       0.00078358      -0.00003843      -0.00007757
C        9.81898310       1.36318701       3.78501083      -0.00337788       0.00505066       0.00184464
C        8.60598458       3.51952467       3.64998061       0.00079689      -0.00802614       0.00546828
C        7.43134491       5.68286905       3.54751749       0.01379497      -0.00245437       0.00004538
C        6.19416748       7.84064899       3.64949067       0.00096011      -0.00433132      -0.00284902
C        4.91093508       9.92491959       3.79958147      -0.00797539       0.00319367       0.00747713
Ru       2.63038162       5.08616641       4.59864518       0.01011601       0.00390109      -0.00553698
O        3.59249893       5.75799515       6.06899406      -0.00336898       0.00432980      -0.00218256
O        2.83589150       5.37645124       7.29577665       0.00462020       0.00426620       0.00377052
H        3.59121812       5.14763526       7.88110908      -0.00240111       0.01057662      -0.00553302
