51
Lattice="12.336457 0.0 0.0 -6.168228499999997 10.683685154694365 0.0 0.0 0.0 15.0" Properties=species:S:1:pos:R:3:forces:R:3 energy=-456.5246109207067 free_energy=-456.5246109207067 stress="-0.0015746782733102919 0.005362165488485533 -7.390503067354487e-06 0.005362165488485533 -0.0040410418850121655 2.0856228866886448e-06 -7.390503067354487e-06 2.0856228866886448e-06 -1.112540542769709e-07" pbc="T T T"
C       -0.01592058      -0.00469780       3.78391362       0.00557436      -0.00814696      -0.00160608
C       -1.21444842       2.15504606       3.82090155      -0.00309305      -0.00165054       0.00728328
C       -2.44135682       4.28126965       3.82743608      -0.00187400      -0.00454023       0.00268206
C       -3.71292305       6.40445281       3.78493193      -0.00842177       0.00477607       0.00125243
C       -4.96949031       8.53241794       3.76199388       0.00066746      -0.00296339       0.00148512
C        2.44183164      -0.01416086       3.74429398       0.00100183      -0.00179763       0.00568165
C        1.24266326       2.15036268       3.78898814      -0.00232731       0.00089514      -0.00146065
C        0.04519940       4.31509552       3.89019239      -0.00249821       0.00036183      -0.00010997
C       -1.23704089       6.42775189       3.83500130      -0.00328183       0.00089245       0.00177552
C       -2.50295982       8.54383179       3.76256303      -0.00286907       0.00522998       0.00416449
C        4.91446684      -0.00858552       3.70719385      -0.00922586      -0.00311971      -0.00990713
C        3.69994613       2.09064722       3.65162468       0.00071695      -0.00013950      -0.00782871
C        2.54484817       4.24862508       3.79407798       0.00451908       0.00721135       0.00476852
N        1.17167540       6.51839562       3.91458072       0.01135171      -0.00019359       0.00051823
C       -0.05529553       8.56482673       3.71871573      -0.00157986       0.00265637      -0.00295888
C        7.38839005       0.00364614       3.71575063      -0.00156243      -0.00230991       0.00068258
C        6.18067684       2.10990995       3.68074833      -0.00238956      -0.00016143      -0.00436089
C        4.96641721       4.19119466       3.56132746       0.00758788       0.00372843      -0.00793506
P        3.54562026       6.28154633       2.62766400       0.00360213       0.00709223       0.00630669
C        2.40067687       8.57133989       3.65888410       0.00318907       0.00229210      -0.00146916
C        9.86394788       0.00682822       3.76278681       0.00113244       0.01113575       0.00127124
C        8.65146768       2.13781652       3.76637551      -0.00617195      -0.00474276      -0.00227102
C        7.42341656       4.25912745       3.72803167       0.01302493      -0.00740165      -0.00167576
C        6.15428426       6.39232647       3.69714081      -0.00127983      -0.00444492       0.00000972
C        4.89856976       8.52329025       3.72971732      -0.00071059       0.00003474      -0.00402419
C        0.00777352       1.43310989       3.80335926      -0.00167791      -0.00631671       0.00496105
C       -1.19246165       3.58922793       3.85364076      -0.00389295      -0.00332809      -0.00163100
C       -2.46273773       5.70384165       3.82162134      -0.00898868       0.00027818       0.00009837
C       -3.73434588       7.82622247       3.77319964      -0.00051244       0.00622081       0.00844823
C       -4.96185626       9.95727440       3.76762423       0.00715285      -0.00660658       0.00398523
C        2.45550838       1.40789355       3.72922510      -0.00046586      -0.00141565      -0.00433140
C        1.28298829       3.60085353       3.83243111      -0.00108256       0.00498030      -0.00407614
C        0.02688767       5.75635771       3.90065278       0.00493980       0.00146074      -0.00064962
C       -1.27001327       7.84184675       3.77502088      -0.00438665       0.00318787      -0.00879340
C       -2.49432293       9.96467802       3.73447097      -0.00498101      -0.00031779      -0.00891490
C        4.93522874       1.40195622       3.67228875      -0.00288929      -0.00392130      -0.01074392
C        3.73002654       3.50393046       3.60141260       0.00525509       0.00336599       0.00101661
C        1.16422591       7.86574693       3.71516608       0.00250114       0.00347092      -0.00046957
C       -0.02273360       9.97883461       3.70715742      -0.00655184       0.00224214      -0.00207111
C        7.41162123       1.41860485       3.72473690      -0.00537980      -0.00326429       0.00095411
C        6.19883991       3.52572557       3.65109130       0.00829746       0.00125742      -0.00170225
C        4.91562415       5.62555800       3.61019088       0.00149132       0.00140948       0.00224707
C        3.61527341       7.80443875       3.67397964       0.00111089      -0.00026656       0.00651907
C        2.44789227       9.98057247       3.71581478       0.00385973       0.00308108       0.00400000
C        9.88414061       1.43208016       3.78903995      -0.00517705       0.00811776       0.00203672
C        8.65919352       3.56205776       3.77880117       0.00699032      -0.01137192      -0.00029536
C        7.39068950       5.68928051       3.74524295      -0.00044006      -0.00679720       0.00721096
C        6.12537694       7.80898697       3.73230875      -0.00123650      -0.00355303       0.00455937
C        4.91629347       9.95307012       3.77121759      -0.00052103       0.00354416       0.00532311
Ru       3.04166038       5.98295690       4.76371685      -0.01003603      -0.00300941      -0.00162794
O        2.91072738       5.87357016       6.45865102       0.01153854       0.00285744       0.00167268
