50
Lattice="12.336457 0.0 0.0 -6.168228499999997 10.683685154694365 0.0 0.0 0.0 15.0" Properties=species:S:1:pos:R:3:forces:R:3 energy=-446.6430015262688 free_energy=-446.6430015262688 stress="-0.0005907792683373385 0.0036032867345185903 3.602202735477045e-06 0.0036032867345185903 -0.0042745998510581645 8.521120989259022e-06 3.602202735477045e-06 8.521120989259022e-06 -8.459795613186583e-06" pbc="T T T"
C       -0.01362516      -0.00418733       3.77952158      -0.00164462      -0.00209201       0.00042361
C       -1.22120608       2.15366447       3.84627981       0.00482020       0.00164741       0.00050107
C       -2.44827984       4.27232352       3.87427459      -0.00057429       0.00113770      -0.00372485
C       -3.72530619       6.39515866       3.83341124       0.00903416       0.00009010       0.00154265
C       -4.96449444       8.52831973       3.76355028       0.00277702       0.00658042      -0.00689919
C        2.44345368      -0.02673143       3.84146306      -0.00185688      -0.00213093      -0.00025347
C        1.24103181       2.13507453       3.85914836       0.00068998       0.00534792      -0.00370571
C        0.05604776       4.32190936       3.86876884      -0.00446568      -0.00129565       0.00476821
C       -1.25037159       6.41063956       3.84068761       0.00808138       0.00332290       0.00520591
C       -2.49541140       8.52863777       3.83976910      -0.00776378      -0.00254861      -0.00029346
C        4.91693248      -0.02105376       3.84714193      -0.00031805      -0.00042356      -0.00259905
C        3.68852516       2.07504648       3.83490407      -0.00203375      -0.00516456      -0.00086752
N        2.53187939       4.17357129       3.90833818       0.00037113      -0.00559317       0.00565344
O        1.13100751       6.49294339       3.54682755      -0.01578124      -0.00055352      -0.00162701
C       -0.04811936       8.55070226       3.75517404       0.00150511      -0.00326579      -0.00215352
C        7.38583005      -0.00790328       3.78661618       0.00189042       0.00216922       0.00069552
C        6.16573932       2.10898027       3.84977345      -0.00044678      -0.00056118       0.00710415
C        4.92654572       4.19176879       3.71695195      -0.00509712      -0.00474377       0.00541168
P        3.73956215       6.35570260       2.24220574       0.00357603       0.00549530      -0.00977278
C        2.39010359       8.56010519       3.51294042       0.00302079      -0.00054515      -0.00308916
C        9.85585346       0.00707531       3.73843989      -0.00065389       0.00823705      -0.00536085
C        8.63831387       2.13206070       3.85181790      -0.00118605      -0.00120938      -0.00202020
C        7.40492447       4.25345465       3.83903325       0.00005409      -0.00439439      -0.00413826
C        6.14883219       6.39094196       3.66501469       0.00126542       0.00325915       0.00082654
C        4.91850057       8.55012501       3.55363124       0.00340831       0.00457811       0.00617848
C        0.00239037       1.42905247       3.83122286       0.00474364      -0.00146496       0.00419049
C       -1.19506115       3.58548494       3.87237539      -0.00346759       0.00049839      -0.00093713
C       -2.48068874       5.68895472       3.86432313       0.01171577       0.00287243      -0.00204282
C       -3.73553338       7.81714488       3.82007378      -0.00345470      -0.00035436      -0.00524923
C       -4.96116519       9.95065943       3.79674401      -0.00104279       0.00199171      -0.00038839
C        2.45238085       1.39259571       3.85116112      -0.00215102      -0.00232470       0.00076822
C        1.29807296       3.56908492       3.88885923      -0.00533921       0.00549409       0.00272458
C       -0.03260768       5.72245911       3.81164983       0.00076236      -0.00675259      -0.00379954
C       -1.27212879       7.83041236       3.81884847      -0.00336989       0.00158159      -0.00040808
C       -2.49035630       9.95250966       3.84699378      -0.00286816      -0.00284994      -0.00505175
C        4.92833504       1.39458800       3.84787281      -0.00073222      -0.00000145       0.00687741
C        3.69274695       3.48420265       3.79740030      -0.00062518      -0.00569780       0.00930480
C        1.16113582       7.89067780       3.59352809       0.00158706      -0.00723505      -0.00719623
C       -0.01930073       9.96997130       3.80229365       0.00167662      -0.00103889       0.00422751
C        7.39948604       1.41392732       3.84226296      -0.00072224       0.00010162       0.00492422
C        6.16951360       3.52701939       3.81681306      -0.00189789      -0.00311151       0.00086144
C        4.90027330       5.62355870       3.54703482      -0.00884875      -0.00241578       0.00075224
C        3.64674373       7.86421788       3.33883559       0.00619295       0.00526932       0.00336906
C        2.44179892       9.97868959       3.68474503       0.00195897       0.00409892      -0.00130627
C        9.87426180       1.43014186       3.82179799       0.00235681       0.00631848      -0.00243767
C        8.64326944       3.55474827       3.86870421      -0.00101567      -0.00310642      -0.00500439
C        7.37789488       5.68118969       3.79640718       0.00474977       0.00049099       0.00325162
C        6.13138175       7.81265369       3.64524670       0.00764836       0.00690403      -0.00178731
C        4.92054562       9.96926302       3.69711504      -0.00264201       0.00335609       0.00036485
Ru       3.04862097       6.11316889       4.21266532      -0.00388694      -0.00996783       0.00218616
