52
Lattice="12.336457 0.0 0.0 -6.168228499999997 10.683685154694365 0.0 0.0 0.0 15.0" Properties=species:S:1:pos:R:3:initial_magmoms:R:1:forces:R:3 energy=-457.4199639319818 free_energy=-457.4199639319818 stress="-0.0021421811810061133 0.005136352983081001 5.86119892357959e-06 0.005136352983081001 -0.002885866515160671 -2.518968635832866e-06 5.86119892357959e-06 -2.518968635832866e-06 -1.052198935619834e-05" pbc="T T T"
C        0.00647692      -0.03074934       3.80131638       0.00000000      -0.00105289      -0.00283468       0.00130790
C       -1.19266314       2.12697378       3.84133141       0.00000000       0.00118491      -0.00231810      -0.00519178
C       -2.41721814       4.24569318       3.82148707       0.00000000       0.00034370       0.00214427       0.00018292
C       -3.69265859       6.37258771       3.76638116       0.00000000      -0.00176537      -0.00278450      -0.00080190
C       -4.94080812       8.50801310       3.75209702       0.00000000       0.00222776       0.00205194       0.00839463
C        2.46332653      -0.04052361       3.74524823       0.00000000      -0.00150382      -0.00037930      -0.00037350
C        1.26855431       2.12900345       3.81351419       0.00000000      -0.00431873      -0.00130274      -0.00416738
C        0.08311613       4.30486163       3.86905556       0.00000000      -0.00048259      -0.00038721      -0.00098310
C       -1.23287835       6.39347356       3.77456136       0.00000000       0.00188477       0.00109937      -0.00081873
C       -2.47673673       8.51132820       3.72330657       0.00000000      -0.00033155       0.00175775       0.00407628
C        4.93439442      -0.03866323       3.68224031       0.00000000       0.00383040       0.00151869      -0.00494894
C        3.71275124       2.05998976       3.65692191       0.00000000      -0.00054711      -0.00455104       0.00199359
N        2.58513596       4.17319042       3.87510573       0.00000000      -0.00403825       0.00757860       0.00436627
O        1.12514346       6.48475979       3.76145158       0.00000000       0.00722599      -0.00272548      -0.00212535
C       -0.03773950       8.53297243       3.60539289       0.00000000      -0.00326064      -0.00011566      -0.00226991
C        7.40777430      -0.03613458       3.69108255       0.00000000      -0.00416936      -0.00010060      -0.00487281
C        6.19697732       2.07777643       3.68173188       0.00000000       0.00268192       0.00135087      -0.00010082
C        4.97347082       4.15457645       3.54812078       0.00000000      -0.00095009      -0.00057426       0.00642665
P        3.64541323       6.33387623       2.56912449       0.00000000       0.00298324      -0.00260967      -0.00045239
C        2.40770381       8.51813224       3.61570688       0.00000000      -0.00053800       0.00279225      -0.00131066
C        9.88022762      -0.02993374       3.77402244       0.00000000       0.00207676       0.00027925      -0.00331858
C        8.66993022       2.09960647       3.77602261       0.00000000      -0.00283228      -0.00153181      -0.00033760
C        7.44270768       4.22212798       3.72771329       0.00000000       0.00053860      -0.00200878       0.00090018
C        6.19859033       6.36973776       3.65347479       0.00000000       0.00300604       0.00145260      -0.00092431
C        4.92850830       8.49656899       3.72974398       0.00000000       0.00284979       0.00002369      -0.00477254
C        0.02921765       1.40741337       3.82727994       0.00000000      -0.00115449      -0.00471846      -0.00247943
C       -1.16133057       3.56315237       3.85241837       0.00000000      -0.00009491      -0.00123954       0.00216454
C       -2.45387105       5.66438033       3.79736906       0.00000000       0.00048732       0.00152345       0.00643520
C       -3.71123114       7.79657499       3.75300232       0.00000000       0.00049890      -0.00188931      -0.00027632
C       -4.93961212       9.93127807       3.77357423       0.00000000      -0.00163637       0.00120668       0.00057681
C        2.47653581       1.38063284       3.74043966       0.00000000      -0.00470602      -0.00212490       0.00097783
C        1.33225769       3.56447723       3.86821534       0.00000000      -0.00180056       0.00078694       0.00129306
C       -0.01605619       5.71517233       3.80920422       0.00000000       0.00105601      -0.00069259       0.00073715
C       -1.25522148       7.81243267       3.69721055       0.00000000      -0.00101328       0.00180545      -0.00008367
C       -2.47281239       9.93614052       3.71021595       0.00000000       0.00225867       0.00320865       0.00352673
C        4.95190475       1.37467737       3.66679303       0.00000000       0.00526075       0.00040542      -0.00427052
C        3.72674461       3.47084434       3.62650748       0.00000000      -0.00542354      -0.00040003       0.00412626
C        1.16982317       7.85403066       3.53846102       0.00000000       0.00070752      -0.00118060      -0.00184089
C       -0.00279141       9.95032351       3.65605152       0.00000000      -0.00107902      -0.00151932      -0.00395312
C        7.42982462       1.38264775       3.72321425       0.00000000      -0.00319850      -0.00205134       0.00297532
C        6.20931398       3.49211537       3.65414497       0.00000000       0.00179447      -0.00027149       0.00119799
C        4.96631566       5.59607183       3.53728160       0.00000000       0.00133934       0.00423172      -0.00049141
C        3.65648567       7.76317595       3.68743099       0.00000000       0.00258346       0.00375911       0.00485220
C        2.46340489       9.93443466       3.69595301       0.00000000      -0.00146439       0.00457855      -0.00150557
C        9.90278470       1.39663948       3.80624174       0.00000000      -0.00041160      -0.00005906      -0.00126487
C        8.67794351       3.52376324       3.78414534       0.00000000      -0.00018128      -0.00026397      -0.00277686
C        7.41828724       5.65441339       3.72846086       0.00000000      -0.00019235      -0.00306158       0.00147540
C        6.15793295       7.78400919       3.71086454       0.00000000       0.00399534       0.00149722       0.00045707
C        4.93861211       9.92679574       3.78475404       0.00000000       0.00210808      -0.00241557      -0.00066957
Ru       3.29526394       5.92790959       4.71950540       0.00000000      -0.00323913      -0.00034592      -0.01590119
O        2.13735375       6.12806604       6.22382800       1.00000000      -0.00223905       0.00015038       0.00439505
O        2.51214988       7.43182222       6.14408320       1.00000000       0.00070143       0.00125467       0.01044467
