49
Lattice="12.336457 0.0 0.0 -6.168228499999997 10.683685154694365 0.0 0.0 0.0 15.0" Properties=species:S:1:pos:R:3:forces:R:3 energy=-438.61237956718367 free_energy=-438.61237956718367 stress="-0.004390882085189637 -0.0022810541874340915 1.8686561213490457e-06 -0.0022810541874340915 0.00414761609489555 2.020749374434938e-06 1.8686561213490457e-06 2.020749374434938e-06 1.4143601482677764e-06" pbc="T T T"
C       -0.00768263       0.01605905       3.85281287      -0.00301419       0.00268110      -0.00131490
C       -1.26632801       2.11987009       3.90179848       0.00016049      -0.00946499      -0.00915035
C       -2.48850760       4.26464804       3.96702702       0.00997944       0.00291281      -0.00016647
C       -3.69170059       6.42058487       3.94530193      -0.00591548       0.00380106       0.00069697
C       -4.92218350       8.57769307       3.89164993      -0.00045228      -0.00126640      -0.00230546
C        2.46059750       0.03752651       3.81982142       0.00637162      -0.00139481       0.00448940
C        1.19224109       2.19347968       3.75987385      -0.00741418       0.00204013       0.00618699
C       -0.04654589       4.25235010       3.95491054      -0.00033612       0.00124670       0.00559507
C       -1.25220157       6.41427280       4.01223663      -0.00289744       0.00700733      -0.00560116
C       -2.46796761       8.56271151       3.93186754       0.00448734      -0.00370655       0.00067174
C        4.92985405      -0.00394071       3.74212602       0.00794636       0.00477879      -0.00648528
C        3.67647922       2.09415188       3.35748921      -0.00044296      -0.00752233      -0.00104071
N        1.14453862       6.36790666       3.90957510      -0.00527000      -0.00684995      -0.00238471
C        0.00013286       8.51233385       3.86781056      -0.00493651      -0.00327921       0.00225455
C        7.39604712      -0.03798752       3.75449571      -0.00406881      -0.00595773       0.00698388
C        6.15962621       2.13140105       3.57624416      -0.00133681       0.00367127      -0.00824859
C        5.03769579       4.35383417       3.25815634       0.00231208      -0.00314695       0.00191161
N        3.84147907       6.43755808       3.42231127       0.01732229       0.00724403      -0.00554203
C        2.46326746       8.45773438       3.75552323       0.00074606       0.00792462       0.00365161
C        9.84752368      -0.03645896       3.81587968       0.00256569       0.00221138      -0.00189060
C        8.61347644       2.11898751       3.81848022      -0.00344692      -0.00657327       0.00485542
C        7.40623826       4.27761638       3.77018880      -0.00685814       0.00149371      -0.00598552
C        6.22833991       6.45606666       3.69700731      -0.00745169      -0.00637335      -0.00271930
C        4.94703546       8.54485749       3.76793418       0.00789351       0.00769381      -0.00219612
C       -0.02148001       1.44314975       3.85006561      -0.00125355      -0.00256562      -0.00412733
C       -1.27003322       3.53859990       3.96399449       0.00784889      -0.00923858       0.00021196
C       -2.47502422       5.69324533       3.99732675      -0.00042126       0.01022982       0.00118084
C       -3.69506765       7.85138037       3.93945426       0.00157321      -0.00062323       0.00586884
C       -4.93345272      10.00445515       3.87420575      -0.00068075       0.00216367       0.00212010
C        2.44724309       1.47587808       3.65908903      -0.00616820       0.00000654       0.00011580
N        1.12878810       3.56826510       3.82312100      -0.01038105       0.00134687       0.00514954
C       -0.03641025       5.69274900       3.98737263      -0.00477631       0.00257206       0.00203704
C       -1.23975595       7.83554894       3.95291464      -0.00362565      -0.00056152      -0.00548984
C       -2.47605699       9.99276752       3.83784192       0.01356168      -0.00123629       0.00645980
C        4.92442595       1.41964265       3.55096948       0.00317062       0.00847217      -0.00248279
S        3.71494160       3.57794075       2.38945207      -0.00385225       0.00554226       0.00742532
C        1.21957059       7.74932608       3.83603443      -0.00217386      -0.00086689       0.01064025
C       -0.00210427       9.94260113       3.78630201      -0.00213392      -0.00503115       0.00383879
C        7.38096571       1.40531537       3.71956883      -0.00713244      -0.00682691       0.00505632
C        6.18308335       3.56780856       3.54835839      -0.00420418      -0.00180131       0.00391674
C        5.03740548       5.76535074       3.41710959       0.00408535      -0.00484282      -0.01656475
C        3.73036521       7.78788226       3.67029219       0.00893603       0.00936591      -0.00366093
C        2.45523588       9.90538401       3.77764124       0.00192227       0.00759273       0.00421374
C        9.84162919       1.39641954       3.85877633       0.00078141      -0.00539313      -0.00468889
C        8.61979655       3.54959675       3.86969438       0.00102051       0.00179099       0.00288123
C        7.42655085       5.70776700       3.82131509      -0.01000523       0.00113128      -0.00743511
C        6.19289730       7.86713668       3.80020646      -0.00023837      -0.00481626      -0.00197202
C        4.92728501       9.96447510       3.82636510       0.00027077       0.00724100      -0.00577001
Ru       2.59513941       4.94260673       3.64672590       0.00793295      -0.01282280       0.00880931
