50
Lattice="12.336457 0.0 0.0 -6.168228499999997 10.683685154694365 0.0 0.0 0.0 15.0" Properties=species:S:1:pos:R:3:forces:R:3 energy=-444.87285771017326 free_energy=-444.87285771017326 stress="-0.0059204119723133015 -0.00296655063779601 -1.2929316327955926e-05 -0.00296655063779601 0.004482010235321683 -4.583565984802098e-06 -1.2929316327955926e-05 -4.583565984802098e-06 -6.650970633723015e-06" pbc="T T T"
C       -0.01521827       0.00483127       3.87416061      -0.00543862      -0.00459313       0.00210529
C       -1.27740531       2.10961210       3.88989914       0.01057219      -0.00003247       0.00024058
C       -2.49219218       4.25719369       3.83041791       0.00157320      -0.00266180      -0.00280107
C       -3.68821485       6.41720142       3.77766217      -0.00200893      -0.00331269       0.00026735
C       -4.92401489       8.57122581       3.81894828       0.00285274      -0.00075931      -0.00125722
C        2.45541860       0.02877478       3.87026429      -0.00339669       0.00445344      -0.00151829
C        1.18166513       2.18455722       3.92003560       0.00021963      -0.00115188      -0.00137712
C       -0.06353496       4.24160013       3.99126771      -0.00465973       0.00334111      -0.00539948
C       -1.25791252       6.40668249       3.90255784       0.00087234      -0.00002455       0.00127584
C       -2.46983690       8.55645154       3.86083881       0.00336647      -0.00251080      -0.00232767
C        4.92390487      -0.00658868       3.72248710      -0.00430769       0.00782839       0.00523822
C        3.65068740       2.09994221       3.46566196      -0.00475606       0.01067475       0.00179077
N        1.13689163       6.35918349       3.96272425       0.00625694      -0.00376713       0.00358063
C       -0.00189148       8.50259772       3.83662655       0.00021437       0.00447832       0.00106595
C        7.38930627      -0.04695767       3.71851092       0.00892686      -0.00529037       0.01045852
C        6.15203040       2.12468775       3.50464230      -0.00322483       0.00405222      -0.00429713
C        5.05237285       4.36079128       3.18943543      -0.00446986      -0.00318523      -0.00057791
N        3.83301919       6.40001221       3.52656489      -0.00606016       0.00852903      -0.00916462
C        2.46151647       8.44565948       3.79418282      -0.00464321      -0.00377602      -0.00110740
C        9.84059485      -0.04854571       3.80151632       0.00376033       0.00473609      -0.00721153
C        8.60803550       2.10836975       3.71927554      -0.00125585      -0.00109546       0.00138351
C        7.41786963       4.27445751       3.58377382       0.00545999       0.00237993       0.00487792
C        6.23935821       6.45849933       3.54916005      -0.00618583      -0.00594848      -0.00496234
C        4.94045115       8.53199078       3.73687531       0.00059102      -0.00288091       0.01141661
C       -0.02988842       1.43409236       3.91299963       0.00563683      -0.00608111      -0.00326241
C       -1.28135651       3.52877648       3.91202002       0.00065439      -0.00133765      -0.00497948
C       -2.47672704       5.68666976       3.84366881      -0.00114193      -0.00248997       0.00316711
C       -3.69558433       7.84631928       3.82962596       0.00344113      -0.00301733      -0.00271604
C       -4.93958857       9.99462863       3.88098887      -0.00394867       0.00172970       0.00277721
C        2.43774035       1.46586100       3.79908263      -0.00114252       0.00521656      -0.00164228
N        1.11064815       3.55421565       4.05126833      -0.01009165      -0.00135133       0.00694952
C       -0.04941655       5.68694393       3.96453204       0.00329326       0.00293545      -0.00080298
C       -1.24325668       7.82784147       3.87252498       0.00356301       0.00005294      -0.00228641
C       -2.47750805       9.98779771       3.83027152      -0.00339266       0.00051775      -0.00760867
C        4.90890511       1.42457818       3.54935231      -0.00641086       0.01069929       0.00623746
S        3.51997787       3.69857729       2.72523027       0.00128474      -0.01357123      -0.00756982
C        1.21425665       7.73823195       3.86481583      -0.00358526      -0.00213129       0.00452958
C       -0.00858367       9.93604506       3.75274717       0.00191348       0.00652118       0.01136454
C        7.37322183       1.39603376       3.64284573      -0.00143440      -0.00473837      -0.00413718
C        6.18741285       3.56337999       3.41089200       0.00463379       0.00550219      -0.00300673
C        5.04035610       5.76307257       3.35619704      -0.01050550      -0.00025904      -0.00526016
C        3.72737290       7.77122705       3.70466024      -0.00309691       0.00450176       0.00466009
C        2.44880396       9.89184857       3.77246260       0.00897326      -0.00433280      -0.00016206
C        9.83285726       1.38549102       3.81176751       0.00597948       0.00642032       0.00010027
C        8.62063691       3.54092174       3.71549596       0.00298308      -0.00133911      -0.00029950
C        7.43657356       5.70455643       3.63097348      -0.00320945      -0.00112298       0.00325891
C        6.19423704       7.86295655       3.70884895       0.00189178      -0.00489891      -0.00385402
C        4.92088803       9.95304538       3.81700679      -0.00383024      -0.00286449       0.00100342
Ru       2.65762875       4.97290028       4.36951723       0.00844792      -0.00733867       0.00146572
O        2.95002448       5.16291392       6.08967068       0.00483531       0.00329408       0.00037450
