50
Lattice="12.336457 0.0 0.0 -6.168228499999997 10.683685154694365 0.0 0.0 0.0 15.0" Properties=species:S:1:pos:R:3:forces:R:3 energy=-436.55507815562765 free_energy=-436.55507815562765 stress="0.005580081057639741 -0.00300993169877277 1.3888636355079249e-05 -0.00300993169877277 0.0022780050576815735 6.657666662108213e-06 1.3888636355079249e-05 6.657666662108213e-06 -2.3023643305773566e-05" pbc="T T T"
C       -0.05147696      -0.03160281       4.02109131       0.00656960      -0.00120299      -0.01244178
C       -1.30883564       2.09599571       3.98307896      -0.00325552      -0.00289910       0.00204669
C       -2.54816448       4.23861448       3.85453591       0.00227685       0.00596274      -0.00084579
C       -3.76187134       6.37593240       3.84514802      -0.00245003      -0.00056947      -0.00576137
C       -4.97871178       8.51598367       3.95579818      -0.00104027       0.00254099       0.00121067
C        2.41213306      -0.00194828       3.99457081      -0.00023213      -0.00642723       0.00524900
C        1.13789844       2.10627154       4.03252147       0.00466531      -0.00752588       0.00234039
C       -0.08838868       4.15795295       3.78425345       0.00168917       0.00717914      -0.00286909
C       -1.26504527       6.33685598       3.66306999       0.00000824       0.00229340       0.00352133
C       -2.50714158       8.50097721       3.80643971       0.00265172      -0.00188955       0.00226175
C        4.86734847      -0.03608066       3.81278325      -0.00448399       0.00216111       0.00285276
C        3.66275170       2.09029628       4.11979077       0.00059219      -0.00185482       0.00453021
P        1.44219146       6.18381708       2.86633414       0.00160755      -0.00401644       0.01062230
C       -0.05153785       8.51070667       3.54330875       0.00840309      -0.00650835      -0.00342360
C        7.32905498      -0.02061217       3.71088443      -0.00022706       0.00511603       0.00438524
C        6.07940692       2.11930687       3.79038100      -0.00374040      -0.00326231       0.00341059
C        4.80980973       4.18748687       3.94938580       0.00417466       0.00966556      -0.00523618
S        3.97992365       7.34768047       1.42051718       0.00704181       0.01009232      -0.01428049
C        2.42237512       8.57493228       3.40947138      -0.00045014      -0.00213080       0.00417113
C        9.80888555      -0.01785638       3.82399949       0.00401994      -0.00764789      -0.00060715
C        8.55278231       2.11362094       3.83483645      -0.00195716       0.00513859       0.00397453
C        7.30076777       4.25247356       3.81692741      -0.00039467      -0.00645652       0.00418138
C        6.09332376       6.37691930       3.97860723      -0.00122072       0.00334030      -0.00578933
C        4.90577164       8.53183941       3.73309201      -0.00833701       0.00484943      -0.00696164
C       -0.05995164       1.39790763       4.04809399       0.00210459      -0.00410750      -0.00358578
C       -1.31303265       3.50517162       3.91806605       0.00204420       0.00294513      -0.00898837
C       -2.52440506       5.65614749       3.79234416      -0.00114758       0.00355038       0.00211575
C       -3.74999250       7.79795453       3.88065315       0.00172777       0.00073826       0.00547029
C       -4.98362264       9.94857023       4.00107229       0.00186483      -0.00190562       0.00504412
C        2.39919944       1.44166094       4.07482386       0.00700854      -0.00917273      -0.00433336
O        1.10399373       3.46864646       3.84831680      -0.00207824      -0.00539210       0.01052283
C       -0.05800325       5.54827402       3.55774061       0.00177881       0.01258608      -0.00771396
C       -1.27052877       7.77729959       3.65163502       0.00275202      -0.00130927      -0.00743665
C       -2.52809682       9.94041291       3.87613340      -0.00152516      -0.00325028       0.00179497
C        4.85464614       1.39830944       3.89130267      -0.00512604      -0.00055042       0.00335002
O        3.72828455       3.41752527       4.44252876      -0.00759677      -0.00708180       0.00007003
C        1.21644549       7.87116819       3.30559662       0.00583490      -0.00953675       0.00176786
C       -0.06404199       9.93687286       3.67942173      -0.00071655       0.00143006       0.00033433
C        7.31351030       1.40717270       3.77473349      -0.00160304       0.00663846       0.00792205
C        6.06494063       3.54322008       3.76462691      -0.00568657      -0.00540520       0.00057693
C        4.92502887       5.61279063       4.60430003       0.00156806       0.00096577      -0.01283282
C        3.71641023       7.90011869       3.13397534      -0.00706183       0.00423990      -0.00074637
C        2.41090920       9.96621921       3.66442194      -0.00078721      -0.00400703       0.00366704
C        9.79896717       1.39933174       3.90097319      -0.00503217      -0.00607964       0.00156133
C        8.54450466       3.53613688       3.83796728       0.00221042       0.00471222       0.00727347
C        7.31831753       5.67072755       3.88610558      -0.00146864       0.00081134      -0.00259491
C        6.10544527       7.80286708       3.91894869      -0.00198411       0.01304385      -0.00138306
C        4.88112071       9.94211000       3.88227900       0.00809908      -0.00336028       0.00072182
Ru       3.68979573       5.80322127       2.98147563      -0.00409424      -0.00292746      -0.01117831
O        4.46813337       5.81798933       5.75581811      -0.00699609       0.00647638       0.01205924
