51
Lattice="12.336457 0.0 0.0 -6.168228499999997 10.683685154694365 0.0 0.0 0.0 15.0" Properties=species:S:1:pos:R:3:initial_magmoms:R:1:forces:R:3 energy=-439.534947714025 free_energy=-439.534947714025 stress="0.0005909630950752436 0.008147026675076972 1.3330067361860045e-05 0.008147026675076972 0.0010415344493263604 1.408462697274556e-05 1.3330067361860045e-05 1.408462697274556e-05 -1.1787215128692998e-05" pbc="T T T"
C       -0.00060013       0.03302230       3.64178355       0.00000000       0.00588419      -0.00561113      -0.00376299
C       -1.16777219       2.19125768       3.80852537       0.00000000      -0.00194536       0.00473067      -0.01656094
C       -2.45133501       4.31958479       4.00871592       0.00000000      -0.00189830      -0.00208926      -0.00040538
C       -3.74546352       6.43584475       3.92926947       0.00000000      -0.00613459       0.00506497      -0.00557849
C       -4.97813594       8.55474165       3.71633163       0.00000000      -0.00994895      -0.00244795       0.00316518
C        2.47022501       0.02767960       3.67621679       0.00000000       0.00329524      -0.00071636      -0.00609914
C        1.28582210       2.14563772       3.15336344       0.00000000       0.00152202       0.01095648       0.00186243
C       -0.02339701       4.43526815       4.03273670       0.00000000       0.00411349      -0.00796872      -0.00422599
C       -1.30746265       6.49553353       4.18967877       0.00000000       0.00325167      -0.00569305       0.00134392
C       -2.51269211       8.58841074       3.99512816       0.00000000      -0.00147834       0.01139462      -0.00861867
C        4.93606929       0.01412520       3.93248852       0.00000000       0.00852405      -0.00743472      -0.00279681
C        3.79792019       2.06999840       3.48396939       0.00000000       0.00454505      -0.00528733      -0.00607987
O        1.10899477       6.53320528       4.31031380       0.00000000      -0.00349517       0.00298488       0.00684273
C       -0.03905524       8.58803053       4.13642755       0.00000000      -0.00288699      -0.00502320       0.01319827
C        7.42246992       0.00537448       4.01714949       0.00000000      -0.00384656       0.00799087       0.00683007
C        6.22652257       2.12180802       3.84636544       0.00000000      -0.00444405      -0.00114181      -0.00674198
C        5.04042755       4.18472571       3.44686506       0.00000000       0.00736948       0.00952186       0.00359604
P        3.40869504       6.22198370       2.83666636       0.00000000      -0.00554838      -0.01417998       0.00191588
C        2.42504479       8.53965252       3.89890284       0.00000000       0.00789485      -0.00597658       0.00379120
C        9.88632270       0.01726908       3.85571276       0.00000000      -0.00315830       0.00876569       0.01317885
C        8.68882352       2.15553726       3.95051023       0.00000000      -0.00152812       0.00222307      -0.00489957
C        7.43079968       4.27985902       3.84074643       0.00000000       0.00230532      -0.01154416      -0.00490930
C        6.13351545       6.37974247       3.58438311       0.00000000      -0.00630924      -0.00168874       0.00670577
C        4.88340286       8.53443000       3.60557812       0.00000000       0.00237505       0.00782018       0.00424150
C        0.03387321       1.47464304       3.58504829       0.00000000      -0.00198974      -0.00376481      -0.00737496
C       -1.18368576       3.63477941       3.95628204       0.00000000       0.00073521       0.00290564      -0.00211610
C       -2.50944432       5.73989161       4.06375056       0.00000000      -0.00249274       0.00026606      -0.00373622
C       -3.74879428       7.86114231       3.88509714       0.00000000      -0.00561794       0.00960437      -0.00296298
C       -4.94734375       9.98704870       3.66223073       0.00000000       0.00454418      -0.00806575      -0.00324195
C        2.53676702       1.43715012       3.45267942       0.00000000       0.00241074      -0.00013726      -0.00121630
S        1.21159067       3.17039636       1.67052368       0.00000000       0.00882026       0.00880519       0.00159400
C       -0.08620589       5.83533216       4.19705915       0.00000000       0.00484503      -0.00672370       0.00150770
C       -1.29325646       7.90190268       4.15056635       0.00000000      -0.00601826      -0.00171954      -0.00179388
C       -2.48230236      10.00862382       3.88119458       0.00000000       0.00581023       0.00892241      -0.00296706
C        4.98625366       1.42009076       3.78316110       0.00000000       0.00413124      -0.00859456      -0.00823021
O        3.89877077       3.41970699       3.16339563       0.00000000      -0.00477347       0.01259869       0.00721451
C        1.16233343       7.88869630       4.09180198       0.00000000       0.00118138       0.00105019       0.00776513
C        0.00042924      10.00014147       4.05109865       0.00000000       0.00341323      -0.00688496      -0.00576846
C        7.44666971       1.43243067       3.96104894       0.00000000      -0.00254586       0.00865857      -0.00383168
C        6.22725496       3.52704435       3.73295543       0.00000000      -0.00017109      -0.00396812       0.00383423
C        4.95265581       5.57766748       3.37234320       0.00000000       0.00034176       0.00521484      -0.00654738
C        3.62161597       7.83962060       3.56360020       0.00000000       0.01169235      -0.00504433      -0.00181084
C        2.47380865       9.97199582       3.96001573       0.00000000      -0.00418743       0.00328635       0.00824089
C        9.92259541       1.45448369       3.89608476       0.00000000      -0.00118718       0.00871807      -0.00011318
C        8.67212784       3.58338933       3.94473200       0.00000000       0.00203794      -0.00634585       0.00128089
C        7.37794129       5.70034143       3.78745670       0.00000000      -0.00471522      -0.00770598      -0.00200531
C        6.12137749       7.81777212       3.60423428       0.00000000      -0.00883622      -0.00135370       0.01271026
C        4.92767687       9.98171967       3.71197328       0.00000000      -0.00058709       0.00850925       0.00360091
Ru       1.80988045       4.20025586       3.51426192       0.00000000      -0.00350539      -0.00694222      -0.00327869
O        1.83212224       4.79757600       6.20728058       1.00000000      -0.00632971       0.00264725       0.00586635
O        2.64946099       4.30479825       5.33790449       1.00000000       0.00453576      -0.00858641       0.00738763
