51
Lattice="12.336457 0.0 0.0 -6.168228499999997 10.683685154694365 0.0 0.0 0.0 15.0" Properties=species:S:1:pos:R:3:initial_magmoms:R:1:forces:R:3 energy=-440.41596048493676 free_energy=-440.41596048493676 stress="0.00030276351332478296 0.0014639343668438486 3.20867316806054e-05 0.0014639343668438486 0.001247131915648562 -3.557886790881139e-07 3.20867316806054e-05 -3.557886790881139e-07 -1.654297724620524e-05" pbc="T T T"
C        0.02790369       0.00164399       3.87396268       0.00000000       0.00220300       0.00229361      -0.00277833
C       -1.21005267       2.12922475       3.96833333       0.00000000       0.00004960       0.00219141      -0.00242220
C       -2.44759939       4.26937691       3.93382941       0.00000000      -0.00687585      -0.00221502      -0.00387629
C       -3.69554421       6.39783299       3.84616001       0.00000000       0.00031209       0.00300614       0.00477827
C       -4.93034868       8.53466342       3.81060520       0.00000000       0.00143102       0.00740623      -0.00105044
C        2.47942626       0.04007959       3.85284208       0.00000000       0.00509915      -0.00012074      -0.00513780
C        1.22703483       2.15967557       3.86185548       0.00000000      -0.00901155      -0.00080409       0.00664395
C       -0.01256816       4.20731023       3.67115236       0.00000000       0.00196133      -0.00302151       0.00558321
C       -1.21823361       6.37794727       3.59508256       0.00000000      -0.00511680       0.00496178      -0.00430615
C       -2.45849353       8.53864348       3.72452806       0.00000000      -0.00081758       0.00026355      -0.00309717
C        4.93735778       0.00022059       3.82667142       0.00000000      -0.00367016      -0.00589476      -0.00057461
C        3.74847145       2.14437889       3.96881340       0.00000000      -0.00950564      -0.00545247      -0.01400621
P        1.34837714       6.30561358       2.49881930       0.00000000       0.00790264       0.00297965       0.00513016
C       -0.01144003       8.56572757       3.46903629       0.00000000       0.01069533      -0.00008830      -0.00203895
C        7.40440854       0.00750799       3.80058506       0.00000000       0.00094529       0.00332351      -0.00355604
C        6.18957461       2.11488728       4.02510554       0.00000000       0.00045181      -0.00090535       0.00036866
C        4.99482712       4.19318363       4.01538743       0.00000000      -0.00113894      -0.00145930      -0.00844190
S        3.70858009       6.69665927       1.88827855       0.00000000       0.01336118      -0.00659270      -0.00193792
C        2.45671192       8.65386008       3.30302973       0.00000000       0.00689459      -0.01062060      -0.00160021
C        9.89202469       0.00949734       3.83136150       0.00000000      -0.01023286       0.00397906      -0.00674505
C        8.65693755       2.12904386       4.01092042       0.00000000       0.00707861       0.00546582       0.00337259
C        7.43049218       4.26363383       4.02417774       0.00000000      -0.00143414      -0.00384292      -0.00804239
C        6.14238666       6.36974468       3.86405757       0.00000000      -0.00407623      -0.00710788       0.00490710
C        4.96955769       8.55638810       3.60830114       0.00000000       0.00483285       0.00812572      -0.01091480
C        0.03291780       1.43461227       3.92188923       0.00000000      -0.00666308      -0.00195286       0.01294669
C       -1.21672003       3.54043002       3.91386255       0.00000000      -0.00323757      -0.00069871       0.00473710
C       -2.45362245       5.68578834       3.81157128       0.00000000      -0.00349191       0.00152517       0.00830481
C       -3.69605087       7.82553113       3.79389321       0.00000000      -0.00231225       0.00605501       0.00755329
C       -4.91478840       9.97706272       3.83743215       0.00000000       0.00656683       0.00805732       0.01278472
C        2.48267278       1.48676545       3.89903986       0.00000000      -0.01191319      -0.00211549      -0.00353355
O        1.18691592       3.52325550       3.70336132       0.00000000       0.00750564       0.00079680      -0.00503667
C       -0.02504930       5.59626767       3.43454468       0.00000000      -0.01115119      -0.00410499      -0.00364737
C       -1.22586901       7.82123956       3.57242926       0.00000000       0.00565231       0.00665204       0.00611884
C       -2.46595597       9.98071209       3.79402765       0.00000000      -0.00050575      -0.00726136       0.00975927
C        4.94414664       1.42436824       3.95709086       0.00000000      -0.00601522      -0.00380135      -0.00264097
O        3.79263406       3.50618827       4.06728887       0.00000000       0.00627486      -0.00442118       0.00178042
C        1.24562253       7.94859339       3.15948856       0.00000000       0.00926596      -0.00922451      -0.00895545
C        0.00006664       9.97764247       3.70511451       0.00000000       0.00268973       0.00054413       0.00545121
C        7.41488498       1.41545137       3.97456153       0.00000000       0.00772691       0.00709358      -0.00086931
C        6.21118560       3.52147689       4.06092754       0.00000000      -0.00036756      -0.00093938      -0.00016027
C        4.95653954       5.59900989       3.93988730       0.00000000      -0.01648443       0.00228350      -0.00118923
C        3.71190729       7.93352043       3.19034329       0.00000000       0.00700494       0.00776814      -0.01370900
C        2.47960026      10.01606199       3.67609691       0.00000000      -0.00520666      -0.00761101      -0.00393404
C        9.89769824       1.42240404       3.96912768       0.00000000       0.00226281       0.00258306       0.00170348
C        8.66272458       3.55299086       4.02066950       0.00000000      -0.00492608      -0.00004470      -0.00181676
C        7.40763240       5.68050810       3.93172786       0.00000000       0.00340129      -0.00380691       0.00422308
C        6.15808065       7.81294959       3.75846944       0.00000000       0.00127674      -0.00332077       0.00747932
C        4.95925482       9.96807874       3.78338802       0.00000000      -0.00321480       0.00778434       0.00611340
Ru       3.03446501       6.15383146       4.02804714       0.00000000       0.00942510       0.00438442      -0.00366776
O        3.22526517       5.04831808       6.20311092       1.00000000      -0.00210385      -0.01321271       0.00693482
O        2.10767729       5.23216175       5.56445861       1.00000000      -0.00279831       0.01111762       0.00301245
