50
Lattice="12.336457 0.0 0.0 -6.168228499999997 10.683685154694365 0.0 0.0 0.0 15.0" Properties=species:S:1:pos:R:3:forces:R:3 energy=-434.91189398283484 free_energy=-434.91189398283484 stress="-0.00018361014401492904 0.007710473995280426 -8.01710081388611e-06 0.007710473995280426 0.0014681566127934414 1.3160507216485925e-06 -8.01710081388611e-06 1.3160507216485925e-06 2.7912447304156435e-05" pbc="T T T"
C        0.00148489       0.04819017       3.67407944       0.00691140       0.00461708       0.00972608
C       -1.17055517       2.20386508       3.88983804      -0.00693038      -0.00083156       0.01060058
C       -2.46026357       4.33341761       4.07965509      -0.01004741      -0.00467332       0.00166943
C       -3.74774228       6.45082096       3.94794435      -0.00193626      -0.00704768      -0.00329507
C       -4.97486627       8.57086282       3.70961675       0.00753142       0.01052899       0.00144786
C        2.47795272       0.04070224       3.61280760      -0.00120335      -0.00026944      -0.00020101
C        1.27225292       2.17116041       3.21794952      -0.00162238      -0.00944742       0.00520919
C       -0.04462757       4.44326796       4.21128014       0.00806623       0.00132197      -0.00138090
C       -1.32038947       6.51205254       4.29279791      -0.00374521       0.00386206      -0.00767316
C       -2.51022051       8.60258519       3.98051625       0.00461026      -0.00514966      -0.01133472
C        4.94564130       0.01799290       3.84634990      -0.01117665      -0.00367450       0.00000252
C        3.81415129       2.07573158       3.34137637       0.00084021       0.00076466      -0.00054154
O        1.10045933       6.53999393       4.38925719       0.00475655       0.00310008       0.00442220
C       -0.03831280       8.59531916       4.16162140       0.01145075      -0.00187007       0.00280306
C        7.42369696       0.01458242       4.01347638      -0.00253417      -0.00202984      -0.00397132
C        6.23490458       2.12743540       3.74389521       0.00929028       0.00690376       0.01061543
C        5.05640511       4.19667892       3.35455223      -0.00431639      -0.00182381      -0.00409525
P        3.42948724       6.27887410       2.82127147      -0.01192149       0.00562543       0.01291697
C        2.42794539       8.54722989       3.95397219      -0.00329644      -0.00756529       0.01312735
C        9.88803271       0.02792683       3.91253748      -0.00099139      -0.01148708      -0.01105285
C        8.68575538       2.16665627       3.96685519       0.00678956       0.00305688      -0.01224970
C        7.43360280       4.29196275       3.81500465      -0.00411057       0.00094312      -0.00057998
C        6.13804865       6.39587016       3.57128446       0.00407094       0.00217867       0.00496933
C        4.89056392       8.55243084       3.63890239      -0.00576078       0.00209964       0.00577541
C        0.02876277       1.48934304       3.64722412      -0.00506144      -0.00193408       0.00445082
C       -1.19573450       3.64440738       4.06983787      -0.00457731       0.00111065       0.00154816
C       -2.51698613       5.75441832       4.12892964      -0.00534473      -0.00506330      -0.00935252
C       -3.74735621       7.87635794       3.88273974       0.00282213      -0.00391212      -0.00145152
C       -4.94329565      10.00361971       3.64944267       0.00649627       0.01014726      -0.00249273
C        2.54257965       1.44912382       3.37963423      -0.00122592      -0.00382670       0.00506245
S        1.15451911       3.36648634       1.88462499      -0.00352540       0.00705258       0.00061868
C       -0.10435342       5.84853573       4.36848780       0.00347398       0.00871788      -0.00464126
C       -1.29691026       7.91527849       4.18443000       0.01028250       0.00406025      -0.00279671
C       -2.47483208      10.01787264       3.81497056      -0.00878298      -0.00524017      -0.00376552
C        4.99929784       1.41854119       3.64282975       0.00317384       0.00170821       0.00401553
O        3.92575377       3.43380864       3.04863546       0.00647553      -0.00548980      -0.00655842
C        1.16191867       7.89450414       4.14689521       0.00777240      -0.00373185      -0.00312683
C        0.00410655      10.00659098       4.02439231      -0.00517383      -0.00377536      -0.00438595
C        7.44687754       1.44135096       3.92792919       0.01044292       0.00510585      -0.00331964
C        6.24003524       3.53640289       3.64556298       0.00270572       0.00370004      -0.00801689
C        4.95992551       5.59853421       3.33428558      -0.00154861      -0.00268571       0.00949295
C        3.63045385       7.85661373       3.60453166      -0.00921083      -0.00343885       0.01216302
C        2.47552584       9.98014768       4.00607331      -0.00674303      -0.00984704      -0.00693145
C        9.92065422       1.46546389       3.95193461      -0.00076091      -0.00857968      -0.00126697
C        8.66865106       3.59555971       3.96295293      -0.00963382       0.00047254      -0.00097356
C        7.37953252       5.71414606       3.78133009       0.00131617      -0.00368873      -0.00777242
C        6.12438560       7.83302121       3.61097817       0.00106645       0.00974476       0.00714678
C        4.93140555       9.99716872       3.75993092       0.00649631       0.00072006       0.00275577
Ru       1.83159250       4.14644877       3.87230639       0.00941211       0.01290338       0.00310222
O        2.62615481       4.07273261       5.41688143      -0.00507225       0.00663727      -0.01041391
