49
Lattice="12.336457 0.0 0.0 -6.168228499999997 10.683685154694365 0.0 0.0 0.0 15.0" Properties=species:S:1:pos:R:3:forces:R:3 energy=-428.86252979956294 free_energy=-428.86252979956294 stress="0.0012436519107028902 0.007800239396842449 -1.8663831565928964e-05 0.007800239396842449 0.0028340461468967276 -2.811558181492323e-06 -1.8663831565928964e-05 -2.811558181492323e-06 2.6257487170991125e-08" pbc="T T T"
C        0.01790497       0.04771461       3.61097683       0.00762590      -0.01355360      -0.00003214
C       -1.16110326       2.19534304       3.71467239       0.00147132      -0.00057870       0.00698903
C       -2.43888678       4.32270180       3.91993680      -0.00383066       0.00184962      -0.00855945
C       -3.72770328       6.44094058       3.88598050       0.00834986       0.00533681       0.00586807
C       -4.96293111       8.56529944       3.71285345      -0.00986891      -0.00112012       0.00308938
C        2.47672125       0.04506168       3.77250724       0.00426889       0.00160544      -0.00867446
C        1.33742546       2.19055712       3.22369182      -0.01359508      -0.00524961      -0.00450567
C       -0.00024040       4.42288248       3.89315911       0.00807859       0.00806298       0.01599247
C       -1.28277706       6.48964337       4.08439078       0.00131061       0.00149084      -0.00231766
C       -2.49528667       8.59270977       3.96312643       0.00170308      -0.00625621       0.00379919
C        4.94757194       0.01959722       3.97848052       0.00029603       0.01409159      -0.00028478
C        3.78376445       2.11480691       3.79759465       0.00116392       0.00221143       0.00022739
O        1.13723980       6.50678091       4.23989370      -0.00477769      -0.01311085      -0.00210558
C       -0.01827699       8.58119255       4.06378433       0.00913555      -0.00074133       0.00215878
C        7.43648883       0.00656609       3.97705252      -0.00628580       0.00053121      -0.00200390
C        6.23422104       2.12898728       3.96372363       0.01025471       0.00400805      -0.00084678
C        5.02167694       4.20712171       3.72782779      -0.00010879      -0.00262789       0.00622692
P        3.42539157       6.16041707       2.86832155      -0.00774853      -0.00266081      -0.00549966
C        2.44195950       8.54000266       3.80694424       0.00022347       0.00294370      -0.00574686
C        9.89697383       0.02314848       3.76942534       0.00262380      -0.00186033       0.00482804
C        8.69884872       2.15936367       3.90740640      -0.00592213      -0.00438447       0.00015075
C        7.43850487       4.28663884       3.87790308      -0.00334197       0.00124053       0.00113677
C        6.14695559       6.39046618       3.63407608       0.00736490      -0.00112208      -0.00921692
C        4.90049169       8.54279065       3.55430903      -0.00300102       0.00259753      -0.00394697
C        0.05530068       1.49330685       3.54986253      -0.00273027      -0.01139034      -0.00406371
C       -1.17631090       3.63434300       3.83985164       0.00027623       0.00527429      -0.00341858
C       -2.48888095       5.74035119       3.97469714       0.00560987       0.00233897      -0.00138268
C       -3.73214930       7.86765780       3.85689215      -0.00861558       0.00413832       0.01037677
C       -4.93211540      10.00195776       3.68204917       0.00667306      -0.00451974      -0.00695284
C        2.53503578       1.47570352       3.66210509      -0.00531249       0.00796556      -0.00608905
S        1.45243695       3.10620636       1.67357901      -0.00723652       0.00185138       0.00456976
C       -0.06150100       5.82127645       4.08990084      -0.00447268       0.00425244       0.00394667
C       -1.27416437       7.89944767       4.07106073       0.00899161      -0.00275049      -0.00257667
C       -2.47218619      10.01859261       3.92193090       0.00413654      -0.00150855      -0.00282537
C        4.99056207       1.43348644       3.94060409       0.00971398       0.01313687      -0.00414638
O        3.82604160       3.49456721       3.82004190      -0.00371214      -0.00100852       0.00278303
C        1.18597532       7.87940968       4.00828040       0.00419086      -0.00905009       0.00166949
C        0.01632384       9.99853339       4.02081023      -0.00445860       0.00530385      -0.00060757
C        7.45840513       1.43579810       3.96747713       0.00029608      -0.00416154      -0.00449995
C        6.23010149       3.53713630       3.89040523      -0.00005774       0.00037094       0.00323562
C        4.95214009       5.58226756       3.51185473       0.00165677      -0.00080544       0.00659455
C        3.63880403       7.84400012       3.48298378      -0.00248069       0.00165516       0.00548520
C        2.48618440       9.97706113       3.87536843      -0.00181347       0.00370529       0.00934746
C        9.93026294       1.45898462       3.80973849      -0.00291137      -0.00295881       0.00321112
C        8.68275239       3.58797125       3.90955771      -0.00849482      -0.00279387      -0.00276315
C        7.38943118       5.70717170       3.80299426       0.01219327       0.00190780      -0.00366495
C        6.13761082       7.82660476       3.60175140      -0.00628587       0.00005036      -0.00330456
C        4.94371929       9.99243982       3.64279411       0.00590718      -0.00522549       0.00106646
Ru       1.84867855       4.38353976       3.40009023      -0.00645326       0.00151789      -0.00271661
