49
Lattice="12.336457 0.0 0.0 -6.168228499999997 10.683685154694365 0.0 0.0 0.0 15.0" Properties=species:S:1:pos:R:3:forces:R:3 energy=-429.3971342954863 free_energy=-429.3971342954863 stress="0.0015181329274515187 -0.0009071685491392943 -6.306111850455242e-06 -0.0009071685491392943 0.006347131099331879 -4.942260545569935e-06 -6.306111850455242e-06 -4.942260545569935e-06 1.1438930860014793e-05" pbc="T T T"
C       -0.03312365      -0.02686156       3.90918799      -0.00199762      -0.00081403       0.00464374
C       -1.26781392       2.11732123       3.97795857       0.00668767       0.00199278      -0.01241824
C       -2.47519599       4.25804552       3.98271018       0.00382505      -0.00263745      -0.00366493
C       -3.69229369       6.39749687       3.91813271       0.00066541       0.00674060      -0.00709797
C       -4.94408124       8.54368738       3.87185640      -0.00970234      -0.00747932      -0.00914471
C        2.43323211       0.01245918       3.92277250      -0.00021556      -0.00029038       0.00135027
C        1.16434359       2.13392851       3.90746231      -0.00323406       0.01152256       0.01138777
C       -0.03074954       4.24990902       4.05091701       0.00133773       0.00806408       0.00055942
C       -1.22624850       6.37890767       4.07108733       0.00109098      -0.00718572      -0.00597582
C       -2.47914491       8.53201357       4.00401545       0.00885871      -0.00796673      -0.00581112
C        4.90416448      -0.01044016       3.84933159       0.00489455       0.00410437       0.01069372
C        3.64789380       2.07822368       3.46191481      -0.00085348       0.01829406      -0.00623548
O        1.17447590       6.41391497       4.10294563      -0.01580919       0.00083853       0.01154641
C       -0.02733226       8.51375650       3.97704073       0.00095037       0.00174451      -0.00503502
C        7.37138773      -0.03560392       3.84655032      -0.00209358      -0.00062186      -0.00044014
C        6.13904974       2.12186845       3.63244875       0.00478620      -0.00473648       0.00102805
C        5.02537470       4.29494788       3.13162230      -0.01305616       0.00918515      -0.00958398
P        3.82663607       6.62476594       1.96708874       0.00023317      -0.00814320       0.00614318
C        2.40994451       8.47430443       3.75042306      -0.00057395       0.01003658      -0.00591202
C        9.83059822      -0.04160266       3.86797275       0.00506322      -0.00351151      -0.00461204
C        8.60427393       2.11359160       3.86882906       0.00032210      -0.01366268      -0.00190277
C        7.40542965       4.25849180       3.72197765      -0.00424089       0.00201461       0.00184592
C        6.25723433       6.43959844       3.46275051      -0.00636485      -0.00061298       0.00624310
C        4.90542200       8.49960165       3.66899558       0.00299030      -0.00206141       0.00264299
C       -0.03270510       1.41277022       3.95295973       0.00300733       0.00550451      -0.00448650
C       -1.24772204       3.54525775       4.01942888       0.01236239       0.00541497      -0.00196059
C       -2.46192351       5.67393167       4.01098432       0.00011642      -0.00192548      -0.00504159
C       -3.71321619       7.82511040       3.94643492      -0.00279185       0.00249975       0.00771895
C       -4.96073275       9.96808722       3.92814793      -0.00547356      -0.00777369       0.00769091
C        2.41469152       1.44675066       3.79207367      -0.00439235       0.01007073       0.00007717
O        1.14059832       3.50566415       4.04572437      -0.00626387      -0.00004213       0.00118553
C       -0.02436110       5.66228677       4.08092442      -0.00365289       0.00565128       0.00101211
C       -1.25145568       7.81099578       4.04203736       0.00815313      -0.01296399      -0.00835663
C       -2.49623991       9.97148044       3.93846889       0.00701615      -0.00298581       0.00013660
C        4.89109765       1.41709522       3.63998329       0.00147440       0.00546827       0.01219062
S        3.59637886       3.56248972       2.50988611       0.00428724      -0.00556699       0.01177534
C        1.18332105       7.79679185       3.92285073      -0.00277792       0.00724877       0.00912736
C       -0.02669862       9.94677747       3.89205513       0.00137574       0.00217869       0.00403780
C        7.36420878       1.40383125       3.79306464      -0.00041711      -0.01042828      -0.00090817
C        6.18019477       3.53923508       3.52588479      -0.00351026      -0.00041006      -0.00660618
C        5.10740138       5.71848785       2.97870711      -0.00946962      -0.00264577       0.00069230
C        3.64478654       7.75413041       3.47154958       0.00517527       0.00094674      -0.00322768
C        2.42705307       9.91722988       3.83611960       0.00109707       0.00556062       0.00049167
C        9.84070620       1.39595048       3.92294975       0.00540816      -0.00620154      -0.00776571
C        8.62145974       3.54115727       3.87587224      -0.00189540      -0.00994602       0.00129786
C        7.42939886       5.69132004       3.71941948      -0.00269924       0.00825652      -0.00342803
C        6.17055741       7.83470854       3.66220225      -0.00615252      -0.00637575      -0.00233359
C        4.89898675       9.92495157       3.84002549       0.00208538      -0.00463266       0.00578802
Ru       3.25813026       5.56973146       3.68097299       0.01437411      -0.00171679       0.00064208
