50
Lattice="12.336457 0.0 0.0 -6.168228499999997 10.683685154694365 0.0 0.0 0.0 15.0" Properties=species:S:1:pos:R:3:forces:R:3 energy=-436.3986137683354 free_energy=-436.3986137683354 stress="-0.0007440755250154398 -0.0005222283965132505 1.0325607369669252e-05 -0.0005222283965132505 0.004016623140715429 -7.284966289135451e-06 1.0325607369669252e-05 -7.284966289135451e-06 -1.7755540254350468e-05" pbc="T T T"
C       -0.02461008      -0.00453455       3.88035181      -0.00604733       0.00593345       0.00133877
C       -1.25983274       2.13570492       3.97754197      -0.00165591       0.00299976       0.00141561
C       -2.47295670       4.27391666       3.97864388       0.00619589      -0.00483101       0.00356826
C       -3.70051857       6.41211024       3.88060068       0.00325334       0.00549373       0.01022804
C       -4.94810431       8.55430185       3.81153166      -0.00297231       0.00144572       0.00456987
C        2.43510366       0.02526734       3.90482547       0.00613528      -0.00565460       0.00033282
C        1.17066862       2.15225543       3.90735505      -0.00448764       0.00427667      -0.00401252
C       -0.03411626       4.26823237       4.04103815      -0.00034719       0.00149211      -0.01309401
C       -1.24230919       6.39480584       4.05557563       0.00294053       0.00706101      -0.00512468
C       -2.47978333       8.54627027       3.97064483       0.00724088      -0.00198446       0.00930010
C        4.90831321       0.00462050       3.85208403       0.00192424      -0.00730984      -0.00220561
C        3.65497089       2.09910542       3.51435319       0.00057105      -0.00174395      -0.00324852
O        1.11893628       6.41850417       3.81482073      -0.00454573       0.00153894      -0.01112005
C       -0.02070083       8.52660292       3.95675188       0.00036568       0.00333642      -0.01107399
C        7.37730242      -0.02129994       3.85599632      -0.00171058      -0.00921537       0.00418087
C        6.15417981       2.12823631       3.63703816      -0.00250567      -0.00731120       0.00027036
C        5.07178647       4.28336519       3.13516676       0.00708111       0.00500343       0.00258710
P        3.60037438       6.36995258       2.34051392       0.01199945      -0.00592133      -0.01243778
C        2.41939477       8.49476710       3.72413512       0.00003673       0.00471037       0.00632199
C        9.83801555      -0.02419759       3.85759678       0.00593944       0.00836862       0.00058456
C        8.61451457       2.12626711       3.86729703      -0.00921740      -0.00051942       0.00942477
C        7.41984883       4.26852151       3.69735829      -0.00216135       0.00842189      -0.00033037
C        6.24278694       6.44629365       3.43771271      -0.00887603      -0.00682636       0.00312218
C        4.90939383       8.53454173       3.59905267       0.00276526      -0.01240328       0.00569669
C       -0.02416199       1.43296968       3.94755653      -0.00499225       0.00648760      -0.00556854
C       -1.24361674       3.56507327       4.02531403       0.00550980      -0.00346232      -0.00860741
C       -2.47228783       5.68905489       3.99575209       0.00642919      -0.00066857       0.00656195
C       -3.71558462       7.83881434       3.89993224       0.00318962       0.00657694      -0.00250550
C       -4.95775458       9.98176827       3.88683539      -0.00368852       0.00438087       0.00318576
C        2.41700363       1.46140187       3.80551083      -0.00076657      -0.00236602      -0.00319916
O        1.13260437       3.52774626       4.00401484       0.00147117       0.00760885      -0.00631477
C       -0.03563054       5.68752739       4.03365620      -0.00626820       0.00106774      -0.01602692
C       -1.25255542       7.82513159       4.01476005       0.00485117       0.00549763       0.00245854
C       -2.49394537       9.98537946       3.91995984       0.00804744      -0.00967536       0.00135034
C        4.89831831       1.43268403       3.65784637      -0.00075139      -0.00708746       0.00868583
S        3.56205122       3.61370251       2.63503930       0.00772673      -0.00037852      -0.00882912
C        1.17858549       7.80007918       3.84800706      -0.00545024       0.00580753      -0.01110583
C       -0.02284298       9.96169509       3.89342006      -0.00262265      -0.00294883       0.00356300
C        7.37740889       1.41318345       3.79795938      -0.00641711      -0.01189803       0.00877938
C        6.22025641       3.53182870       3.50338637      -0.00325229       0.00227699      -0.00268987
C        5.09623004       5.70642803       2.98101022      -0.00472492       0.00268080      -0.00456891
C        3.66571910       7.84135376       3.43810819      -0.00400846       0.00061559       0.00376441
C        2.43211053       9.93257030       3.83791181       0.00544393       0.00544785       0.00312756
C        9.85057445       1.41320026       3.92132748      -0.00213265       0.00882860      -0.00268583
C        8.63325581       3.55318001       3.86698428      -0.00455472       0.00300365       0.00433405
C        7.42283303       5.70485181       3.68406046      -0.00381139       0.00822184       0.01086797
C        6.16973174       7.84702345       3.60233862       0.00218764      -0.01150854       0.00282537
C        4.90888623       9.95554721       3.79989474       0.00169499      -0.00642840      -0.00200887
Ru       3.68584354       5.20764531       4.30568110      -0.00485438      -0.00944467       0.00649232
O        2.94983265       5.42482947       5.75341101      -0.00017772       0.00100294       0.00781981
