52
Lattice="12.336457 0.0 0.0 -6.168228499999997 10.683685154694365 0.0 0.0 0.0 15.0" Properties=species:S:1:pos:R:3:forces:R:3 energy=-451.12960015076334 free_energy=-451.12960015076334 stress="-0.002018859825127593 0.0015780573993455348 4.190474131564225e-05 0.0015780573993455348 -0.00815893126310163 2.570687083719314e-05 4.190474131564225e-05 2.570687083719314e-05 2.334029445435149e-05" pbc="T T T"
C       -0.00419492       0.05430985       3.72314431       0.00045369      -0.00374253      -0.00576493
C       -1.22789608       2.19953188       3.75875607       0.00395336      -0.00244491       0.01332391
C       -2.45401959       4.33440271       3.71584762       0.00064775       0.01332503       0.01476832
C       -3.69767760       6.45976736       3.67534468      -0.00568004       0.00175799      -0.00500055
C       -4.95584408       8.58674300       3.64692319       0.00163157      -0.00720364       0.00284064
C        2.46090694       0.03815746       3.83894445      -0.00730109       0.00618917       0.01056994
C        1.22868431       2.19207608       3.95952795       0.00438682      -0.00149477      -0.00436654
C        0.03201264       4.30749485       3.80281940       0.01186686      -0.00802433      -0.00817748
C       -1.20047648       6.46118512       3.64684141       0.00330074      -0.00182360       0.00209586
C       -2.46856778       8.59386482       3.70515596      -0.00215006       0.00402386       0.00011900
C        4.93048461       0.06037588       3.83248275       0.00270840      -0.00564887       0.00299728
C        3.70437817       2.18855650       4.03327562      -0.00270221       0.00164200      -0.00311657
B        1.35571150       6.52675264       3.50264053       0.01023465       0.01057860      -0.00007850
C       -0.00552121       8.63125727       3.63782958       0.00043149      -0.00453597      -0.00106740
C        7.39406116       0.09317733       3.73790738       0.00337523      -0.00253452      -0.00090801
C        6.17766361       2.19060899       3.90386553      -0.00137318      -0.00137876       0.00369291
C        4.93199648       4.28836976       3.92380798      -0.00507962      -0.00276567      -0.00683777
S        3.32657282       6.29429400       3.01976910      -0.00414553       0.01443668       0.00087504
C        2.45405409       8.69974079       3.49331814       0.00080741      -0.00118946      -0.00025774
C        9.87893426       0.08947165       3.66021744      -0.00755929      -0.00375994      -0.00284775
C        8.64393806       2.21040561       3.77544244       0.00673411      -0.00009012      -0.00828971
C        7.41027803       4.33325104       3.79119496       0.00297454      -0.00290058      -0.00120903
C        6.13271771       6.45021649       3.62057989       0.00227276       0.00076470      -0.00363716
C        4.91403950       8.60205943       3.49531566      -0.00486329       0.00726901      -0.00377358
C       -0.00941132       1.47253215       3.81070552       0.00719607      -0.00260890       0.00107451
C       -1.23211190       3.61262118       3.74446402      -0.00008140       0.00202067       0.00502127
C       -2.45242644       5.75628818       3.68064847      -0.00419711       0.01110605       0.00212762
C       -3.70777300       7.88246603       3.66990233       0.00155718      -0.00201606       0.00724867
C       -4.94382655      10.01218830       3.73145760      -0.00088223      -0.00580541       0.00472560
C        2.46383379       1.45130207       3.97993839      -0.00173781       0.00552337      -0.00177188
C        1.20323423       3.57908884       4.04140116       0.01401871      -0.00245770      -0.00093096
C        0.05093874       5.74064404       3.65730851       0.01149219      -0.00417450      -0.00961568
C       -1.22816623       7.88818559       3.65990426      -0.00210533      -0.00209869      -0.00336693
C       -2.47119109      10.01522464       3.79428729      -0.00626136       0.00614362       0.00460040
C        4.94849658       1.47229897       3.93582297      -0.00337503      -0.00422212      -0.00294161
C        3.74494981       3.57451303       4.09963334      -0.00858798       0.00263091       0.00933240
C        1.24338094       7.98828062       3.51125471       0.00194302       0.00550065      -0.00043651
C       -0.00612755      10.05540643       3.73767178       0.00495895      -0.00570824      -0.00565960
C        7.41021613       1.49920767       3.81494411       0.00281862       0.00021967      -0.00103591
C        6.19863271       3.60286924       3.89764635      -0.00200566      -0.00080270      -0.00809530
C        4.93358160       5.69239328       3.66457792       0.00582484      -0.00131587       0.00752006
C        3.65389683       7.98636347       3.36340814      -0.00078860       0.00191351       0.00489419
C        2.46731945      10.10220298       3.63245444      -0.00224858      -0.00708847       0.00126992
C        9.87380655       1.50183833       3.73007251       0.00348926      -0.00598807       0.00464917
C        8.64747728       3.62866327       3.76470357       0.00632629       0.00243258       0.00057727
C        7.39597999       5.75207315       3.70340146       0.00036740      -0.00276044       0.00000852
C        6.14299366       7.87610704       3.56027427      -0.00352653       0.00298300      -0.00179018
C        4.93043992      10.03801587       3.61633681      -0.00673139       0.00493039      -0.00289058
Sc       2.45893816       4.88841054       5.22382422      -0.01156089       0.00085661      -0.00345705
O        2.59237476       4.11944424       6.84486066      -0.01826403      -0.00769826       0.00220677
O        2.69690625       3.39735413       8.03557121      -0.00224664       0.00384142       0.00093828
H        2.81551024       4.09327243       8.71357911      -0.00031702      -0.00580640      -0.01015264
