51
Lattice="12.336457 0.0 0.0 -6.168228499999997 10.683685154694365 0.0 0.0 0.0 15.0" Properties=species:S:1:pos:R:3:initial_magmoms:R:1:forces:R:3 energy=-445.804500915897 free_energy=-445.804500915897 stress="0.01934630409208011 0.0014767296552337075 -0.00013372736091577956 0.0014767296552337075 -0.0042070015680991946 -3.795875363361168e-05 -0.00013372736091577956 -3.795875363361168e-05 0.00012171525128849167" pbc="T T T"
C        0.24748850      -0.04438764       3.65582514       0.00000000       0.01622415      -0.00942281      -0.00968102
C       -0.93640289       2.12960618       3.57371085       0.00000000       0.00185976      -0.00998644       0.01549359
C       -2.15667578       4.22059122       3.51237763       0.00000000       0.00240501       0.01727811       0.00781789
C       -3.46068843       6.32223213       3.56390737       0.00000000      -0.01315460      -0.01561527       0.02226049
C       -4.72856135       8.44019946       3.65523078       0.00000000      -0.00598936       0.00408029       0.01654714
C        2.69959992      -0.12613140       3.61415389       0.00000000       0.01367262      -0.00215698      -0.00837913
C        1.54038679       2.07114512       3.63812444       0.00000000      -0.01622119       0.01156162      -0.01580964
C        0.48737437       4.19892620       3.59633817       0.00000000       0.01019087       0.01617961      -0.01548581
C       -0.90709486       6.31940585       3.56499771       0.00000000       0.03669444       0.01907090       0.04289609
C       -2.21813290       8.44435335       3.56622389       0.00000000      -0.02400541       0.01530707      -0.00899568
C        5.15470980      -0.04774753       3.52270162       0.00000000       0.02853850       0.02889023       0.00669679
C        3.88112002       2.06548414       3.57051434       0.00000000      -0.01375712      -0.02935610      -0.00672026
B        1.64354282       6.44291389       3.78461923       0.00000000      -0.04119647      -0.01762566       0.04349510
C        0.24194537       8.52873161       3.56458186       0.00000000       0.00685874       0.00590823       0.01469560
C        7.62214434       0.02589554       3.51433222       0.00000000      -0.00947446      -0.01316894      -0.00734730
C        6.36243512       2.11437301       3.48404875       0.00000000       0.01034641       0.01285312      -0.00685303
C        4.95990895       4.17664722       3.57136847       0.00000000      -0.06949188      -0.01338969       0.01491562
S        3.50960135       6.25766028       4.28084640       0.00000000      -0.00363240       0.00298787      -0.00065425
C        2.68960889       8.64033491       3.71766323       0.00000000       0.01162278       0.00611091      -0.02359739
C       10.12634647       0.02581706       3.60470832       0.00000000      -0.00392885       0.00819903       0.00795025
C        8.88279491       2.13416966       3.51036644       0.00000000      -0.01729773      -0.00054183      -0.03272294
C        7.58712058       4.22161045       3.51706304       0.00000000       0.00090225      -0.01749039      -0.01355419
C        6.31416350       6.31699682       3.69560369       0.00000000       0.00221923      -0.01135697      -0.02778737
C        5.14450766       8.51480746       3.78322926       0.00000000       0.00955196      -0.01086531       0.00651595
C        0.27389451       1.38758314       3.63147418       0.00000000       0.00676559      -0.00975963      -0.01161900
C       -0.86701602       3.53497831       3.53956593       0.00000000      -0.01483382      -0.02401630      -0.00050353
C       -2.18453161       5.62895144       3.53160754       0.00000000       0.02547094       0.02408213      -0.02055075
C       -3.46985196       7.73636962       3.59448474       0.00000000      -0.03142588      -0.01174714       0.02800159
C       -4.71313370       9.86763770       3.64678608       0.00000000       0.01379140       0.00183311       0.02598889
C        2.70656734       1.28079937       3.62243660       0.00000000      -0.03055328      -0.00539563      -0.04729893
C        1.77711040       3.46350832       3.62563526       0.00000000      -0.02729813      -0.00123119      -0.09096652
C        0.37584395       5.61683023       3.63967933       0.00000000       0.01668339       0.01756223      -0.01383153
C       -0.96419766       7.75052135       3.55537808       0.00000000       0.00210713       0.02387646       0.02503516
C       -2.22767241       9.86645702       3.56914175       0.00000000       0.02446824       0.02268384      -0.02347825
C        5.14505118       1.37942763       3.51456372       0.00000000       0.01685914       0.00969001       0.02349771
C        3.65797222       3.45057506       3.58303466       0.00000000      -0.00051100       0.00744125      -0.03085849
C        1.49391374       7.90779759       3.68098367       0.00000000       0.02539474       0.00061868      -0.01604709
C        0.22753737       9.96354344       3.51594995       0.00000000       0.00940541       0.00221981       0.00758101
C        7.62630008       1.43479770       3.49161883       0.00000000      -0.00996938      -0.00891961       0.00318112
C        6.30240064       3.52342824       3.49802852       0.00000000       0.03071943      -0.01329101       0.02164576
C        5.07709917       5.57678009       3.73417957       0.00000000       0.00108880      -0.02133827       0.00887648
C        3.87919494       7.92106305       3.90161546       0.00000000       0.00642272      -0.00927208      -0.00949021
C        2.70553733      10.04046122       3.58409781       0.00000000      -0.00422166       0.01476667       0.01967753
C       10.13599311       1.43755320       3.55628686       0.00000000      -0.01187742       0.00642578      -0.00981456
C        8.88634498       3.54295062       3.49568107       0.00000000      -0.00264958       0.00268370       0.00175293
C        7.59692023       5.63040116       3.58604689       0.00000000      -0.00382368      -0.02443910      -0.00537758
C        6.35526460       7.74612498       3.73173381       0.00000000      -0.00443244      -0.00758886       0.01336736
C        5.17263713       9.95658324       3.67704487       0.00000000       0.00589855       0.00458752       0.02384102
Sc      -0.95158394       5.97603799       7.21378222       0.00000000      -0.32523026      -0.31694715       0.37506631
O       -1.32974010       6.18786071       8.93447296       1.00000000       0.18462544       0.13437860      -0.27592151
O       -1.77680319       4.52841375       6.41031915       1.00000000       0.16418841       0.18364557      -0.04345146
