49
Lattice="12.336457 0.0 0.0 -6.168228499999997 10.683685154694365 0.0 0.0 0.0 15.0" Properties=species:S:1:pos:R:3:forces:R:3 energy=-432.89488218829064 free_energy=-432.89488218829064 stress="-0.00235697056365024 0.000115452618253263 -2.247365818964691e-06 0.000115452618253263 -0.010577489929055127 2.2370578983614085e-07 -2.247365818964691e-06 2.2370578983614085e-07 4.06679061721022e-06" pbc="T T T"
C       -0.01981669      -0.00954910       3.58185643       0.00829812       0.00256474       0.00494369
C       -1.25889390       2.13047587       3.80979630       0.00161638      -0.00347681      -0.00406493
C       -2.50270422       4.27575515       3.79462825      -0.00230730      -0.00475803       0.00158445
C       -3.72960757       6.40262630       3.69451489      -0.01008403      -0.00009173       0.00197437
C       -4.95923511       8.52433076       3.56235120       0.00721479       0.00064972      -0.00266964
C        2.44967373      -0.04763298       3.63085588      -0.00813133      -0.00330310       0.00341341
C        1.21830711       1.98874779       4.14564212      -0.00718927       0.00077968       0.00790434
C       -0.11428059       4.27130240       4.28246448       0.00804367      -0.00353067       0.00445805
C       -1.24604912       6.41145412       3.85556412       0.00537460       0.00271746      -0.00485239
C       -2.47614576       8.52462171       3.61188498       0.00443529      -0.00057604      -0.00078065
C        4.91540798      -0.00758391       3.53106291       0.00222019      -0.00488823       0.00099411
C        3.67840485       2.09460536       3.81836225       0.00060664       0.00086252       0.00321992
P        1.59035786       6.35317197       4.35514486      -0.00572483      -0.00233561      -0.00365725
C       -0.01104257       8.56607951       3.64035912      -0.00371990       0.00397246      -0.00240138
C        7.37368079       0.03978111       3.39943036      -0.00701453       0.00899056      -0.00587987
C        6.13805505       2.14217227       3.55762205       0.00478376      -0.00210500       0.00455160
C        4.89525408       4.23822022       3.83609943       0.00684748      -0.00198378       0.00709254
B        3.53016162       6.48256754       3.77984150      -0.00666016      -0.00941620       0.00110090
C        2.45364686       8.64762605       3.42387143      -0.00708303       0.00028073       0.00721036
C        9.86228541       0.04719198       3.38783746       0.00073541      -0.00418912       0.00230543
C        8.61435041       2.15855152       3.53996740      -0.00341810       0.00056891       0.00340814
C        7.36731974       4.27702843       3.67152575      -0.01209677      -0.00100752       0.00125543
C        6.11691511       6.41100270       3.71578466       0.00074193       0.00367172      -0.00278977
C        4.91944624       8.57030021       3.42166856       0.01546905       0.00340280      -0.00398720
C       -0.02963954       1.39162826       3.84291006      -0.00145127      -0.00100013       0.00084826
C       -1.28894342       3.54239642       3.97007899       0.01017815      -0.00338869      -0.00809855
C       -2.49042507       5.69897357       3.78272716      -0.00325896       0.00052480      -0.00101573
C       -3.72061850       7.81913526       3.62256801       0.00297078      -0.00063827       0.00202000
C       -4.95826842       9.94307011       3.57194350      -0.00070432      -0.00311602       0.00396665
C        2.44872649       1.34768733       3.85712122      -0.00884280       0.00058371       0.00183092
P        1.31743152       3.51334783       4.96992606      -0.00181368       0.01471960       0.00510881
C       -0.04578525       5.66886047       4.10480184       0.00390264       0.00585462      -0.00267088
C       -1.23915321       7.82763280       3.70864237       0.00680550       0.00088811      -0.00622007
C       -2.47990487       9.94208641       3.56780052      -0.00421302      -0.00132294       0.00167461
C        4.91183672       1.41188077       3.59575140       0.00663212      -0.00309297       0.00139858
C        3.71619770       3.47582829       3.98827619      -0.00210043       0.00105917       0.00152016
C        1.25734654       7.95327651       3.73056145      -0.01203784       0.00048021      -0.01503340
C       -0.01931814       9.98686203       3.48750372       0.00031576       0.00261359       0.00318985
C        7.37929171       1.45106324       3.46484718       0.00023321       0.00483746       0.00192917
C        6.14890487       3.55187223       3.66137998      -0.00185081      -0.00579162       0.01041650
C        4.85969938       5.68909534       3.86125680       0.01038503      -0.00421242      -0.00649047
C        3.66853705       7.92742018       3.42396946       0.00444298       0.00185293      -0.00104578
C        2.44958319      10.04928669       3.32738447      -0.00902305       0.00364865       0.00199936
C        9.85776636       1.45316480       3.55079904      -0.00191437      -0.00290116      -0.00173002
C        8.60764593       3.57296989       3.65573966      -0.01037684      -0.00010644       0.00217361
C        7.35850172       5.70205531       3.70642531      -0.01300222       0.00025082      -0.00125820
C        6.13493987       7.82536361       3.56622835       0.01301798       0.00277377      -0.01259617
C        4.92226295       9.99732606       3.41932505       0.01327928       0.00456753       0.00039255
Sc       3.30528641       4.94341873       5.46861540       0.00546810      -0.00588376      -0.00664342
