50
Lattice="12.336457 0.0 0.0 -6.168228499999997 10.683685154694365 0.0 0.0 0.0 15.0" Properties=species:S:1:pos:R:3:forces:R:3 energy=-442.17789098056136 free_energy=-442.17789098056136 stress="-0.0012304292541031466 0.001532840565596868 -5.372564887074217e-06 0.001532840565596868 -0.007290934790046547 3.6099504571613237e-06 -5.372564887074217e-06 3.6099504571613237e-06 1.0239028264911924e-07" pbc="T T T"
C       -0.00315542       0.00432746       3.71011127      -0.00452258      -0.00071219       0.00032288
C       -1.22643026       2.14893127       3.73186134       0.00226793      -0.00129715       0.01144505
C       -2.45156992       4.28212915       3.67505838       0.00330249       0.00779990       0.00244392
C       -3.69728161       6.40749197       3.63979317      -0.00480729       0.00069323       0.00326127
C       -4.95506134       8.53550629       3.63261647       0.00192110       0.00396145      -0.00351408
C        2.46205692      -0.00967287       3.83549755      -0.01018450       0.01184076       0.00211440
C        1.23084244       2.14581003       3.92910701       0.00132487      -0.00220082       0.00329965
C        0.03928073       4.25631711       3.74277048      -0.00812934      -0.00572465       0.00157860
C       -1.19690470       6.40925269       3.60706478       0.00404326      -0.00263719      -0.00247683
C       -2.46754734       8.54252011       3.69363604       0.00429042       0.01092472       0.00144252
C        4.93113757       0.01103929       3.83740809       0.00653562      -0.00324345      -0.00340292
C        3.70357491       2.14472711       4.02738476       0.00322172      -0.01174118      -0.00578946
B        1.36106699       6.47327638       3.46268703       0.00559638      -0.00308024      -0.00878770
C       -0.00334254       8.58017783       3.63898595       0.00133560      -0.00857008       0.00544473
C        7.39508407       0.04158467       3.75448101       0.00462815      -0.00595472       0.00000232
C        6.17768218       2.14072514       3.89677293      -0.00257265       0.00429565      -0.00020048
C        4.92655332       4.23853241       3.89876460      -0.00312059      -0.00808141       0.00268700
S        3.31200683       6.24891318       2.99312009       0.01383639      -0.00119634      -0.00521590
C        2.45516005       8.64785301       3.51058453      -0.00679184       0.00169219       0.00366874
C        9.87939600       0.03697374       3.66952028       0.00442648       0.00310659      -0.00816713
C        8.64523495       2.15912430       3.76479104      -0.00449956       0.00219138      -0.00569266
C        7.40877941       4.28057127       3.75513295       0.00582268       0.00199714       0.00618576
C        6.12959390       6.39755516       3.58878318      -0.00110158       0.00462435      -0.00006018
C        4.91407994       8.55084953       3.48622730      -0.01124751       0.00066035      -0.00378107
C       -0.00930716       1.42321928       3.78688825       0.00365527      -0.00171022      -0.00207648
C       -1.22856317       3.56085901       3.69997867      -0.00368109      -0.00181932       0.00117543
C       -2.45075792       5.70433333       3.63944466      -0.00123555       0.00584864      -0.00205052
C       -3.70707449       7.83066429       3.65041061       0.00546083       0.00285882      -0.00389437
C       -4.94258225       9.96154599       3.72261962      -0.00528714       0.00507498      -0.00610178
C        2.46478545       1.40371806       3.96973212       0.00020649       0.00526612      -0.00768976
C        1.20426871       3.53026756       4.01231427      -0.01019920      -0.00515887       0.00173307
C        0.05316809       5.69023290       3.59830869       0.00607100      -0.00599739       0.00155968
C       -1.22694356       7.83735982       3.64124035       0.00204606      -0.00208945       0.00395164
C       -2.47026070       9.96449772       3.79419317      -0.00513621       0.01528050      -0.00645417
C        4.94942420       1.42415289       3.93657407       0.00325594      -0.00421503      -0.00742977
C        3.74500560       3.52859778       4.10583640      -0.00710546      -0.01121845       0.01408479
C        1.24501124       7.93784538       3.51835112      -0.00082594      -0.00403919       0.00123286
C       -0.00495927      10.00478557       3.74605881       0.00662242      -0.01154480       0.01387394
C        7.41168334       1.44846124       3.81774064      -0.00703835      -0.00156483      -0.00858523
C        6.19529867       3.55215725       3.87113161       0.00348347       0.00341122       0.00236254
C        4.92915305       5.64483218       3.63278362       0.00530719      -0.00767989      -0.00238709
C        3.65380028       7.93440184       3.35626795      -0.01178151      -0.00105069       0.00538495
C        2.46806493      10.04860171       3.65723311       0.00640084       0.00184709      -0.01094355
C        9.87479732       1.44992299       3.72394951      -0.00042944       0.00340889      -0.00630264
C        8.64814092       3.57701676       3.73353246       0.00679331       0.00512022       0.00676497
C        7.39518601       5.69932782       3.66429890      -0.00409870       0.00126053       0.01053692
C        6.14359285       7.82539604       3.53952680      -0.00571122       0.00699022       0.00257307
C        4.93077555       9.98652492       3.61232235      -0.00297286      -0.00188200       0.00472212
Sc       2.43427088       4.85711610       5.41724688       0.00955521       0.00867843      -0.00297730
O        2.58234676       4.50658802       7.08574662       0.00106899      -0.00442381       0.00012827
