52
Lattice="12.336457 0.0 0.0 -6.168228499999997 10.683685154694365 0.0 0.0 0.0 15.0" Properties=species:S:1:pos:R:3:forces:R:3 energy=-448.2985220762827 free_energy=-448.2985220762827 stress="-0.0008647030179339084 -0.00012381599815566432 -2.928398542731214e-05 -0.00012381599815566432 -0.009680504838744657 3.222090905739464e-06 -2.928398542731214e-05 3.222090905739464e-06 3.5711481767489942e-06" pbc="T T T"
C       -0.05850420       0.07225472       3.64243310       0.00499971       0.00228768       0.00084839
C       -1.29743759       2.21092506       3.84816424      -0.00520449       0.00495639       0.00492663
C       -2.53878018       4.35689081       3.79315476       0.00219466       0.00020738       0.00602411
C       -3.76969127       6.48206972       3.69016592      -0.00033753       0.00259780      -0.00486055
C       -4.99839208       8.60630755       3.59288670      -0.00381535      -0.00275029      -0.00017325
C        2.40970477       0.03836960       3.71954715       0.00335342      -0.00417989      -0.00536341
C        1.17257764       2.07428711       4.23316950      -0.00403967       0.00260083      -0.01064205
C       -0.13408547       4.34763706       4.24840335       0.00259565       0.00141628       0.00087930
C       -1.27677455       6.48762069       3.79187436      -0.00305512       0.00383147      -0.00158745
C       -2.51582951       8.60752835       3.62346619       0.00307383      -0.00008518      -0.00956285
C        4.87395043       0.08110556       3.59450486       0.00148751      -0.00079198      -0.00010640
C        3.63996704       2.18834709       3.95321458       0.00355297      -0.00050239       0.00272617
P        1.55229826       6.43211307       4.19758249      -0.00165954      -0.00627107      -0.00647636
C       -0.05385972       8.65058969       3.58815471       0.00091375      -0.00204947      -0.00112496
C        7.33336386       0.12698874       3.42215577      -0.00538563      -0.00534371       0.00020448
C        6.09714483       2.22511548       3.64564568       0.00115093       0.00275942      -0.00482833
C        4.84241713       4.32128889       3.92573270       0.00353699       0.00352888      -0.00209204
B        3.48425741       6.55405460       3.76760836      -0.00239236      -0.00312289      -0.00002388
C        2.42135221       8.73737631       3.38343995       0.00047726      -0.00425443       0.00438733
C        9.82523132       0.13154165       3.41975556       0.00075530       0.00068982      -0.00418027
C        8.57382598       2.24098590       3.58734124      -0.00569890      -0.00064078      -0.00806578
C        7.32304236       4.35855550       3.70862355      -0.00068786       0.00117998      -0.00522716
C        6.06887740       6.48817074       3.71801856      -0.00208011      -0.00003807      -0.00279796
C        4.88296476       8.65226576       3.44111991      -0.00055827       0.00078559       0.00272121
C       -0.06951067       1.47235240       3.90663746      -0.00641316       0.00308397       0.00029001
C       -1.32151074       3.62523718       3.97155830       0.00418265       0.00260071       0.00653256
C       -2.52533074       5.77919114       3.75753697      -0.00072973       0.00155211       0.00021299
C       -3.75961231       7.90007201       3.63373039      -0.00096868       0.00280170       0.00280636
C       -4.99688957      10.02612476       3.63620981       0.00238919      -0.00269788      -0.00081817
C        2.40811982       1.43071941       3.97029267      -0.00042546      -0.00299170       0.00065448
P        1.26194785       3.61244256       5.03160766      -0.00297376       0.00512614      -0.00416433
C       -0.06346848       5.74309467       4.00516707      -0.00948366       0.00300210       0.00138708
C       -1.27587476       7.90653536       3.66819188       0.00157680       0.00185728      -0.00618645
C       -2.52085089      10.02735311       3.62740857       0.00456208      -0.00197334      -0.00018427
C        4.87259571       1.49770068       3.70170256       0.00435463       0.00094679      -0.00546868
C        3.67650188       3.55976676       4.17119019       0.00491581      -0.00095187       0.00067867
C        1.21499867       8.03109364       3.62739370       0.00123898      -0.00187657       0.00895148
C       -0.06138587      10.07557238       3.49835085      -0.00314889      -0.00410263       0.00186001
C        7.33805245       1.53526747       3.52214261      -0.00462818      -0.00417677       0.00411934
C        6.10059150       3.63548358       3.73757073       0.00026221       0.00220071       0.00746587
C        4.81385757       5.77377253       3.87311704       0.00098514       0.00429338       0.00877079
C        3.63337296       8.00693152       3.41765773       0.00121677      -0.00339094       0.00270783
C        2.41237285      10.13751841       3.32971602      -0.00231966      -0.00311676      -0.00189994
C        9.81836324       1.53507390       3.59284388      -0.00458059       0.00123391       0.00148049
C        8.56611508       3.65548590       3.68740882      -0.00030204      -0.00041255       0.00265759
C        7.31688834       5.78252882       3.71658253      -0.00039605       0.00188966      -0.00067734
C        6.09626089       7.90614409       3.57979811      -0.00456281      -0.00137357       0.00314526
C        4.88503279      10.08038764       3.45531595       0.00468171       0.00265952       0.01033496
Sc       3.30392096       5.01410324       5.80235664       0.00510553       0.00400038      -0.00363686
O        3.95604708       4.04021382       7.15233385       0.01357193      -0.00329222      -0.00024394
O        4.53217933       3.19860447       8.09940438      -0.01173716      -0.00067772       0.00658918
H        4.08605589       3.44924061       8.93394798       0.01044924      -0.00302520      -0.00296991
