50
Lattice="12.336457 0.0 0.0 -6.168228499999997 10.683685154694365 0.0 0.0 0.0 15.0" Properties=species:S:1:pos:R:3:forces:R:3 energy=-442.8953989896855 free_energy=-442.8953989896855 stress="-0.0047458171368603705 -0.0010147915627684106 1.7029879639657123e-06 -0.0010147915627684106 -0.007638740164852646 -3.3588335664252477e-06 1.7029879639657123e-06 -3.3588335664252477e-06 1.7816366305485476e-05" pbc="T T T"
C       -0.02392504      -0.00897128       3.69873257      -0.00418874      -0.00148203      -0.00606009
C       -1.26642184       2.10526851       3.48032203       0.00491055      -0.00434055      -0.00846628
C       -2.50210865       4.25461512       3.37843353       0.00508871       0.00399406      -0.00584480
C       -3.73347253       6.39244698       3.50423547       0.00315197       0.00177641      -0.00175419
C       -4.96652022       8.52705361       3.71448524       0.00160980       0.00179009       0.00036733
C        2.44114178      -0.02420463       3.71871327       0.00285339       0.00209758      -0.01109493
C        1.19736288       2.12457331       3.81102510       0.00250492       0.00560170       0.00849692
C       -0.05474718       4.19129511       3.68608720      -0.00348405      -0.00572770       0.00515684
C       -1.27570892       6.39183247       3.65311262      -0.00065302      -0.00096900       0.00719375
C       -2.49049730       8.52614365       3.66177476      -0.00161083      -0.00416494       0.00622217
C        4.90827907      -0.01378868       3.64274887       0.00491526      -0.00309290      -0.00595730
C        3.68209106       2.12400042       3.78389339      -0.00165478       0.00284020      -0.01634547
P        1.33447982       6.24876751       4.53914793      -0.00224671       0.01415550       0.00728225
C       -0.03083031       8.55179650       3.87674627      -0.00838861       0.00502444      -0.00750602
C        7.37225357       0.00281645       3.63802415       0.00697822       0.00073764      -0.00477327
C        6.14073519       2.11107011       3.45211206      -0.00827383      -0.00215353       0.00217685
C        4.91820226       4.21349614       3.68604745      -0.00450186      -0.00686331      -0.00569069
P        3.61520677       6.29369773       4.76820720      -0.00322058       0.00288292       0.00139647
C        2.45291876       8.64853595       4.17416341      -0.00386325      -0.00215555      -0.00227552
C        9.84792481       0.00787230       3.68582189       0.00106786      -0.00135480      -0.00447265
C        8.60585903       2.11906147       3.37917348      -0.00053217      -0.00040568       0.00517588
C        7.36984556       4.25910075       3.37628448       0.00203912       0.00141973       0.00237631
C        6.14411108       6.39385021       3.71941616       0.00121962       0.00004157       0.00149978
C        4.92507913       8.57085045       4.02983499      -0.00179435      -0.00046144      -0.01266165
C       -0.03908976       1.40377232       3.63289494       0.00364597      -0.00061683       0.00380003
C       -1.28399662       3.51793843       3.43917073      -0.00021140      -0.00379453      -0.00084774
C       -2.50353575       5.68046241       3.47291998       0.00310046       0.00324509       0.00583053
C       -3.72948605       7.81596156       3.61714563      -0.00005500      -0.00240772       0.01135845
C       -4.96035309       9.95134819       3.72176419      -0.00154292       0.00219137      -0.00489263
C        2.44034381       1.39251463       3.80664646       0.00211947       0.00288267      -0.00159323
C        1.13811987       3.50772357       3.97201162       0.00071201       0.00378710      -0.00512517
C       -0.09638706       5.62215771       3.79985736      -0.00147420      -0.00528509      -0.00504651
C       -1.25585881       7.81806988       3.73806997      -0.00518494      -0.00072645       0.00504142
C       -2.49347360       9.94947743       3.67996232       0.00439052      -0.00375662       0.00392610
C        4.91881810       1.40156897       3.60011437      -0.00546879      -0.00294977      -0.00613485
C        3.72682228       3.50744337       3.92422800      -0.00050679      -0.00318480       0.00335659
C        1.21500520       7.93336973       4.18924488      -0.01295570       0.00542363       0.00418882
C       -0.02747510       9.96712280       3.70203052       0.00597133       0.00410951       0.00786457
C        7.37645593       1.40657976       3.44694223      -0.00393662       0.00245268       0.01538617
C        6.14969611       3.52896873       3.42562695      -0.00070469      -0.00258497       0.00574629
C        4.96343256       5.63300205       3.85081837       0.00163564      -0.00567658      -0.00447110
C        3.69605683       7.99055164       4.40531130      -0.00174115      -0.00171217      -0.00530140
C        2.44312040      10.01247083       3.81549876       0.00388301      -0.00056429       0.00481812
C        9.83642358       1.40676043       3.47303982       0.00201642      -0.00104663       0.00325979
C        8.60318608       3.54591606       3.32976220       0.00427731       0.00302919       0.00472802
C        7.37162991       5.68317349       3.49206917       0.00378690       0.00236914       0.00489724
C        6.14099373       7.82413429       3.84383513       0.00330428       0.00274046       0.00935827
C        4.91387317       9.97886955       3.79167115      -0.00332506      -0.00208475      -0.00361371
Sc       2.49391464       4.18614228       5.57302099      -0.00110387      -0.00499647      -0.00550167
O        3.67701175       5.68828401       6.22844595       0.00744116      -0.00003357      -0.00547408
