49
Lattice="12.336457 0.0 0.0 -6.168228499999997 10.683685154694365 0.0 0.0 0.0 15.0" Properties=species:S:1:pos:R:3:forces:R:3 energy=-429.4085008232728 free_energy=-429.4085008232728 stress="-0.0064671658369870495 0.002677317693492358 -1.79532327799887e-05 0.002677317693492358 -0.005262867280876523 -2.20989774012569e-06 -1.79532327799887e-05 -2.20989774012569e-06 1.3735573339627794e-06" pbc="T T T"
C       -0.01258962      -0.02674858       3.83649331       0.00458943       0.00361330       0.01413918
C       -1.23302307       2.12238886       3.88950139       0.00501527       0.00085199      -0.00933975
C       -2.48827563       4.25445398       3.66559189      -0.00644202      -0.01045115       0.00215652
C       -3.72531385       6.38650573       3.56577465      -0.00424696       0.00618197      -0.00163002
C       -4.95992413       8.52008793       3.62302669      -0.00565556      -0.00268113      -0.00919991
C        2.45436652      -0.06964782       3.96212163       0.00072999       0.00286962      -0.00883522
C        1.24141113       2.04225195       4.29860350      -0.00524474      -0.00036528       0.00041657
C       -0.07349358       4.32736779       3.81453873       0.01064962      -0.00937114       0.00770917
C       -1.29051438       6.41434233       3.44339040      -0.00457592      -0.00317426      -0.00802993
C       -2.49942761       8.52865949       3.59471561       0.00268824      -0.01491531       0.00379993
C        4.92685322      -0.04682134       3.84078008      -0.00149208      -0.00505101       0.00152179
C        3.72970218       1.95913572       4.48826429       0.01095811      -0.00272032       0.00780788
C        1.16282637       6.43092126       3.41303320      -0.00943567       0.00334833       0.00331366
C       -0.04061822       8.54430434       3.46376495       0.00755563       0.00890058      -0.00026830
C        7.39103605      -0.01931908       3.67985769      -0.00223785       0.00314356       0.00145476
C        6.17342935       2.09329028       3.98294588       0.00726877       0.00366890       0.00112386
C        4.95774400       4.26783988       3.98629822      -0.00512155      -0.01209947      -0.00649187
S        3.75422953       6.29468075       2.35058523      -0.00494658       0.00043688       0.00459923
C        2.44874824       8.55440111       3.37098800      -0.00286318       0.01073516      -0.00843404
C        9.86228266      -0.01277192       3.67179447       0.00450817       0.00545871       0.00702186
C        8.63395448       2.11375449       3.76971927      -0.00931016      -0.00838757      -0.00052273
C        7.39417994       4.24190376       3.72526396      -0.00449941       0.01463109      -0.00128054
C        6.16533951       6.39244242       3.53529337      -0.00075314      -0.00006126       0.00828740
C        4.92855576       8.53693510       3.44851605      -0.00206509      -0.00650055       0.01075283
C       -0.00603195       1.39680338       4.02022655       0.00495456       0.00611286      -0.00599163
C       -1.25734166       3.54718061       3.79782804       0.00691988      -0.00587022       0.00115751
C       -2.49867281       5.67825081       3.54845000      -0.00864064      -0.00497626      -0.00749989
C       -3.72777807       7.81063514       3.58276880      -0.00513015      -0.00120490      -0.00440933
C       -4.95451132       9.93347254       3.80177296       0.00035936       0.00061152      -0.00972645
C        2.47480469       1.31417432       4.28449032       0.00202801       0.00075581       0.00531027
P        1.41508032       3.76537077       4.48819084       0.00030829       0.00875254      -0.00683693
C       -0.05264449       5.72811012       3.50615597      -0.00575835      -0.00358786       0.00595723
C       -1.27190710       7.83152758       3.46904077       0.01018204      -0.00015851      -0.00125694
C       -2.48256883       9.93039634       3.79311938      -0.00144826      -0.01095658      -0.00954057
C        4.94747301       1.35365885       4.11559028       0.01036406      -0.00185937       0.00062303
P        3.80084817       3.59360699       5.19182763       0.00097630       0.01149915       0.00913751
C        1.20199018       7.82240485       3.37785310       0.00238345      -0.00032239       0.00487990
C       -0.01695088       9.94890981       3.64236487       0.00041758       0.00740603      -0.00603771
C        7.39680075       1.39687256       3.80957811      -0.00394376      -0.00488717       0.00445602
C        6.17708389       3.52063056       3.90675149       0.00296843       0.00434119      -0.01126366
C        4.95681563       5.62888656       3.49601423       0.01146262       0.00217470       0.00478634
C        3.68817558       7.87138555       3.20381654      -0.00551655       0.00001985       0.00379376
C        2.45829469       9.97099062       3.56414187      -0.00029869       0.01029404      -0.00008807
C        9.87119123       1.41015910       3.78081111       0.00031108       0.00445291      -0.01223812
C        8.62728079       3.53751947       3.72084542      -0.01296848      -0.00538322       0.00567292
C        7.38757845       5.66712412       3.62216492      -0.00122385       0.01177693      -0.00718816
C        6.14599027       7.80944506       3.49697090      -0.00441042      -0.00380823       0.00370693
C        4.92598525       9.95479885       3.65125301       0.00461319      -0.00203797       0.01398271
Sc       2.76892868       5.90587613       4.66183001       0.00601697      -0.01120649      -0.00145898
