52
Lattice="12.336457 0.0 0.0 -6.168228499999997 10.683685154694365 0.0 0.0 0.0 15.0" Properties=species:S:1:pos:R:3:forces:R:3 energy=-449.7845717651914 free_energy=-449.7845717651914 stress="-0.005816310979585055 -1.3878874658548566e-05 8.437172385638937e-07 -1.3878874658548566e-05 -0.004443242634451361 5.3354203079711526e-05 8.437172385638937e-07 5.3354203079711526e-05 5.869243668852011e-06" pbc="T T T"
C       -0.00224407       0.01815472       3.52521278       0.00522075      -0.00414334       0.00708783
C       -1.24258472       2.13898082       3.41327888      -0.00100322      -0.00929372       0.01153238
C       -2.47413897       4.28313213       3.38603613       0.00041934      -0.00040382      -0.00108478
C       -3.70252002       6.42372584       3.45637898      -0.00199287       0.00195526       0.00118850
C       -4.93664268       8.56410754       3.57278351       0.00348096       0.00249879       0.00335771
C        2.46603743       0.02297571       3.58862616       0.00010918      -0.00052205       0.00450445
C        1.21082613       2.15895229       3.78593567      -0.00196041       0.00181877      -0.00236135
C       -0.04977979       4.23054860       3.86220874       0.00219879      -0.00067180      -0.00426733
C       -1.26528214       6.42217066       3.73154839      -0.00795053       0.00543418       0.00277863
C       -2.46784742       8.56374803       3.57244324      -0.00708193       0.00960806      -0.01217587
C        4.93387127       0.01800795       3.52869460       0.00068049       0.00195474      -0.00020795
C        3.72112565       2.15908130       3.79194307      -0.00340670       0.00225634       0.00117429
P        1.13392953       6.42419299       5.01985684      -0.00182124      -0.00362652       0.00442214
C       -0.01485712       8.58297886       3.82032859      -0.00606900       0.00056878      -0.00064489
C        7.40090914       0.01177232       3.48507311      -0.00022791      -0.00070786      -0.00569007
C        6.17418160       2.13925712       3.42239423       0.00404211      -0.00562115       0.00786468
C        4.98253970       4.23055341       3.88059701      -0.00075146       0.00592116      -0.00431620
P        3.80183656       6.43050036       5.04289659       0.00305555      -0.00621961      -0.00490116
C        2.46651014       8.62940930       4.00384420       0.00166861      -0.00116957       0.01110194
C        9.86796457       0.01143640       3.48276796      -0.00699495       0.00218501       0.00522080
C        8.63373480       2.14178715       3.29489416       0.00386296       0.00458195      -0.00327450
C        7.40585003       4.28343998       3.39550473      -0.00547949      -0.00732773      -0.00972211
C        6.19740332       6.42215486       3.74441550       0.01273432       0.00425129       0.00621564
C        4.94730506       8.58327188       3.82713216       0.00538495       0.00766526      -0.00487909
C       -0.01705111       1.43378618       3.53292929       0.00196430      -0.00623614       0.00548349
C       -1.25898025       3.55473895       3.48425875       0.00037149      -0.00695507       0.00029484
C       -2.47790790       5.70921859       3.48054717      -0.00312432       0.00272072      -0.00579896
C       -3.70228682       7.85131164       3.52032952      -0.00228244       0.00385500       0.00907746
C       -4.93443741       9.98960050       3.55973229       0.00477537      -0.00172072      -0.00613554
C        2.46622466       1.43831038       3.73946790      -0.00455475      -0.00096618       0.01165717
C        1.11415535       3.50540016       4.11250088       0.00415634       0.00338411       0.00720097
C       -0.11591946       5.66372750       4.05967507      -0.00404371       0.00197164      -0.00416101
C       -1.24357351       7.85384423       3.72346627      -0.01181436       0.00704146       0.00285208
C       -2.47024169       9.98915428       3.56045917      -0.00060118       0.00701348       0.00082050
C        4.94872268       1.43372795       3.53990202       0.00054530       0.00003220       0.00672989
C        3.81688913       3.50491692       4.12288994       0.00346256       0.00201042       0.00334690
C        1.21314560       7.96153682       4.18436360      -0.00328123       0.00032858       0.00433932
C       -0.00343027       9.98987938       3.57753238      -0.00124519       0.00059169      -0.00304517
C        7.40513027       1.42633161       3.34861910       0.00758999       0.00092907       0.00050339
C        6.19107658       3.55495198       3.49846679      -0.00464812      -0.00624751       0.00205509
C        5.05009345       5.66369807       4.08133323       0.00624442       0.00850503      -0.00999189
C        3.71956274       7.96282880       4.19421202       0.00822453       0.00098571      -0.00142429
C        2.46641388       9.99856532       3.61403422      -0.00403476      -0.00488063      -0.00815470
C        9.86264706       1.42614014       3.34556218      -0.00215984      -0.00176554      -0.00971108
C        8.63375543       3.57131098       3.30274343      -0.00037687       0.00166081       0.00297403
C        7.40938327       5.70949518       3.48862645       0.00327992      -0.00557341      -0.00700568
C        6.17615148       7.85417689       3.73062946       0.00703786       0.00552894       0.00148102
C        4.93560131       9.98939138       3.57731549      -0.00097731       0.00647501      -0.00511615
Sc       2.46353243       4.21865568       5.71304177      -0.00078290      -0.01295772      -0.01382084
O        2.48986877       4.18635074       7.51209227      -0.00059916      -0.00619277      -0.00053414
O        2.36974315       4.19959543       8.90746203      -0.00247068      -0.00313975       0.00803587
H        3.29154628       4.10440497       9.21828433       0.00122644      -0.00739082      -0.00487627
