52
Lattice="12.336457 0.0 0.0 -6.168228499999997 10.683685154694365 0.0 0.0 0.0 15.0" Properties=species:S:1:pos:R:3:forces:R:3 energy=-452.2152783561384 free_energy=-452.2152783561384 stress="-0.005319449920141988 0.0017419286558346299 -1.2661931667609754e-05 0.0017419286558346299 -0.0016474118067228696 3.273050090775134e-06 -1.2661931667609754e-05 3.273050090775134e-06 -4.159879135243998e-05" pbc="T T T"
C       -0.00857093       0.00225535       3.77785199       0.00379582      -0.00404779      -0.00338772
C       -1.24014681       2.13191345       3.88799770      -0.00297407      -0.00377458       0.00583529
C       -2.46283644       4.26894509       3.86891957      -0.00800401       0.00195869       0.00131953
C       -3.70641622       6.40572861       3.74736987       0.00036067       0.00651259      -0.00275595
C       -4.94389285       8.54928370       3.66925166      -0.00266874      -0.00507288       0.00250325
C        2.45687297       0.01017028       3.79703579      -0.00105177      -0.00674636       0.00902140
C        1.22583630       2.17470149       3.93076371      -0.00289952       0.00027401       0.00481099
C        0.01108550       4.28582694       4.03061775      -0.00003489       0.00108410      -0.00142319
C       -1.25515239       6.42061534       3.92170975       0.00083891       0.00300276      -0.00098014
C       -2.47788119       8.55022305       3.80608128      -0.00358061       0.00210627      -0.00120214
C        4.93084636       0.00040017       3.80831083      -0.00160136       0.00085955      -0.00655845
C        3.70684419       2.14580952       3.74317238      -0.00493523       0.00032694      -0.00079034
O        1.13199698       6.46999534       4.06169489       0.00272455       0.00138978       0.00381865
C       -0.01841212       8.53967932       3.84273075      -0.00385111      -0.00145103      -0.01398442
C        7.40242983      -0.02078803       3.82114682      -0.00654855       0.00556653      -0.00144838
C        6.18608551       2.11558341       3.75400260       0.00453596      -0.01186827      -0.00279026
C        4.96418370       4.21719487       3.51490063       0.00880415      -0.00218432      -0.00278910
P        3.64415876       6.36355162       2.40911851      -0.00112806      -0.00974491      -0.00600421
C        2.43347766       8.51618779       3.66630385      -0.00198471       0.01011466       0.00216037
C        9.86131884      -0.01798046       3.77681609      -0.00137006       0.00748551      -0.00134867
C        8.64056044       2.12292146       3.82552421       0.00393789      -0.00530069       0.00351920
C        7.42111240       4.26044325       3.69923135       0.00459900      -0.00646224      -0.00652908
C        6.19278669       6.40761611       3.46219697       0.00280779      -0.00051993       0.00111613
C        4.92505365       8.54297173       3.51512380       0.00232957       0.00902626      -0.00689231
C       -0.01244361       1.42384682       3.87508322      -0.00164649      -0.00650888      -0.00583819
C       -1.24375679       3.55664909       3.93595609      -0.00592064       0.00042034      -0.00535458
C       -2.47933362       5.69265069       3.85277794      -0.00179872       0.00602834       0.00344385
C       -3.71299960       7.83539126       3.74024849      -0.00124286       0.00106463       0.00390464
C       -4.94281391       9.97399382       3.75161016       0.00361817      -0.01110450      -0.00685632
C        2.46039470       1.43088126       3.83484987      -0.00698776      -0.00484997      -0.00591800
C        1.20400105       3.56294743       4.07358381       0.00544294       0.00380171      -0.00448273
C       -0.06096880       5.71760186       4.03659833       0.00177764       0.00119178      -0.00394008
C       -1.25696489       7.84102002       3.86363754      -0.00453735       0.00344916       0.00643543
C       -2.47804519       9.97759564       3.79917549       0.00057808      -0.00016911       0.00641708
C        4.94789818       1.41555374       3.76635106      -0.00278679       0.00001104      -0.00278620
C        3.76167590       3.52918626       3.63569030       0.00421467       0.00384629       0.00859925
C        1.19031932       7.85478453       3.81880579      -0.00044179       0.00138305       0.00775635
C       -0.00504205       9.96675821       3.82374792      -0.00476034      -0.00081475      -0.00420923
C        7.41340185       1.40401101       3.80918334       0.00604317      -0.00375395       0.00060504
C        6.20993120       3.52840897       3.65484943       0.00901225      -0.01233990       0.00083633
C        4.99217469       5.65527741       3.28598433       0.00035045       0.00051430      -0.00362158
C        3.67566556       7.85637897       3.35649762       0.00329464       0.00410799      -0.00305299
C        2.45648632       9.94653007       3.77383740      -0.00376102       0.01186776       0.01461809
C        9.86491890       1.40740558       3.83996541       0.00012213       0.00282079       0.00365270
C        8.64443733       3.55077871       3.80604224       0.00038515      -0.00788866      -0.01073415
C        7.41177960       5.69039083       3.64284114       0.00015561      -0.00103571      -0.00026190
C        6.16696250       7.83301285       3.51796135      -0.00176671       0.00087510       0.00080102
C        4.92857785       9.96300893       3.70332401      -0.00219413       0.01109671      -0.00194070
Sc       2.63891230       5.09313149       4.60097305       0.00564375       0.00664059       0.00864628
O        2.83713478       5.03184634       6.42680878      -0.00323063       0.00705899       0.00822299
O        2.60899088       5.04247853       7.81027929       0.00523205      -0.00696127       0.00124056
H        3.51235360       5.06908854       8.18553127       0.00310288      -0.00328654       0.00859659
