50
Lattice="12.336457 0.0 0.0 -6.168228499999997 10.683685154694365 0.0 0.0 0.0 15.0" Properties=species:S:1:pos:R:3:forces:R:3 energy=-437.9554565054904 free_energy=-437.9554565054904 stress="-0.0038231082288043305 -0.0030079395364246407 -7.448578279452519e-06 -0.0030079395364246407 -0.012418080398245332 -1.6829106907688652e-05 -7.448578279452519e-06 -1.6829106907688652e-05 1.7619073817656168e-06" pbc="T T T"
C        0.00606353      -0.04386120       3.64150211       0.00349549      -0.00336521       0.00196809
C       -1.24360721       2.09584439       3.89888394      -0.00130582      -0.00388654      -0.00127518
C       -2.48350865       4.24045831       3.90026608       0.00053900      -0.00590460       0.00624199
C       -3.68278355       6.37451426       3.73820327      -0.00367205       0.00696762       0.00253155
C       -4.90843538       8.50393790       3.59793635      -0.00570521       0.00371261       0.01170556
C        2.48315164      -0.09520414       3.62779685       0.00204683      -0.00207466       0.00776403
C        1.25150890       1.98647211       4.04339288      -0.00475382       0.00104467      -0.00094417
C       -0.10309956       4.21725022       4.45805764       0.00188606      -0.00229988      -0.00600154
C       -1.22135865       6.37176523       4.05346850      -0.00311082      -0.01244667      -0.01006737
C       -2.43075642       8.48637111       3.73373126       0.00053812       0.00231656      -0.00777584
C        4.94370598      -0.04441995       3.57683287      -0.00053182       0.00863477      -0.00047276
C        3.66601728       2.01268840       3.42570828      -0.00223966      -0.01096847       0.00500541
P        1.55446577       6.33050823       4.55759565       0.01231602       0.00125539       0.00784545
C        0.02531971       8.53907298       3.87250908      -0.00347642       0.00723893      -0.00012787
C        7.39853476       0.00606039       3.57490139      -0.00194539       0.00303844      -0.00075237
C        6.14775331       2.12721324       3.45388959       0.00198788      -0.00180997       0.00260741
C        4.95912876       4.29977101       3.39887705       0.00538949       0.00376287       0.00026813
C        3.68553478       6.44029018       3.67834676      -0.00297297      -0.00077036       0.00399358
C        2.49024760       8.60172306       3.70517472      -0.00359330      -0.00220450      -0.00325354
C        9.88122775       0.00706195       3.56294433      -0.00356387       0.00118609       0.00717908
C        8.62932436       2.12769291       3.62767677      -0.00488439       0.00158643      -0.00366686
C        7.39639115       4.25689478       3.61157791       0.00607281      -0.00476793       0.00364919
C        6.19642338       6.41335349       3.56073136       0.00960484      -0.00273760      -0.01089436
C        4.95368190       8.54039325       3.52082921       0.00394215       0.00100084      -0.00225238
C       -0.00617797       1.36384115       3.86415108      -0.00015565      -0.00376377      -0.00359794
C       -1.27508766       3.50267973       4.09551015       0.00085044      -0.00675475       0.00320546
C       -2.46223701       5.66346064       3.90156184      -0.00731845      -0.00547128      -0.00195522
C       -3.67434976       7.79008426       3.68985941      -0.00495992       0.00817734      -0.00653565
C       -4.92729582       9.91160046       3.61543083       0.00206121       0.00033058       0.00693905
C        2.46570172       1.31120032       3.70287742      -0.00185299      -0.00474300       0.01308780
P        1.35412795       3.39600174       5.05988648      -0.00316238       0.01155112      -0.00290368
C       -0.05622453       5.61627202       4.35329255       0.00603265      -0.00564093      -0.00820172
C       -1.19947501       7.79300185       3.90045179      -0.00196414      -0.00603008      -0.00691322
C       -2.44186825       9.90255083       3.62548579       0.00344489       0.00497185       0.00288835
C        4.92565058       1.38841361       3.45105257       0.00155077       0.00061807       0.00037394
S        3.44217063       3.63213250       2.86279674      -0.00958810      -0.00731728       0.00168380
C        1.29355664       7.94327149       4.00822321      -0.00528986       0.00242418       0.00357336
C        0.01071961       9.95597528       3.65848076      -0.00292188       0.00963996      -0.00941197
C        7.38794296       1.42700349       3.52875043      -0.00149449       0.00059101      -0.00280360
C        6.15913532       3.54562101       3.47519973       0.00491365      -0.00228906       0.00335859
C        4.92748917       5.73256059       3.51704587       0.00641958       0.00312849      -0.00747848
C        3.71140651       7.84540158       3.61689683       0.00217017       0.00210592       0.00053459
C        2.47619352      10.00432898       3.57103037      -0.00378137      -0.00102461      -0.00379017
C        9.87054115       1.41656823       3.67445403      -0.00597008       0.00181705       0.00224436
C        8.62680381       3.54292001       3.70506538       0.00244076      -0.00203693       0.00083349
C        7.40908645       5.67913184       3.63539543       0.00749600      -0.00359968      -0.00125118
C        6.18656871       7.82129679       3.54763780       0.00227862      -0.00169105       0.00049145
C        4.94309811       9.95792509       3.55314178       0.00157893       0.00200198      -0.00295322
Sc       3.48717112       4.95033813       5.25606641      -0.00659576       0.01137661       0.00350808
O        2.10778930       6.17668787       6.02660121       0.00775423       0.00311943       0.00179853
