50
Lattice="12.336457 0.0 0.0 -6.168228499999997 10.683685154694365 0.0 0.0 0.0 15.0" Properties=species:S:1:pos:R:3:forces:R:3 energy=-443.07539040972256 free_energy=-443.07539040972256 stress="-0.005524856555026534 0.001703327458877907 -4.160230001703897e-06 0.001703327458877907 -0.0014128023627127107 1.0890362102079971e-06 -4.160230001703897e-06 1.0890362102079971e-06 -6.09373177965131e-06" pbc="T T T"
C       -0.01130871      -0.00306525       3.73496823       0.00069655       0.00763022       0.00696136
C       -1.24262870       2.12603285       3.84694597      -0.00397546       0.00154229       0.00228996
C       -2.46390711       4.26165163       3.83141610       0.00675252       0.01040383      -0.00697133
C       -3.70652729       6.40021558       3.70898475       0.00436007      -0.00736474      -0.00121151
C       -4.94481407       8.54499344       3.62803648      -0.00064644       0.00016704      -0.00459549
C        2.45520973       0.00920083       3.76454626       0.00342660      -0.00061625       0.00620565
C        1.22090134       2.16955005       3.92446848      -0.00022937      -0.00302669       0.00625186
C        0.00841989       4.27869549       4.03126700      -0.00263419      -0.00997529      -0.00387770
C       -1.25830240       6.41531601       3.91737676       0.00186414       0.00311526      -0.00409874
C       -2.47971932       8.54605365       3.77589773      -0.00020855      -0.00278206       0.00505025
C        4.92922160      -0.00379579       3.77720450       0.00445200       0.00845934       0.00139998
C        3.70641781       2.14558607       3.74829243      -0.01318533       0.00223152       0.00202834
O        1.11947575       6.46703191       4.07233937      -0.01470479       0.00677187      -0.00551245
C       -0.02171019       8.53526574       3.84383878       0.00255813      -0.00301831      -0.00717036
C        7.40019360      -0.02697203       3.79499567      -0.00222006      -0.00796342       0.00265276
C        6.18624245       2.10884618       3.71861806       0.00016577      -0.00166409       0.00060564
C        4.96223520       4.21286196       3.51217806      -0.00373594      -0.00266816       0.00161807
P        3.60129631       6.33419241       2.46866274       0.00334806      -0.01752650      -0.00773491
C        2.43032329       8.50854216       3.68172148       0.00745139       0.01286019      -0.00243387
C        9.85855641      -0.02521827       3.74471288       0.00426774       0.00103514      -0.00069186
C        8.63954923       2.11542331       3.77899822       0.00003365       0.00309942       0.00400060
C        7.42135418       4.25306100       3.65566755       0.00008044       0.00101823      -0.01139744
C        6.19307379       6.40255312       3.42507756       0.00457197       0.00389617       0.00641041
C        4.92377878       8.53653559       3.48987130      -0.00691727      -0.00217463      -0.00248959
C       -0.01744991       1.41751500       3.83965863      -0.00097141       0.00734947       0.00961245
C       -1.24594666       3.54983701       3.90439267      -0.00374978      -0.00182273       0.00207659
C       -2.48035921       5.68602372       3.82583642       0.00899680       0.00590222      -0.00649624
C       -3.71392535       7.83082646       3.70250828      -0.00145486      -0.00844434       0.00056149
C       -4.94434527       9.96991073       3.70925906       0.00082069       0.00334116       0.00360942
C        2.45913279       1.42813786       3.82501680      -0.00508306      -0.00273993       0.00902527
C        1.18417847       3.54539591       4.10684553      -0.00563410      -0.00714778      -0.00112055
C       -0.06355382       5.71640117       4.04927097      -0.00503838      -0.00507213      -0.00316350
C       -1.26002350       7.83637268       3.85412523       0.00143801      -0.00032380       0.00315300
C       -2.47993130       9.97396667       3.76603947       0.00658870       0.00257526       0.00903465
C        4.94823213       1.41113102       3.74168244      -0.00643143       0.00976160       0.00391866
C        3.77278232       3.52823080       3.70090287      -0.00550629      -0.00084848       0.00454827
C        1.18543024       7.84596734       3.84698450       0.00557921       0.00764437      -0.00473088
C       -0.00701918       9.96158332       3.80214953      -0.00105842      -0.00602225      -0.00175722
C        7.41298422       1.39690014       3.76847229       0.00030774      -0.00750644       0.00367878
C        6.21072503       3.52067198       3.62450382      -0.00014270      -0.00286360      -0.00184090
C        4.99496333       5.65006941       3.27081516       0.00685754      -0.00091916      -0.00186332
C        3.67187308       7.85139639       3.35975316      -0.00705790      -0.00657556      -0.00441175
C        2.45321102       9.93814267       3.76201853       0.00477932       0.00704115       0.00281341
C        9.86262759       1.40008796       3.79636001      -0.00084948      -0.00049831       0.00400236
C        8.64397966       3.54294223       3.75878447       0.00509732       0.00991190      -0.00778593
C        7.41320912       5.68415828       3.59977927       0.00224624      -0.00065750       0.00096905
C        6.16615076       7.82833135       3.48254358      -0.00265794       0.00375371      -0.00230710
C        4.92601583       9.95718184       3.66791191       0.00221011       0.00036735      -0.00426869
Sc       2.63832502       5.09974906       4.87785646      -0.00305357      -0.00229238      -0.00863578
O        2.92359080       5.37296478       6.57602082       0.00819600      -0.00736415       0.00408883
