49
Lattice="12.336457 0.0 0.0 -6.168228499999997 10.683685154694365 0.0 0.0 0.0 15.0" Properties=species:S:1:pos:R:3:forces:R:3 energy=-429.78645355686746 free_energy=-429.78645355686746 stress="-0.004788364332403118 -0.0022833437164774305 3.092370656712566e-06 -0.0022833437164774305 -0.008910337279745576 -1.0261945704773437e-05 3.092370656712566e-06 -1.0261945704773437e-05 -3.5303114953173343e-06" pbc="T T T"
C       -0.02443089      -0.00925567       3.69284561       0.00342667       0.00643689       0.00709861
C       -1.27948087       2.12201855       3.94957829      -0.00122068      -0.00034540       0.00623323
C       -2.52061085       4.26994096       3.90852191       0.00067646       0.00268375       0.00472992
C       -3.70901876       6.41056252       3.68416556       0.00259875       0.00775961       0.00096340
C       -4.93494745       8.54802550       3.57672733      -0.00516637      -0.01093026      -0.00103997
C        2.45401509      -0.04092437       3.69313597      -0.00312572      -0.01043721       0.00118040
C        1.21622989       2.02739397       4.11560311      -0.00154316       0.00307571      -0.00820425
C       -0.17557895       4.25700372       4.55849987       0.01033714       0.00034774       0.00753030
C       -1.28948871       6.41884558       4.13089075      -0.00888146       0.00296442      -0.00701750
C       -2.46925133       8.53269668       3.76898654       0.00318189      -0.00448141       0.00013461
C        4.91737444      -0.00641025       3.63321209       0.00067797       0.00072904       0.01145281
C        3.64567874       2.07265936       3.47044156       0.00677448      -0.00141880      -0.01242379
P        1.45600476       6.34589651       4.74893700      -0.00284732      -0.00118572      -0.00171227
C       -0.01388349       8.56444049       3.93775678      -0.00792323      -0.00342911      -0.00322673
C        7.37487681       0.01685722       3.61939865      -0.00507346      -0.00354475      -0.00095462
C        6.13128166       2.14557945       3.41676013       0.00527074       0.00600769       0.00181856
C        4.97101073       4.31562778       3.10667702      -0.01469251       0.00740927      -0.00050244
C        3.73408091       6.45104937       3.46532056      -0.00060043      -0.00869434       0.00583865
C        2.45884754       8.58912662       3.72747365       0.00843704       0.00479775      -0.00011481
C        9.84905630       0.01807582       3.60817166      -0.00027953       0.00374895       0.00245356
C        8.60366248       2.14651703       3.63238601       0.00497446      -0.00788885      -0.00273280
C        7.38385796       4.28312333       3.49674423      -0.00082139      -0.00469626      -0.00456578
C        6.20014113       6.44766235       3.35806387       0.00614801      -0.00389780      -0.00406095
C        4.92748227       8.56570226       3.48099123      -0.00118543       0.00824264       0.00181654
C       -0.04029132       1.39662462       3.93203330      -0.00086417       0.00563913       0.00272703
C       -1.32087690       3.53265984       4.14789201      -0.00044171      -0.00276117       0.01872487
C       -2.50524678       5.69714187       3.91234668      -0.00100827       0.00655432      -0.01565573
C       -3.70473010       7.83127240       3.67213894       0.00102589       0.00269564       0.00216881
C       -4.95433065       9.95719937       3.65558518      -0.00467461      -0.01192786       0.00896211
C        2.43786424       1.36925661       3.77864241       0.00685576      -0.00782215       0.00873875
P        1.33144807       3.49108982       5.06246020      -0.00571787       0.00015110      -0.00170370
C       -0.14082207       5.67129824       4.50072508      -0.00107756       0.00117494      -0.00372801
C       -1.24597799       7.83437718       3.96159935      -0.00338429      -0.00473787       0.00064375
C       -2.47420411       9.95095759       3.68321177       0.00122860      -0.00614981      -0.00412785
C        4.90382159       1.42321574       3.47964182       0.00843321       0.00454980       0.00640872
S        3.45897800       3.56865364       2.57662373      -0.00408570      -0.00076164      -0.01035709
C        1.25117039       7.93041277       4.07059242      -0.00025936       0.00955586      -0.01163368
C       -0.01803267       9.97869293       3.71303197      -0.00695421      -0.00432885       0.00431947
C        7.36695831       1.44002342       3.53636570       0.00386056      -0.00378926      -0.00268226
C        6.15431581       3.56564405       3.33437906      -0.01008095       0.00564407      -0.00515668
C        4.94700019       5.75800545       3.22605698       0.00777245       0.00104659      -0.00433256
C        3.68879219       7.85294647       3.54920663       0.00376878      -0.00757027      -0.00300089
C        2.44730007      10.00057453       3.61747695       0.00000180       0.00370671      -0.00068164
C        9.84009036       1.43301220       3.71430150       0.00180822      -0.00313461       0.00850796
C        8.60295658       3.56745351       3.67059307       0.00312876      -0.00523820       0.00026514
C        7.40031014       5.70974882       3.49465247       0.00745250      -0.00248804       0.00445987
C        6.16838551       7.85715385       3.45415151      -0.00682622      -0.00243124      -0.00204324
C        4.91563004       9.98134696       3.58089081       0.00293460       0.01380686       0.00048623
Sc       3.45997504       4.88757247       4.84883063      -0.00203914       0.01536242      -0.00600404
