52
Lattice="12.336457 0.0 0.0 -6.168228499999997 10.683685154694365 0.0 0.0 0.0 15.0" Properties=species:S:1:pos:R:3:forces:R:3 energy=-452.37967323247324 free_energy=-452.37967323247324 stress="-0.00460338415464136 -0.0021018018437006496 1.7545127106566553e-05 -0.0021018018437006496 -0.0031073130265597206 -2.8585542661222268e-05 1.7545127106566553e-05 -2.8585542661222268e-05 -7.538601588039069e-06" pbc="T T T"
C       -0.00143223      -0.00670552       3.78359772       0.00346794      -0.00002727       0.00206356
C       -1.24562173       2.11759398       3.78630541      -0.00201804      -0.00655911       0.00445816
C       -2.46931562       4.25292698       3.79068013       0.00190140      -0.00242640       0.00436006
C       -3.68865948       6.39751117       3.78956386      -0.00699059       0.00708225       0.00447937
C       -4.92646635       8.54239708       3.80674498       0.00265678       0.01061663      -0.00374158
C        2.46866514      -0.02279403       3.66703146       0.00345690      -0.00237098       0.00937131
C        1.22553381       2.13025527       3.65305741      -0.00162798       0.00237073       0.00470472
C        0.01725125       4.23873106       3.84505697      -0.00369091      -0.00135488       0.00002660
C       -1.24920574       6.40432778       3.85134025      -0.00097455      -0.00210695      -0.00557206
C       -2.46537756       8.53726914       3.77128074       0.00441462      -0.00166793      -0.00731507
C        4.93884912      -0.01762614       3.63064375      -0.00740256      -0.00005729       0.00215368
C        3.68516952       2.06595465       3.28434243       0.00220365       0.00003478       0.00388155
C        1.16563443       6.41894192       4.10246188       0.00117930       0.00192672      -0.00120076
C        0.00050688       8.53129670       3.84887195      -0.00187940      -0.00201640      -0.01071365
C        7.40381569      -0.01780567       3.75439772      -0.00331910      -0.01059110      -0.00242890
C        6.16081490       2.13409022       3.54880167       0.00997979      -0.00677000      -0.00232740
C        4.93141736       4.33903895       3.50307968      -0.01154719       0.00495210       0.00175969
O        3.81907161       6.45233663       3.93672670      -0.00713643      -0.00477381      -0.00212597
C        2.49305453       8.51133264       3.93881860       0.00688015       0.00045301      -0.00489929
C        9.86305437      -0.02134332       3.82613955       0.00398127       0.01137195      -0.00572013
C        8.62638809       2.12071488       3.73699656      -0.00083946      -0.00282900       0.00334254
C        7.39638187       4.26463434       3.69665452      -0.00145954      -0.01200494       0.00841688
C        6.20805218       6.42770895       3.77293885      -0.00110497      -0.00000104      -0.00729096
C        4.95122395       8.54294647       3.87647431       0.00299788      -0.00006954       0.00341507
C       -0.01317137       1.41106247       3.74916555      -0.00157819      -0.00431020      -0.00566167
C       -1.24329990       3.53578342       3.80550603       0.00013242      -0.00757334      -0.00722748
C       -2.46367129       5.68236252       3.80674854      -0.00515839       0.00305690      -0.00180295
C       -3.69087571       7.82370815       3.79279037       0.00014937       0.00963702      -0.00233095
C       -4.93106626       9.96328988       3.76702670       0.00449987       0.00454738      -0.00607353
C        2.45975142       1.38753881       3.52773455       0.00092218      -0.00188115       0.00815926
C        1.21885891       3.52438323       3.73920057      -0.00110429       0.00363217       0.00611394
C        0.00219624       5.70021698       3.93499091       0.00024152      -0.00079680      -0.00207440
C       -1.23411548       7.82341508       3.82484368       0.00190452      -0.00305927       0.00008688
C       -2.46215434       9.95518272       3.68572183      -0.00083000      -0.00369356       0.00553596
C        4.93725236       1.40307471       3.47054112       0.00359734       0.00026512       0.00754670
P        3.53722252       3.68019114       2.59606397       0.00512492       0.01174652      -0.00824871
C        1.23322810       7.78810611       3.96982524       0.00194567       0.00331700       0.01119705
C        0.00193161       9.95221864       3.74402995      -0.01194396      -0.00245171       0.00801776
C        7.39187113       1.41098252       3.67934254       0.00680608      -0.01293090      -0.00175255
C        6.16093161       3.56388759       3.57381669      -0.00452604      -0.00616140      -0.00195022
C        5.00851159       5.74020508       3.70338045      -0.00505487       0.00395910       0.00018153
C        3.73926720       7.85608268       3.94766018       0.00313346      -0.00554706      -0.00235191
C        2.47012241       9.94196014       3.84395115       0.00670223       0.00249017      -0.00775995
C        9.85554200       1.40529889       3.78821753      -0.00297383       0.00788552      -0.01007303
C        8.63052572       3.54758832       3.73787302       0.00313234      -0.00624669       0.01592923
C        7.42342965       5.68594369       3.75297016      -0.00298611      -0.00715923       0.00173094
C        6.19083731       7.84205441       3.83507206       0.00526271       0.00382544      -0.00849030
C        4.93352936       9.96462760       3.83869844       0.00171791       0.00460985       0.00312826
Sc       2.57967406       4.95246860       4.76114640       0.00205265       0.00320195      -0.00562611
O        2.55300315       4.97019528       6.58643361       0.00917167       0.00638962      -0.00073600
O        2.37454643       4.99769292       7.97206999      -0.00573209       0.00554683      -0.00046156
H        3.28735356       4.95458326       8.32235310      -0.00773801       0.00451921       0.00589641
