49
Lattice="12.336457 0.0 0.0 -6.168228499999997 10.683685154694365 0.0 0.0 0.0 15.0" Properties=species:S:1:pos:R:3:forces:R:3 energy=-434.58991947506127 free_energy=-434.58991947506127 stress="-0.006376584170518925 -0.0001523166265680515 4.1692849578994656e-06 -0.0001523166265680515 -0.005702157414085643 1.3342076730224009e-05 4.1692849578994656e-06 1.3342076730224009e-05 5.655496487325373e-06" pbc="T T T"
C       -0.00145477       0.01894064       3.60528656      -0.00071797      -0.00242729      -0.00085124
C       -1.24065304       2.13867133       3.42447528      -0.00135208      -0.00267356      -0.00158864
C       -2.47539202       4.28807335       3.37698136       0.00182368      -0.00290379      -0.00154714
C       -3.70232397       6.42745074       3.49376674      -0.00450641      -0.00473981       0.00683955
C       -4.93645558       8.56355822       3.65933347       0.00209432       0.00513249      -0.00338222
C        2.46708631       0.01261657       3.62715063      -0.00076687      -0.00451040      -0.00467072
C        1.22567268       2.15774029       3.67687392       0.00156730       0.00655561       0.00143036
C       -0.03457720       4.24224276       3.67841782      -0.00052949       0.00533515      -0.00080866
C       -1.26309963       6.42621880       3.71556056       0.00613816       0.00456168       0.00247448
C       -2.46570289       8.56345673       3.65365889       0.00022607      -0.00412651      -0.00702406
C        4.93505026       0.01933809       3.61056572      -0.00500756       0.00313371      -0.00173487
C        3.70689302       2.16007752       3.69106423       0.00280897      -0.00219890       0.00613035
P        1.20275906       6.32552559       4.87465407       0.00470965      -0.00668191       0.00854817
C       -0.01332958       8.58645814       3.92561012      -0.00116982       0.00432286       0.00317211
C        7.40100831       0.02266269       3.61950271      -0.00068509      -0.00005959       0.00032091
C        6.17212996       2.14088561       3.44381279       0.00491772       0.00313056      -0.00206504
C        4.96681339       4.24643053       3.72613433      -0.00349366       0.00159755       0.00193291
P        3.75968791       6.34537851       4.97013764      -0.00276958       0.00367696      -0.00495108
C        2.46945340       8.64613851       4.14936195      -0.00392765      -0.00513687      -0.00971803
C        9.86856380       0.02239796       3.61798366       0.00940057       0.00875101      -0.00152136
C        8.63399686       2.14525814       3.36695169      -0.00679229       0.00027967      -0.00295960
C        7.40519709       4.28880832       3.39409722       0.00264067      -0.00247513      -0.00003023
C        6.19668711       6.42667104       3.74787546      -0.00252179       0.00145713       0.00453903
C        4.94862003       8.58928429       3.94327578       0.00071209      -0.00601519      -0.00042379
C       -0.01224247       1.43388096       3.53694646      -0.00062898      -0.00267442      -0.00072818
C       -1.25535290       3.55807787       3.41618558       0.00132144      -0.00369122       0.00371737
C       -2.47845644       5.71332648       3.48378094       0.00164937       0.00114218      -0.00260923
C       -3.70119156       7.85219876       3.59151365      -0.00216512      -0.00304808       0.00365188
C       -4.93465839       9.98683469       3.63532021      -0.00120516       0.00215744      -0.00605237
C        2.46681779       1.43081155       3.68069617       0.00083259      -0.00377028       0.00979752
C        1.18144257       3.54895616       3.80474433      -0.00054351       0.00699945       0.00406224
C       -0.09897707       5.65601891       3.92575231      -0.00020082       0.00196332       0.00041436
C       -1.23990959       7.85450621       3.78483581       0.00257455       0.00273281       0.00533064
C       -2.46764217       9.98681876       3.63631403      -0.00215933      -0.00404408      -0.00758093
C        4.94455040       1.43512607       3.55216322       0.00508152       0.00417724      -0.00001953
C        3.75020508       3.55059611       3.83341348      -0.00610390      -0.00065814       0.00090060
C        1.21614822       7.96908291       4.28293186       0.00150055      -0.00219643      -0.00411674
C       -0.00286897       9.99709048       3.70064000      -0.00585294       0.00504602      -0.00005144
C        7.40536696       1.43158875       3.43748606      -0.00208890      -0.00320898       0.00357879
C        6.18548331       3.56064631       3.44866324       0.00267776       0.00082322       0.00209383
C        5.03583629       5.65857858       3.98551758       0.00358649      -0.00225696       0.00259051
C        3.72229295       7.97308781       4.30953803      -0.00296296       0.00746893       0.00023234
C        2.46712074      10.01716000       3.77159346       0.00740087       0.00709569      -0.00288290
C        9.86292173       1.43037332       3.43056084      -0.00390932       0.00628534      -0.00333593
C        8.63298035       3.57506884       3.33155670       0.00137049      -0.00224666      -0.00359892
C        7.40961509       5.71399456       3.49933065      -0.00420808      -0.00340945       0.00373779
C        6.17553772       7.85625135       3.80482025       0.00300652       0.00149588       0.00360940
C        4.93662960       9.99777425       3.70195511       0.00387728      -0.00310065       0.00307377
Sc       2.44911356       4.18641511       5.37592698      -0.00564939      -0.01706760      -0.00792603
