52
Lattice="12.336457 0.0 0.0 -6.168228499999997 10.683685154694365 0.0 0.0 0.0 15.0" Properties=species:S:1:pos:R:3:forces:R:3 energy=-445.0773914127542 free_energy=-445.0773914127542 stress="-0.00503374896929155 0.0005194417390696574 -1.193974339176448e-05 0.0005194417390696574 -0.004660977779938132 -6.036337458084037e-05 -1.193974339176448e-05 -6.036337458084037e-05 1.2564889800892473e-05" pbc="T T T"
C       -0.00302949      -0.05909559       3.80152488       0.00040706       0.00156341       0.00007640
C       -1.23853791       2.08564928       4.04203246       0.00226748       0.00477797       0.00771411
C       -2.46110631       4.23220312       3.81022686       0.00039838      -0.00273222      -0.00332636
C       -3.68124990       6.36590587       3.51278694       0.00228496      -0.00681544       0.00445600
C       -4.93544689       8.50269268       3.47478877       0.00978574       0.00461238       0.01087020
C        2.46012839      -0.07921435       3.82288025       0.00171495       0.00872612       0.00205647
C        1.22488837       1.97859079       4.37804305      -0.00527831      -0.01243551       0.01328450
C       -0.07950083       4.27551490       4.35524771       0.00870714      -0.00164799       0.00200526
C       -1.24789762       6.38016251       3.82775350       0.00637880       0.01058500      -0.00316522
C       -2.47306920       8.50246777       3.63680802      -0.00165228       0.01095293      -0.00057996
C        4.93381391      -0.04826673       3.78255036      -0.00265531      -0.00414954       0.00231559
C        3.69822964       2.01887009       4.12273109       0.00221005      -0.00012577       0.00632984
C        1.17547073       6.42214355       4.17475774      -0.00294554      -0.00084296       0.00683588
C       -0.01908447       8.51257492       3.76544559      -0.00369031       0.00432007      -0.00400482
C        7.40076183      -0.03605155       3.77655430      -0.00377097       0.00021117      -0.00434354
C        6.17267350       2.09739241       3.76505800      -0.00582342       0.00023148       0.00348502
C        4.98818151       4.25655730       3.43420540      -0.00335876      -0.00175476      -0.00425119
S        3.60722169       6.36984294       2.32215288       0.00963272      -0.00993942      -0.00069540
C        2.45778677       8.51838904       3.65926695      -0.00803865      -0.00841306       0.00052422
C        9.87190436      -0.04075579       3.75518612       0.00127207      -0.01043756       0.00783867
C        8.64292317       2.09543652       3.77988253       0.00604995      -0.00717034      -0.00116328
C        7.43204596       4.22609047       3.51964896      -0.00367860      -0.00469086       0.00394911
C        6.21780631       6.37884902       3.17332958      -0.01165354      -0.00044519       0.00127523
C        4.94553744       8.51940738       3.39527032       0.00040626       0.00083201      -0.00686602
C       -0.01154285       1.34804965       4.09333127      -0.00533217      -0.00063116       0.00700901
C       -1.24529833       3.52160219       4.08047345       0.00292240       0.00369679      -0.00256521
C       -2.45958176       5.65630470       3.71021327       0.00761011      -0.00003510       0.00697591
C       -3.69713922       7.79009453       3.52002466       0.00687960       0.00104161      -0.01044141
C       -4.94162575       9.91142012       3.69112897       0.00295159       0.01132427       0.00258877
C        2.45778312       1.30801795       4.11942022       0.00129591       0.00160585       0.01120079
P        1.27681981       3.53209860       5.22389836       0.01532349       0.01090174       0.00506271
C       -0.02209889       5.69572006       4.12379756       0.00256391      -0.00254431      -0.00826550
C       -1.24284926       7.79536086       3.72755265      -0.00256689       0.01123687      -0.01040504
C       -2.46788133       9.91752282       3.72698738      -0.00420410       0.00691926      -0.00331122
C        4.94170419       1.37429323       3.88184411      -0.00303936      -0.00725535      -0.00527866
P        3.62719281       3.72386569       4.40333784       0.00317446      -0.00089023      -0.00270487
C        1.21771771       7.77723369       3.85020901      -0.01054726      -0.00604484      -0.01016120
C       -0.00319819       9.92937655       3.75564770      -0.00153005       0.00073691      -0.00275044
C        7.40386424       1.38577019       3.76961374      -0.00324359       0.00337583       0.00042057
C        6.20388601       3.50841361       3.57234511      -0.00598453      -0.00003607      -0.00628687
C        5.03941495       5.62570431       3.01287185      -0.01355659      -0.00278459      -0.00995484
C        3.68051812       7.86577728       3.27553715      -0.00427191       0.00266001      -0.00003220
C        2.46787590       9.94277313       3.73461418      -0.00577696      -0.00528140      -0.00568088
C        9.87502997       1.38448129       3.86222865       0.01025292      -0.00858081      -0.00577261
C        8.65437483       3.51913498       3.69864201      -0.00172343      -0.00709420      -0.00377787
C        7.43931162       5.64927571       3.38559620      -0.00441953      -0.00281740       0.00498782
C        6.17423785       7.80331133       3.29297965       0.00563592      -0.00080689       0.01022126
C        4.93594678       9.92756106       3.65713862       0.00502917      -0.00709818       0.00496136
Sc       3.14349683       6.13889696       5.03733311       0.00513057       0.00100855      -0.00366915
O        2.76908630       6.14503747       6.78211910       0.00280978       0.00503473       0.00828171
O        2.39872011       6.15220252       8.13177101       0.00060763       0.01059774      -0.00647894
H        3.24117197       5.99311686       8.60418511      -0.00496096       0.00654844      -0.00879370
