50
Lattice="12.336457 0.0 0.0 -6.168228499999997 10.683685154694365 0.0 0.0 0.0 15.0" Properties=species:S:1:pos:R:3:forces:R:3 energy=-437.8728233805504 free_energy=-437.8728233805504 stress="-0.004232700457738597 0.001235044898176587 -1.0898585601995262e-05 0.001235044898176587 -0.0043481401731069345 -4.387628786335515e-06 -1.0898585601995262e-05 -4.387628786335515e-06 -4.585775419066417e-06" pbc="T T T"
C       -0.03912170      -0.02604477       3.88797032      -0.00070785      -0.00158338      -0.00886670
C       -1.26992168       2.13036544       3.99333273       0.00668145      -0.00446311      -0.00710347
C       -2.50330897       4.26914066       3.68595794       0.00643412      -0.00673735       0.00958612
C       -3.72862565       6.40403847       3.46330935       0.00893720       0.00061963      -0.00463591
C       -4.97690504       8.53723826       3.54902186       0.00714582       0.00547503      -0.00953132
C        2.42702661      -0.05624846       3.97117071      -0.00425314       0.00657143      -0.00806761
C        1.19814888       2.02480451       4.38973770       0.00422144      -0.00321250      -0.00106877
C       -0.10104641       4.32380185       4.10374066       0.00107745       0.00665152       0.01018601
C       -1.28795009       6.42393094       3.66579801      -0.00273679      -0.00335559      -0.00187291
C       -2.51447877       8.54223567       3.65447410       0.00292734      -0.00528375       0.01061750
C        4.89697536      -0.01385579       3.89082381      -0.00399853       0.00667997      -0.00794695
C        3.68540183       2.03039397       4.36162531       0.00166633       0.01642884      -0.00944617
C        1.15929599       6.44195477       3.99258356      -0.00796069      -0.01146438      -0.00599394
C       -0.05716637       8.55591814       3.74722115      -0.00348132       0.00279401      -0.00464965
C        7.36160613       0.00721439       3.82848787       0.00761400       0.00212490      -0.00778953
C        6.12799210       2.13944985       3.81785867      -0.00917711      -0.00178686       0.00151081
C        4.92785593       4.27878570       3.35786813      -0.01015382      -0.01453180      -0.00354677
S        3.55813636       6.43947703       2.29038912      -0.00806163       0.00517080       0.00529327
C        2.42154265       8.56331572       3.69457757      -0.00723141      -0.00329108      -0.00407739
C        9.83483283      -0.00078744       3.81120135       0.00683948       0.00673726      -0.00510713
C        8.60315993       2.13645505       3.76600845      -0.01195567      -0.00168135      -0.01098419
C        7.37828719       4.26033900       3.46968143       0.00230048       0.00113895       0.01375730
C        6.16380009       6.41642010       3.18114466      -0.00262928      -0.00296081      -0.00606453
C        4.90779762       8.55305591       3.47425038       0.00575326       0.00433337      -0.01288420
C       -0.04366026       1.39248623       4.11318119       0.00621774      -0.00620401      -0.01154510
C       -1.28171804       3.56079066       3.93020254       0.00894314      -0.00414851       0.00801363
C       -2.50160223       5.69391292       3.58570556       0.00257171      -0.00642234       0.01576339
C       -3.74008327       7.82817553       3.53297175       0.00550477       0.00035560       0.00009835
C       -4.97881665       9.94060447       3.80279173      -0.00322701       0.00126007       0.00593142
C        2.43983345       1.32956608       4.27919043      -0.00098402       0.00459564      -0.00002720
P        1.29192406       3.68654435       4.95037824       0.00415768       0.00305156       0.00150890
C       -0.05697402       5.73776978       3.89231497      -0.01107555       0.00025350       0.00427979
C       -1.28201916       7.84110140       3.66360497       0.00085874      -0.00431929       0.00437236
C       -2.50405863       9.94920721       3.83290040      -0.00342784      -0.00286615       0.01099658
C        4.90496885       1.41082890       4.02610660      -0.00397456       0.00812761      -0.00044923
P        3.61398833       3.77834257       4.47645120       0.01227121      -0.00628137      -0.00913600
C        1.18418686       7.82500719       3.79800236      -0.00882454      -0.00979720       0.00759797
C       -0.04086178       9.97059822       3.80791814       0.00217578       0.00653293       0.00510457
C        7.36071442       1.43020750       3.80386323      -0.00939642      -0.00183917       0.00505465
C        6.14007881       3.54499315       3.54825647       0.00107616      -0.00593960       0.00981579
C        4.97885543       5.65989338       2.99617478      -0.00865962      -0.00059094      -0.01041205
C        3.64062953       7.90228794       3.31972065      -0.00213780       0.00354604      -0.00045905
C        2.42970342       9.98828886       3.78728233       0.00951732       0.00199147       0.00060946
C        9.83796363       1.42646142       3.86209499      -0.00447887       0.00600237      -0.00002318
C        8.60673249       3.55616375       3.63326398       0.00096109      -0.00062668       0.01148958
C        7.38711624       5.68433055       3.35157142       0.00519978       0.00315104       0.00620241
C        6.13014758       7.83604803       3.35336690       0.00795968       0.00373390      -0.01015113
C        4.89865257       9.96163291       3.73928511       0.00277993       0.00026329      -0.00096468
Sc       3.07139392       6.15852351       4.92193225      -0.00171893       0.00289401       0.00875199
O        3.98589158       4.60925976       5.78978018      -0.00154070      -0.00109750       0.00626288
