50
Lattice="12.336457 0.0 0.0 -6.168228499999997 10.683685154694365 0.0 0.0 0.0 15.0" Properties=species:S:1:pos:R:3:forces:R:3 energy=-445.5341577942769 free_energy=-445.5341577942769 stress="-0.005105241105782385 -0.002481446247316435 -8.164709051643563e-06 -0.002481446247316435 0.0007590701815387492 -8.52181430246422e-06 -8.164709051643563e-06 -8.52181430246422e-06 -1.2416535164698743e-05" pbc="T T T"
C       -0.02172047       0.00242451       3.80910612      -0.00229207       0.00039343      -0.00012304
C       -1.27445034       2.12430828       3.84405377       0.00358793      -0.00320646      -0.00465963
C       -2.48494594       4.26524696       3.79340657       0.00078176       0.00464117       0.00441759
C       -3.69544553       6.41605147       3.72642081      -0.00383715      -0.00494300       0.00670878
C       -4.93342920       8.56486480       3.75765207      -0.00239364      -0.00186441      -0.00091984
C        2.44641493       0.01914715       3.78467813       0.00080407       0.00411526      -0.00101124
C        1.17627463       2.16833617       3.88687525       0.00304445      -0.00283961      -0.00458169
C       -0.02882260       4.23595433       4.03713097      -0.00044424      -0.00443998      -0.00370254
C       -1.25803151       6.40950603       3.89739046      -0.00127084       0.00003061       0.00341165
C       -2.47815526       8.55357575       3.80116341       0.00406184       0.00348768      -0.00450876
C        4.91438009      -0.00052762       3.68382723       0.00086474       0.00942943      -0.00168888
C        3.65069224       2.08511894       3.37534254      -0.00114043       0.00435002       0.00149278
N        1.12151787       6.42739505       4.16654592       0.00461476       0.00167159       0.00635997
C       -0.02116750       8.53106057       3.85706402       0.00035510      -0.00039259      -0.00260717
C        7.38114661      -0.02491236       3.71882828      -0.00697583      -0.00165344       0.00141284
C        6.14433351       2.13443691       3.48336199      -0.00311042       0.00295405       0.00210590
C        5.00979640       4.34619531       3.25021978      -0.00067397       0.00269614      -0.00866099
N        3.79614854       6.42726907       3.63202870       0.00093144       0.00018756      -0.00506726
C        2.44893255       8.48513341       3.84556116       0.00237117       0.00202480       0.00352274
C        9.83798899      -0.02772638       3.77421844      -0.00224522      -0.00727768      -0.00547123
C        8.60600015       2.12386971       3.69213568       0.00604817       0.00145014      -0.00832810
C        7.40659943       4.27719844       3.57470669      -0.00441944      -0.00288659       0.00683384
C        6.21373728       6.44839175       3.57574940       0.00266986      -0.00264218      -0.00051201
C        4.93231880       8.54316252       3.72826236       0.00086723      -0.00131090       0.00248697
C       -0.03821082       1.42692287       3.85256004       0.00302930      -0.00091228      -0.00127178
C       -1.26993062       3.54319715       3.88929843      -0.00191014      -0.00320664       0.00093366
C       -2.47585048       5.69190027       3.80245851      -0.00234225       0.00161610       0.00805659
C       -3.70408446       7.84204447       3.76606137       0.00133264      -0.00157440      -0.00574219
C       -4.94983422       9.98634958       3.80597898      -0.00199420       0.00143846       0.00409633
C        2.42926442       1.44722235       3.71637368       0.00121323       0.00215732       0.00240041
N        1.12286814       3.51497488       4.10921177       0.00418787      -0.00384576       0.00744586
C       -0.02633562       5.71113050       4.04940503       0.00068541      -0.00195885      -0.00270474
C       -1.25038473       7.83162272       3.85287993       0.00175810      -0.00067106       0.00470096
C       -2.48498987       9.98342777       3.76040801       0.00430844       0.00827754       0.00237215
C        4.90712377       1.42544482       3.50568849      -0.00188300       0.00844114       0.00376536
S        3.56154027       3.65018614       2.60657451       0.00106505      -0.01032527      -0.00430877
C        1.19668625       7.77771113       3.96320840       0.00293501       0.00306047      -0.00179225
C       -0.01678858       9.95597403       3.74951760      -0.00605391       0.00032222       0.00164745
C        7.36917860       1.41161968       3.62690544      -0.00005653       0.00101347      -0.00346353
C        6.17349179       3.56672631       3.42425836      -0.00496286       0.00029771       0.00145755
C        4.98023954       5.76638175       3.46783100       0.00234638       0.00107635      -0.00765481
C        3.71164829       7.78392381       3.74418677       0.00254256       0.00105706      -0.00285307
C        2.44249678       9.92009461       3.77890232      -0.00555563      -0.00182740       0.00022522
C        9.83300111       1.40336740       3.77301310       0.00490712      -0.00579772      -0.00059396
C        8.62106331       3.55185620       3.68332332       0.00158511       0.00538085       0.00640880
C        7.41817737       5.70498593       3.61447371      -0.00241070      -0.00645053       0.00392174
C        6.17922698       7.85807091       3.68779380      -0.00145536      -0.00416659       0.00124338
C        4.91100682       9.96140032       3.77909907      -0.00096351      -0.00224087      -0.00111793
Sc       2.68346119       4.97300093       4.90680970      -0.01319933       0.00037123      -0.01499764
O        3.26791063       4.92575975       6.54207821       0.00869193       0.00449242       0.01091454
