52
Lattice="12.336457 0.0 0.0 -6.168228499999997 10.683685154694365 0.0 0.0 0.0 15.0" Properties=species:S:1:pos:R:3:forces:R:3 energy=-454.86459989134914 free_energy=-454.86459989134914 stress="-0.00541088971164533 -0.0023991500638420446 -5.8969113377821736e-05 -0.0023991500638420446 0.00038814449004759884 -1.2962832599135679e-05 -5.8969113377821736e-05 -1.2962832599135679e-05 3.426004783399194e-05" pbc="T T T"
C       -0.01420764      -0.00628850       3.80732919       0.00252671       0.00119449       0.01070602
C       -1.26505449       2.11657752       3.83662498       0.00123702      -0.00548124      -0.00106027
C       -2.47802796       4.25845567       3.80911820       0.00109384      -0.00391937       0.00249227
C       -3.68938091       6.40792625       3.76358422      -0.00173134       0.01042835       0.01020675
C       -4.92705138       8.55485938       3.78775088      -0.00664448       0.01407759      -0.00370084
C        2.45374451       0.00949983       3.77612195       0.00234417      -0.00375968       0.00343830
C        1.18558919       2.15668391       3.84844720       0.00278145      -0.00306554       0.00677711
C       -0.02562289       4.23243273       4.01010729      -0.00378504       0.00273661       0.01062664
C       -1.25029490       6.40250965       3.90933000       0.00264187      -0.00330581      -0.00383461
C       -2.47021794       8.54610699       3.81931759       0.00363869      -0.00093225      -0.00855655
C        4.92288376      -0.00782257       3.68789525      -0.01182048       0.00184276       0.00581525
C        3.66088885       2.07965097       3.37156464       0.00464225      -0.00569217       0.00343742
N        1.13958885       6.41429328       4.12155410       0.00343610      -0.00311912      -0.00890993
C       -0.01187102       8.52362026       3.86544757      -0.00506187       0.00006936      -0.00835751
C        7.38846082      -0.03000864       3.73475556       0.00076840      -0.00377821      -0.00781823
C        6.15199544       2.12948174       3.50433822       0.00025665      -0.00312632      -0.00181344
C        5.01659622       4.34184353       3.29370263      -0.01046731       0.00843513       0.00193650
N        3.80138846       6.41520764       3.73132988      -0.00373936      -0.00031247      -0.00590161
C        2.45731951       8.48126416       3.86666498      -0.00099965      -0.01042641      -0.00403498
C        9.84594222      -0.03477335       3.79005080       0.00813072       0.01173447      -0.00655798
C        8.61494283       2.11675585       3.70779159      -0.00253905       0.00495771       0.00573282
C        7.41367316       4.27044502       3.61500676      -0.00616995      -0.01149657       0.00632613
C        6.21672586       6.43815610       3.63795924       0.00043592      -0.00678235      -0.00122206
C        4.93837980       8.53289477       3.76956307       0.00269710      -0.00002841       0.00533903
C       -0.02842615       1.42042598       3.83221836       0.00279063      -0.00798225       0.00132159
C       -1.26066138       3.53546801       3.88144576       0.00100522      -0.00532049      -0.00182387
C       -2.47002574       5.68416951       3.82764270      -0.00033348       0.00214446      -0.00290514
C       -3.69674394       7.83382805       3.79564958      -0.00301868       0.01322579       0.00068985
C       -4.94252173       9.97730160       3.81168093       0.00225673       0.00621753      -0.00737379
C        2.43711531       1.43907295       3.69167983       0.00525049      -0.00696528       0.00953856
N        1.13976683       3.51038369       4.06739066      -0.00654353      -0.00137387       0.00077833
C       -0.02467127       5.69797458       4.03000262       0.00241728       0.00140808       0.00425468
C       -1.24249960       7.82524005       3.86934873       0.00242769      -0.00319353      -0.00300331
C       -2.47701287       9.97564122       3.76469714      -0.00340414      -0.00398128       0.00411496
C        4.91484196       1.41928640       3.51121295      -0.00171331       0.00090534       0.00448235
S        3.58585453       3.65043573       2.61091490       0.00008124       0.00182764      -0.00075323
C        1.20606286       7.77657246       3.95529327      -0.00511101      -0.00416002       0.00127036
C       -0.00894550       9.94998244       3.75981597      -0.01205000       0.00464854       0.00717638
C        7.37689150       1.40632407       3.64526995       0.00315661      -0.00385045      -0.00240260
C        6.18022150       3.56134690       3.46258662      -0.01041421      -0.00489248      -0.00197269
C        4.98964915       5.75260470       3.53639518      -0.00544929       0.00298547      -0.00198946
C        3.71964041       7.78092383       3.80011556       0.00247782      -0.00558123      -0.00616040
C        2.44960773       9.91694911       3.79808130       0.01052734      -0.00439655      -0.00454732
C        9.84225973       1.39588807       3.78169833      -0.00173448       0.01535042      -0.00925884
C        8.62894510       3.54464639       3.70716735      -0.00000877      -0.00158159       0.00971327
C        7.42444827       5.69696576       3.66309291      -0.00104186      -0.00746690       0.00554595
C        6.18440529       7.84773356       3.73775292      -0.00136362      -0.00113137      -0.00283835
C        4.91870313       9.95332584       3.79568102       0.00254924       0.00718747       0.00508611
Sc       2.57739066       4.97618461       4.73533978       0.00465676       0.00868751      -0.00457398
O        2.72608722       5.03798583       6.50925651       0.01330438       0.00734990      -0.00478951
O        2.64537433       5.06784364       7.90704164       0.00805708      -0.00124577      -0.00802891
H        3.58254346       5.01255225       8.18159230       0.00755554       0.00093435      -0.00261722
