51
Lattice="12.336457 0.0 0.0 -6.168228499999997 10.683685154694365 0.0 0.0 0.0 15.0" Properties=species:S:1:pos:R:3:initial_magmoms:R:1:forces:R:3 energy=-444.6469916829002 free_energy=-444.6469916829002 stress="-0.0027404829540061417 -0.003635691130994226 3.182524244824052e-05 -0.003635691130994226 -0.00023609337566031277 -1.0475289170696244e-05 3.182524244824052e-05 -1.0475289170696244e-05 -0.00017528818892240727" pbc="T T T"
C        0.05585805      -0.04543243       3.89452864       0.00000000       0.00405669       0.00100827      -0.00994979
C       -1.21174962       2.07064727       3.80900597       0.00000000      -0.00133220      -0.00400654      -0.00606574
C       -2.44010773       4.21998408       3.71195292       0.00000000       0.00247353      -0.00388203      -0.00007971
C       -3.63171902       6.36567259       3.78278535       0.00000000      -0.00307240       0.00346315       0.00265568
C       -4.85787321       8.51239106       3.88256282       0.00000000       0.00015000       0.00458437      -0.00318801
C        2.51547246      -0.02501564       3.79809413       0.00000000       0.00196130      -0.00216939      -0.00284564
C        1.23615597       2.08691311       3.84475956       0.00000000      -0.00153636       0.00362034      -0.00080782
C       -0.02673120       4.16465901       3.52515554       0.00000000       0.00415971       0.00358832       0.00073494
C       -1.17449308       6.33420810       3.47575104       0.00000000       0.00041045       0.00277397       0.00035789
C       -2.39500973       8.49602523       3.67281406       0.00000000      -0.00199525      -0.00047788       0.00270391
C        4.98742842      -0.04880334       3.66651908       0.00000000       0.00010920      -0.00086210       0.00056706
C        3.73376330       2.08144182       3.53090586       0.00000000      -0.00296758      -0.00391767       0.00460365
P        1.42578274       6.25666338       2.52589226       0.00000000       0.00179238      -0.00747114       0.00235143
C        0.06854226       8.48715117       3.48005781       0.00000000       0.00039973       0.00285862      -0.00166676
C        7.44948129      -0.05474586       3.72407003       0.00000000       0.00043587      -0.00261950       0.00182541
C        6.20604134       2.10064314       3.70333193       0.00000000       0.00483982      -0.00045473       0.00076888
C        4.99696994       4.28852837       3.75184932       0.00000000      -0.00048636       0.00302820      -0.00030539
N        3.82987152       6.40836923       4.09717872       0.00000000      -0.01193753      -0.00803329       0.01792400
C        2.53541905       8.48033868       3.67310834       0.00000000      -0.00291509      -0.00134095      -0.00418579
C        9.91243032      -0.06087662       3.86743588       0.00000000      -0.00096561       0.00327679      -0.00961646
C        8.66814370       2.08355528       3.81175707       0.00000000      -0.00510127       0.00089212       0.00061754
C        7.44695089       4.23367161       3.84023754       0.00000000      -0.00294719       0.00192154       0.00340060
C        6.25420918       6.39644280       3.94492683       0.00000000       0.00102273      -0.00050931       0.00419233
C        5.00268640       8.49944791       3.91796480       0.00000000       0.00042974      -0.00177654       0.00184551
C        0.03768089       1.38173621       3.85965884       0.00000000       0.00130398      -0.00105415      -0.00207132
C       -1.22061720       3.48043288       3.66256331       0.00000000       0.00301448      -0.00340720       0.00221281
C       -2.41067797       5.64211222       3.66166900       0.00000000      -0.00098405       0.00012950       0.00189909
C       -3.62722739       7.79251125       3.78560785       0.00000000      -0.00317363       0.00367794       0.00102743
C       -4.87207962       9.94005730       3.87315824       0.00000000       0.00337750       0.00223530      -0.00215463
C        2.48539357       1.40957637       3.75074188       0.00000000      -0.00255417      -0.00255762       0.00096278
O        1.15385248       3.48647189       3.91053201       0.00000000      -0.01459318      -0.01527580      -0.00719714
C        0.02283551       5.56284549       3.32119586       0.00000000       0.00335586      -0.00163903       0.00110885
C       -1.16555888       7.76836617       3.51143216       0.00000000       0.00020646       0.00211253       0.00016245
C       -2.41409064       9.92903133       3.71075843       0.00000000       0.00052632      -0.00260853       0.00232573
C        4.97475337       1.38558676       3.63776159       0.00000000       0.00236465      -0.00014148      -0.00060183
P        3.70416552       3.65772760       2.77418477       0.00000000      -0.00003552       0.00512107       0.01166857
C        1.32094693       7.80594802       3.34794113       0.00000000      -0.00127301      -0.00326183       0.00215186
C        0.05353680       9.91598190       3.63195793       0.00000000       0.00014672       0.00083854       0.00186210
C        7.43622879       1.37538052       3.76243562       0.00000000       0.00166378      -0.00473350      -0.00114515
C        6.21265363       3.52880397       3.77779259       0.00000000      -0.00035368      -0.00044875       0.00304927
C        5.01108942       5.72901573       3.95618239       0.00000000       0.00734799       0.00079224      -0.00202906
C        3.78349645       7.76681506       3.88868309       0.00000000       0.00223134      -0.00277849      -0.00086595
C        2.51915793       9.90518006       3.77903613       0.00000000      -0.00088945       0.00045067      -0.00412249
C        9.90576197       1.36656435       3.84374015       0.00000000      -0.00553906       0.00290560      -0.00154745
C        8.66891113       3.51174863       3.80311997       0.00000000      -0.00289516      -0.00015098       0.00380349
C        7.47029878       5.66112338       3.87163152       0.00000000      -0.00140095       0.00107028      -0.00065048
C        6.24848843       7.80756746       3.94132646       0.00000000       0.00218369       0.00018852       0.00007423
C        4.98820228       9.92183759       3.90104397       0.00000000       0.00187074       0.00179945      -0.00401710
Sc       2.42821499       5.08703912       5.40556230       0.00000000       0.14537792       0.05032034      -0.71144862
O        1.59171771       6.58506090       5.87821059       1.00000000       0.02850672       0.01871430       0.33861025
O        0.78197887       5.42350161       6.01930376       1.00000000      -0.15677055      -0.04579351       0.36109460
