50
Lattice="12.336457 0.0 0.0 -6.168228499999997 10.683685154694365 0.0 0.0 0.0 15.0" Properties=species:S:1:pos:R:3:forces:R:3 energy=-435.54214469490773 free_energy=-435.54214469490773 stress="-0.004337348861765385 0.003389745504902643 -1.1212863537547237e-05 0.003389745504902643 -0.003055515396036519 -1.299551209076491e-06 -1.1212863537547237e-05 -1.299551209076491e-06 -3.6214364402278957e-06" pbc="T T T"
C        0.00329529      -0.00324634       3.68639425      -0.00309531       0.00282658      -0.00740690
C       -1.21652918       2.15276576       3.66917141      -0.00397513      -0.00372482       0.00048981
C       -2.45747997       4.27863118       3.92278272      -0.00334286      -0.00103452       0.00036586
C       -3.71921820       6.41031058       3.96757539       0.01032940      -0.00194796      -0.00567908
C       -4.95796748       8.53430307       3.79525833      -0.00324210       0.00343952       0.00437009
C        2.46727247       0.00553712       3.76312736      -0.00382512      -0.00335816       0.00117149
C        1.24705975       2.09211168       3.35798568       0.00058886      -0.00496846       0.00166758
C       -0.06019507       4.36115284       3.54343835      -0.01134563       0.00585312      -0.00065131
C       -1.27813776       6.44176622       3.94252920       0.00172372       0.00633054       0.00276747
C       -2.48638685       8.55288198       3.91884694       0.00065723       0.00075577      -0.00314944
C        4.93258002      -0.00712789       3.86643196      -0.00140327       0.00468162       0.00336003
C        3.74773735       2.09472867       3.73691515      -0.00343066       0.00482359      -0.00694589
O        1.11678792       6.47564834       3.68803501      -0.00268874      -0.00263801      -0.00202830
C       -0.01645727       8.54564461       3.85105386       0.00383361      -0.00274723      -0.00358417
C        7.41156996      -0.01757074       3.85854204       0.00385455       0.00293499       0.00340626
C        6.19971910       2.10866947       3.93482906      -0.00320190      -0.00111822       0.00409488
C        5.02019884       4.21337318       3.80542282       0.00107088      -0.00512525       0.00264192
S        3.71469719       6.30116814       2.59721222      -0.00210298       0.00220749      -0.00320799
C        2.44217628       8.52456836       3.62928246       0.00162294       0.00019354       0.00040212
C        9.87396236      -0.00580818       3.74322258       0.00643571      -0.00406164      -0.00013120
C        8.65902622       2.13002252       3.90429538       0.00072496       0.00146373      -0.00278874
C        7.42437130       4.26328317       3.98211244      -0.00615979      -0.00116640      -0.00147879
C        6.16958013       6.38834803       3.75125158       0.00237080       0.00055418       0.00388433
C        4.92070813       8.53051713       3.58733441      -0.00218271       0.00045650       0.00241150
C        0.01511475       1.43216233       3.57481245      -0.00281808       0.00054508       0.00244034
C       -1.23456690       3.57477229       3.72889248      -0.00429418      -0.00118569       0.00869736
C       -2.48846831       5.69945228       3.97435379       0.00922472      -0.00103109      -0.00309590
C       -3.72339974       7.83305573       3.90815787       0.00079798       0.00050902      -0.00078309
C       -4.93831847       9.96954716       3.74381096      -0.00612591       0.00264789       0.00239744
C        2.49329869       1.43960684       3.62571440      -0.00178642      -0.00461788       0.00511294
S        1.21975890       3.65396541       2.56192661       0.00534764      -0.00600804      -0.00434491
C       -0.08614835       5.74980814       3.77610130      -0.00272552       0.00537844      -0.00294862
C       -1.26470052       7.85442162       3.92931289       0.00151137       0.00244139       0.00477592
C       -2.47652757       9.98100385       3.85800081      -0.00115347       0.00079484       0.00500132
C        4.95161548       1.41812001       3.85273441      -0.00582696       0.00541495       0.00005931
O        3.81570198       3.48955051       3.73405599       0.00223396       0.00221390       0.00867092
C        1.18727168       7.86981709       3.73005898       0.00227323      -0.00389547      -0.00829429
C        0.00233543       9.97065970       3.86733937       0.00160684       0.00022927       0.00136690
C        7.42157465       1.41035892       3.91896568       0.00042368       0.00400681      -0.00035632
C        6.21296094       3.52121928       3.95752721      -0.00208473      -0.00577140       0.00077335
C        4.99555671       5.60215013       3.57424947       0.00710860      -0.00622862      -0.00100216
C        3.68908378       7.87022281       3.37298948      -0.00142518      -0.00141448      -0.00065014
C        2.46801004       9.95841493       3.76488312       0.00552447       0.00068992       0.00003602
C        9.89357558       1.42930679       3.78798196       0.00071036      -0.00508645       0.00380937
C        8.65523787       3.55255964       3.96395273      -0.00600611       0.00179676      -0.00467999
C        7.39378543       5.68401477       3.93517136       0.00537950       0.00027306      -0.00151010
C        6.15204734       7.81041751       3.68433601      -0.00218338       0.00346126      -0.00276396
C        4.93240268       9.96687014       3.68879570       0.00361298      -0.00175733      -0.00361157
Sc       2.43558923       4.97147016       4.53675416      -0.00132267       0.00669751      -0.00436888
O        2.32988616       4.95992736       6.27537543       0.00878082      -0.00473415       0.00128720
