49
Lattice="12.336457 0.0 0.0 -6.168228499999997 10.683685154694365 0.0 0.0 0.0 15.0" Properties=species:S:1:pos:R:3:forces:R:3 energy=-428.4588118318546 free_energy=-428.4588118318546 stress="-0.0034947299692810285 0.004814370070641192 -9.997511667641332e-07 0.004814370070641192 -0.003780638999677516 1.2655476898218749e-06 -9.997511667641332e-07 1.2655476898218749e-06 -1.7766098647226793e-06" pbc="T T T"
C        0.00534094       0.00224080       3.69393759       0.00277938      -0.00471949      -0.00777216
C       -1.20312441       2.16538929       3.73052026       0.00349378      -0.00878842      -0.00646647
C       -2.43971506       4.28408591       3.99545783       0.00497403       0.00457785      -0.01231004
C       -3.72270418       6.41364627       4.00420890       0.00468297      -0.00575935      -0.00360497
C       -4.96336060       8.53417616       3.80898567       0.00135092      -0.00747675       0.00344831
C        2.46571046       0.00405590       3.73481579      -0.01180963      -0.00129520      -0.00611024
C        1.24864212       2.11414502       3.36890825      -0.00188779       0.00487539       0.00562985
C        0.00506986       4.36771589       3.66591699      -0.00885240      -0.00424473      -0.00830633
C       -1.28108872       6.45430927       3.96978141      -0.00237912       0.00671257       0.01228782
C       -2.49148717       8.55914976       3.89905691       0.00053796       0.00493576      -0.01113002
C        4.93544617      -0.00474457       3.81969309      -0.00277376       0.00391690       0.00410800
C        3.75769538       2.08295954       3.68687471      -0.00147500       0.00565035      -0.00978003
O        1.12166739       6.52058194       3.81122120       0.00198570       0.00256730       0.01355398
C       -0.02723005       8.56260320       3.77902531       0.00038704      -0.00097219       0.00411923
C        7.41696376      -0.00964282       3.82426711       0.00841317      -0.01195967      -0.00083539
C        6.21069343       2.10843211       3.93972028      -0.00413987      -0.00829527       0.00656119
C        5.01867507       4.20794003       3.91387969       0.00766628       0.00531771       0.01184207
S        3.72560459       6.25311630       2.63562948       0.00181682       0.00207555       0.00114985
C        2.44706724       8.53539218       3.57266018       0.00455090      -0.00178548      -0.00092790
C        9.87984003       0.00306857       3.74075869       0.00547664       0.00982118       0.00210693
C        8.67001900       2.13671758       3.93581473      -0.00632121       0.00783660       0.00029767
C        7.43145853       4.26516320       4.04592148      -0.00399444      -0.00316269       0.00373232
C        6.15477119       6.38871412       3.84214017       0.00105726       0.00487021      -0.00283322
C        4.91756123       8.52990193       3.58940445      -0.00486445       0.01564274      -0.00158271
C        0.02088057       1.44029337       3.60558342       0.00277032      -0.00788741      -0.00877095
C       -1.20916636       3.58148278       3.83319758       0.00004095      -0.00745907      -0.00772397
C       -2.48660349       5.70760904       4.01981512       0.00457395       0.00065663      -0.00376351
C       -3.72832955       7.83564918       3.91939002       0.00559845      -0.00355703       0.00002838
C       -4.93876340       9.97011767       3.73880759      -0.00664459      -0.00795499       0.00192140
C        2.49427614       1.44440703       3.58584788      -0.00357597       0.00157529      -0.00226606
S        1.13951442       3.64660228       2.44685662      -0.00355105      -0.00457853      -0.00142923
C       -0.07405216       5.76846431       3.85036966      -0.00752055      -0.00302587       0.00517275
C       -1.26929365       7.86517753       3.90013336       0.00015161       0.00557564       0.00103523
C       -2.47808437       9.98519567       3.82129606      -0.00592672       0.00526214      -0.00297761
C        4.96792844       1.41322853       3.81348099      -0.00412786       0.00013622       0.00377644
O        3.82634497       3.47011873       3.76013023       0.01110996       0.00251333       0.00413652
C        1.18329884       7.89589379       3.66151342       0.00202897      -0.00292404      -0.00120790
C        0.00332422       9.98105535       3.81136982       0.00095501      -0.00238563       0.00195956
C        7.43229437       1.41454733       3.91916404      -0.00139907      -0.00749983      -0.00554678
C        6.22423449       3.51786814       4.02631537      -0.00172147      -0.00686809       0.01830198
C        4.95455755       5.59803620       3.72129475      -0.00064663       0.00680016      -0.00253104
C        3.68875750       7.86791554       3.35699648       0.00052995      -0.00299454       0.01306313
C        2.47331096       9.97056723       3.73074498       0.01425384      -0.00428282      -0.00067710
C        9.90263717       1.43732205       3.81923324      -0.00298293       0.00520759       0.00469221
C        8.66783996       3.55842203       4.01739915      -0.00060494       0.00899827      -0.00085820
C        7.38706751       5.68741519       4.00179135       0.00382414      -0.00487976      -0.00628753
C        6.14338872       7.80610105       3.72281216      -0.00231254       0.00675394      -0.00485066
C        4.93485953       9.96993631       3.68799041       0.00216889       0.01019214      -0.00513963
Sc       2.33365471       4.86600519       4.17458568      -0.00766689      -0.00771463       0.00276482
