51
Lattice="12.336457 0.0 0.0 -6.168228499999997 10.683685154694365 0.0 0.0 0.0 15.0" Properties=species:S:1:pos:R:3:forces:R:3 energy=-456.73686877553104 free_energy=-456.73686877553104 stress="-0.00027882029093978267 -0.0058555794323157115 -2.0782985905376265e-06 -0.0058555794323157115 0.006469339277780738 4.458321310524013e-06 -2.0782985905376265e-06 4.458321310524013e-06 8.971045631275762e-06" pbc="T T T"
C        0.02560867       0.01024510       3.69708624       0.00707281      -0.00429582       0.00001884
C       -1.24263865       2.11560034       3.50539711      -0.00238625      -0.00009589       0.00859172
C       -2.48892021       4.27412580       3.50441175      -0.00108612      -0.00183669       0.00847773
C       -3.67804727       6.42509063       3.69653676       0.00026145       0.00823573      -0.00058158
C       -4.88556225       8.57380814       3.76391668      -0.00267322      -0.00164094       0.01263644
C        2.50487015       0.03990742       3.80836678      -0.00041230       0.00155408      -0.00226196
C        1.22734254       2.15490249       3.66125684      -0.00495037      -0.00170587      -0.00358403
C       -0.05676642       4.23912022       3.20519874       0.00561548       0.00289800      -0.01055820
C       -1.21963349       6.39364929       3.65903643      -0.00330813      -0.00347481      -0.00372417
C       -2.41273237       8.55739593       3.80821029       0.00129210      -0.00080962      -0.00306111
C        4.96761466       0.01767345       3.86568947      -0.00547505      -0.00268257       0.00245622
C        3.70091591       2.22802874       3.85647407       0.00443524      -0.00140222      -0.00310374
B        2.34809725       4.48458805       3.91691872      -0.00299324       0.00238710      -0.00477667
B        1.35729908       6.19977115       3.91652288       0.00101317      -0.00391028      -0.00538894
C        0.08020532       8.49931514       3.85682914       0.00093053       0.00482847      -0.00375242
C        7.42659875      -0.01307347       3.80974699      -0.00335479       0.00728466      -0.00279786
C        6.17045738       2.16247038       3.80902725       0.00439887      -0.00555753      -0.00159087
C        4.93060527       4.35057090       3.79913939      -0.00112571       0.00086313       0.00093931
O        3.83699132       6.48733363       3.63927908       0.00046180       0.00047572       0.00878931
C        2.53340415       8.50288294       3.79993520      -0.00031750      -0.00096015       0.00033287
C        9.88336245      -0.01181012       3.70351675      -0.00128202      -0.00408678       0.00112815
C        8.62833785       2.13114122       3.66039969       0.00337966       0.00222818       0.00307448
C        7.39993935       4.28944599       3.70302424      -0.00422721       0.00127037       0.00041682
C        6.20940705       6.44826975       3.75216923       0.00222345       0.00195544       0.00042930
C        4.98943104       8.56139355       3.75229742       0.00240833       0.00096572       0.00027600
C        0.00443607       1.43351308       3.60330199      -0.00433961      -0.00313695       0.00892537
C       -1.26532862       3.54149917       3.34873230       0.00629305       0.00356743       0.01510660
C       -2.45606547       5.69517002       3.60180959      -0.00423946      -0.00204169       0.00883921
C       -3.65118253       7.85167714       3.76150227      -0.00107631       0.00658250      -0.00328654
C       -4.89373979      10.00391335       3.76180579       0.00506228      -0.00451663      -0.00358551
C        2.48478195       1.47494947       3.79820053      -0.00097596       0.00346016      -0.00680826
C        1.16986487       3.57314680       3.54754859      -0.00274279      -0.00016068       0.00948003
C       -0.02012588       5.63538610       3.54411527      -0.00106772      -0.00301548       0.01029385
C       -1.17995611       7.82257535       3.79768623       0.00277083      -0.00244738      -0.00776158
C       -2.42892610       9.99215916       3.84406949      -0.00452167      -0.00232277      -0.00589232
C        4.93906310       1.46388236       3.86075235       0.00434797      -0.00617177      -0.01339496
C        3.67968897       3.68336046       3.85468741      -0.00106175      -0.00056400       0.00348774
C        1.32991929       7.75335679       3.85506467      -0.00114419      -0.00062049       0.00318082
C        0.03759718       9.95361158       3.86124011      -0.00372120       0.00735087      -0.01377044
C        7.40403530       1.42427917       3.76790379       0.00521700       0.00355242      -0.00374411
C        6.16200037       3.60072529       3.77433553      -0.00285034      -0.00403893      -0.00038438
C        4.99780886       5.76826785       3.75417172       0.00265200       0.00108372      -0.01083031
C        3.79474089       7.85215502       3.75448203       0.00175324       0.00203138      -0.01062681
C        2.49974252       9.94417291       3.77523955      -0.00555550       0.00010240      -0.00150522
C        9.86165667       1.41183119       3.62039645      -0.00140364      -0.00257773      -0.00298817
C        8.62199444       3.55885446       3.61991180      -0.00292520       0.00042412      -0.00323099
C        7.42733515       5.71241018       3.71471040       0.00238032       0.00450141       0.00666078
C        6.22621487       7.86671227       3.75335497      -0.00098395      -0.00043266       0.00960941
C        4.96113347       9.98409346       3.71491382       0.00482063      -0.00026027       0.00788373
Ta       0.37276179       4.48910610       5.38314237       0.00213855      -0.00037763       0.00445113
O        1.43907744       5.07984203       6.64393052       0.00127243      -0.00245878      -0.00249467
