52
Lattice="12.336457 0.0 0.0 -6.168228499999997 10.683685154694365 0.0 0.0 0.0 15.0" Properties=species:S:1:pos:R:3:initial_magmoms:R:1:forces:R:3 energy=-458.80180832345275 free_energy=-458.80180832345275 stress="0.00036583467054512983 -0.005995486031865985 -5.414669161277924e-06 -0.005995486031865985 0.007121205023735258 3.7431916577397695e-05 -5.414669161277924e-06 3.7431916577397695e-05 -6.166905281994774e-05" pbc="T T T"
C        0.05298154       0.06477421       3.54492272       0.00000000      -0.00029683       0.00040167       0.00473629
C       -1.21452069       2.17726131       3.40792778       0.00000000      -0.00405959       0.00017923      -0.00783555
C       -2.47119013       4.33382606       3.49148112       0.00000000       0.00310777       0.00086210       0.00388414
C       -3.65233714       6.48366489       3.64722308       0.00000000      -0.00071470       0.00091486      -0.00041341
C       -4.85920617       8.63345261       3.67443222       0.00000000       0.00093180      -0.00377867      -0.00720535
C        2.53206004       0.09919381       3.66703836       0.00000000       0.00078926      -0.00309542      -0.00504785
C        1.25648515       2.21432537       3.45300721       0.00000000      -0.00117527       0.00327097       0.00086957
C       -0.04056445       4.30515266       3.15383448       0.00000000       0.00298537       0.00121584       0.00405007
C       -1.19522365       6.46102732       3.53720221       0.00000000      -0.00108645       0.00249139       0.00215955
C       -2.38730242       8.61928381       3.69213103       0.00000000      -0.00025915      -0.00427564      -0.00304849
C        4.99243334       0.07644997       3.76529118       0.00000000       0.00019796      -0.00298879       0.00451265
C        3.71924582       2.28996266       3.76585101       0.00000000      -0.00265214       0.00338298       0.00272427
B        2.33732190       4.56920641       3.82165089       0.00000000       0.00210193      -0.00738749      -0.00520196
B        1.40157191       6.21847358       3.76779887       0.00000000       0.00066907       0.00045646      -0.00344808
C        0.10545026       8.55066427       3.74319421       0.00000000      -0.00045480       0.00378410       0.00262932
C        7.45021766       0.04116035       3.75043723       0.00000000       0.00340773      -0.00028427       0.00300267
C        6.19185787       2.22083447       3.77500393       0.00000000      -0.00105119      -0.00226924      -0.00333126
C        4.94391481       4.41192334       3.75859721       0.00000000      -0.00301648       0.00066129      -0.00142596
O        3.88292883       6.55520243       3.46531295       0.00000000       0.00540620       0.00062183       0.00040106
C        2.55573618       8.55010314       3.71361608       0.00000000      -0.00047225       0.00062251       0.00299679
C        9.90451596       0.04440680       3.63454667       0.00000000       0.00072821      -0.00125992       0.00246119
C        8.65342691       2.18704771       3.65375850       0.00000000      -0.00171375      -0.00113870       0.00120995
C        7.41951254       4.34755811       3.70032654       0.00000000      -0.00032857       0.00495776      -0.00332788
C        6.23699647       6.50762406       3.71591932       0.00000000       0.00078155       0.00422487       0.00104888
C        5.01751452       8.62348803       3.67296443       0.00000000       0.00152825      -0.00053488       0.00301961
C        0.03668729       1.49129093       3.41161180       0.00000000      -0.00287308       0.00320193      -0.00363196
C       -1.24727843       3.59828377       3.25698431       0.00000000       0.00269285       0.00105086       0.00204820
C       -2.43541370       5.75720716       3.54750850       0.00000000      -0.00112273      -0.00004947      -0.00201434
C       -3.62517227       7.91178564       3.67525258       0.00000000       0.00010604      -0.00273361      -0.00431971
C       -4.86752475      10.06180176       3.62773077       0.00000000      -0.00001933      -0.00434404       0.00148455
C        2.51613156       1.53101594       3.64340000       0.00000000       0.00033044       0.00091226      -0.00010341
C        1.18640303       3.63128091       3.42658856       0.00000000      -0.00090867       0.00168004       0.00179110
C       -0.01020059       5.70356732       3.46105097       0.00000000       0.00073322       0.00335844      -0.00948192
C       -1.15585204       7.88586775       3.67173391       0.00000000       0.00105077       0.00248521      -0.00219142
C       -2.40313314      10.05286614       3.72123300       0.00000000       0.00037534      -0.00496432      -0.00068914
C        4.96030514       1.52405112       3.78507561       0.00000000      -0.00215101      -0.00107665       0.00516479
C        3.68442488       3.75084741       3.79708493       0.00000000      -0.00743356       0.00508450      -0.00125493
C        1.35439671       7.79447060       3.75588338       0.00000000      -0.00157728       0.00193515      -0.00227273
C        0.06204280      10.00745354       3.76867717       0.00000000       0.00252389       0.00252449      -0.00283728
C        7.42560882       1.47981590       3.74067913       0.00000000      -0.00010361      -0.00328554      -0.00111882
C        6.17870670       3.66029071       3.75660345       0.00000000      -0.00193966       0.00092579      -0.00675230
C        5.02278384       5.82904278       3.68951293       0.00000000       0.00456777      -0.00128280      -0.00206067
C        3.82213450       7.91047644       3.65513050       0.00000000       0.00163359       0.00042372       0.00349410
C        2.52130879       9.99664874       3.71016674       0.00000000       0.00155609       0.00028737       0.00270163
C        9.88013653       1.46738883       3.56904063       0.00000000      -0.00256716      -0.00076691      -0.00649456
C        8.64435961       3.61752357       3.62229047       0.00000000       0.00109160       0.00170489       0.00416001
C        7.45144959       5.77051337       3.69460000       0.00000000      -0.00222661       0.00625836       0.00158735
C        6.25311531       7.92675084       3.68810671       0.00000000       0.00028633       0.00136525       0.00170799
C        4.98791784      10.04279837       3.61780382       0.00000000       0.00042872      -0.00156629       0.00412213
Ta      -0.11453250       3.61933234       5.19540209       0.00000000      -0.00153370       0.01079563      -0.04976873
O        1.52618168       2.61045420      10.62754705       1.00000000       0.00262898      -0.00444323       0.00402006
O       -0.33445192       4.89299173       6.37078165       1.00000000      -0.00090313      -0.02051583       0.06328974
