52
Lattice="12.336457 0.0 0.0 -6.168228499999997 10.683685154694365 0.0 0.0 0.0 15.0" Properties=species:S:1:pos:R:3:forces:R:3 energy=-451.2589864117243 free_energy=-451.2589864117243 stress="-0.004215393121735711 -0.0027346094919896034 -2.7433451931547496e-05 -0.0027346094919896034 -0.007668759723115202 5.605177928934428e-05 -2.7433451931547496e-05 5.605177928934428e-05 -3.3808532763520667e-06" pbc="T T T"
C       -0.08541040      -0.01280810       3.82477300      -0.00399874       0.00274215       0.01012004
C       -1.34513100       2.11420876       4.08277142      -0.00757379      -0.00139021      -0.00409783
C       -2.57800025       4.26182450       3.95103120       0.01606043       0.00664726       0.00128276
C       -3.76356219       6.40047113       3.71585608      -0.00424435       0.00555828      -0.00038961
C       -4.99829758       8.54352945       3.64831617      -0.00234362      -0.01122719       0.01461367
C        2.38949693      -0.04514543       3.84121693      -0.00555888      -0.00283154      -0.00177615
C        1.14601532       2.02630135       4.29168680      -0.00284925       0.00115846       0.00731526
C       -0.21122515       4.28166062       4.50270998       0.00677576      -0.00627104       0.00638867
C       -1.31624979       6.39857301       4.02916390      -0.00014088       0.00024657      -0.00820018
C       -2.53222056       8.52171511       3.80294398       0.00367901       0.00371836      -0.00154005
C        4.85598529      -0.02103559       3.75814498       0.01054921       0.00319948       0.01011916
C        3.58109312       2.05131934       3.62620135       0.00072814       0.00473460      -0.01603113
B        1.24945517       6.37079670       4.29661359      -0.00229706       0.00270834      -0.00973415
C       -0.06722337       8.52938099       3.90838860      -0.00398366       0.00319830       0.00841046
C        7.31070497       0.00315999       3.74280295       0.00074417      -0.00056773       0.00111003
C        6.06639604       2.13804239       3.58688973      -0.00162256      -0.00873298       0.00472433
C        4.88211412       4.31364063       3.34669552      -0.00747451      -0.00204628       0.00995436
C        3.68067553       6.47914928       3.48645273       0.01087936       0.00807816       0.00791149
C        2.38832504       8.56638252       3.75440277      -0.00453945       0.01128205       0.00650247
C        9.78184004       0.00626680       3.74737336       0.00172432      -0.00357314      -0.00689300
C        8.53685093       2.13506951       3.77584678      -0.00401719      -0.00295931       0.00569784
C        7.31838534       4.27155115       3.61506547      -0.00884194       0.00231685       0.01362534
C        6.14286000       6.44335378       3.43121910      -0.00291575       0.00170814       0.00803928
C        4.86741896       8.57148659       3.54462781       0.00214922       0.00237544       0.00130968
C       -0.10369187       1.39003010       4.08057780      -0.00706558       0.00672707       0.00974938
C       -1.37905927       3.53259777       4.19727959       0.01259774      -0.00373040      -0.00380468
C       -2.55013942       5.68637075       3.90152092       0.00209017       0.00916492      -0.01530710
C       -3.76609237       7.82241908       3.71443572       0.00370807       0.00058118      -0.00938709
C       -5.01652672       9.95255740       3.77619297      -0.00935699      -0.00920097      -0.00086549
C        2.37234580       1.36826785       3.95461907       0.00008783       0.00492284       0.00432546
P        1.15952229       3.49462123       5.27947590      -0.00596147      -0.00328959      -0.00590445
C       -0.11284008       5.67652065       4.29413131      -0.00223167      -0.00639573      -0.01727518
C       -1.30044188       7.81348481       3.91343173      -0.00114970       0.00004664       0.00483204
C       -2.53986852       9.94205718       3.79104511       0.00583917       0.00428660      -0.01140891
C        4.84128032       1.40793220       3.64628005       0.00389510       0.00076098       0.00470868
S        3.43355823       3.54497811       2.69269617      -0.00052771      -0.00208844       0.00171992
C        1.18332294       7.84426780       3.97936308      -0.00198836       0.00755706      -0.00002657
C       -0.07800402       9.95741891       3.79278093       0.00564690      -0.00018446       0.00184292
C        7.30098972       1.42909831       3.69224799      -0.00226450      -0.00806399      -0.00910196
C        6.08912118       3.55197024       3.50879569      -0.00914325      -0.00680335      -0.00021851
C        4.88978415       5.75431662       3.38489028       0.00356942       0.00074239       0.00530218
C        3.62152944       7.87330038       3.56433919      -0.00304664       0.00744419      -0.00631620
C        2.38138872       9.98662261       3.72965877      -0.00125509       0.01011290      -0.00536158
C        9.77276570       1.42126266       3.86483672      -0.00534956      -0.00692155      -0.01017335
C        8.53743235       3.55623340       3.77647295       0.01047698       0.00467248      -0.00138828
C        7.34310260       5.70062333       3.57186681      -0.00585590       0.00699401      -0.00929158
C        6.10651817       7.85550699       3.51468266      -0.00212363      -0.00021920       0.00011586
C        4.85370801       9.97899845       3.69468249       0.00339724       0.00109424      -0.00443423
Ta       3.11396759       4.95668940       4.71710893       0.00096116      -0.01091251       0.00196482
O        4.14338517       5.12912406       6.18497224      -0.00099997      -0.00638143      -0.00399581
O        4.97415616       5.30227841       7.31075053       0.01129371      -0.01252130       0.00630388
H        4.76834803       4.51609924       7.86080922       0.00386849      -0.00846760       0.00493310
