49
Lattice="12.336457 0.0 0.0 -6.168228499999997 10.683685154694365 0.0 0.0 0.0 15.0" Properties=species:S:1:pos:R:3:forces:R:3 energy=-431.4968924876861 free_energy=-431.4968924876861 stress="-0.0034327177662993413 -0.0020945739400308355 -1.6784605982223293e-06 -0.0020945739400308355 -0.010926190576599555 5.62195660259176e-06 -1.6784605982223293e-06 5.62195660259176e-06 3.8412009480722504e-06" pbc="T T T"
C       -0.02215339       0.00615854       3.76665694      -0.00164708      -0.00264890       0.01568614
C       -1.28121509       2.13192090       4.04090690       0.00606191      -0.01159967      -0.00265718
C       -2.51341190       4.27928051       3.92057577       0.00306215       0.00378236       0.00354922
C       -3.71308666       6.41429523       3.70266863      -0.01047554       0.00023678       0.00252356
C       -4.94688190       8.54776512       3.63384316      -0.00458506       0.00494157       0.00487289
C        2.45018213      -0.03977094       3.81335399      -0.01039956      -0.00501836      -0.00497196
C        1.20739839       2.01481412       4.29368303       0.00750947      -0.00715162       0.00620832
C       -0.15124449       4.28175583       4.47953997       0.00321944      -0.00531836      -0.01707496
C       -1.24363823       6.40481173       3.91181976       0.00924835      -0.00011715       0.00567718
C       -2.46641922       8.53032691       3.74183365       0.00680091       0.00017346       0.00611474
C        4.91639910      -0.00289648       3.71777427       0.00203906       0.00530349      -0.00836333
C        3.64450054       2.09872136       3.72296019      -0.00111369      -0.00335607      -0.00496773
P        1.62633445       6.21839927       4.07405493      -0.01441053      -0.00356168       0.00229737
C        0.00266971       8.55125258       3.76029580       0.00454001      -0.00179774      -0.00286658
C        7.36793724       0.04106908       3.61038426       0.00301418      -0.00156575      -0.00174967
C        6.12742905       2.14606095       3.53623749       0.00337297       0.00410891      -0.00522290
C        4.96954984       4.29387666       3.18057301       0.00751904       0.00227088       0.00044533
B        3.55028897       6.48046974       3.48841347      -0.00877873      -0.00174534      -0.00695856
C        2.45637451       8.65614480       3.50343197      -0.00560660       0.00497799       0.00185361
C        9.85478910       0.05393371       3.59802532       0.00854923       0.00073914      -0.00026987
C        8.60195008       2.16204551       3.70391298      -0.00652456       0.00252431      -0.01018874
C        7.38135477       4.29040578       3.58780390      -0.00688866      -0.00701037      -0.00822974
C        6.16482257       6.44533479       3.52298464       0.00113326      -0.00338488       0.00520988
C        4.93060634       8.60442188       3.44178779       0.00282496       0.00117074       0.00113710
C       -0.04619211       1.40088111       4.05050744       0.00602684      -0.00737791       0.00606019
C       -1.31840044       3.54532925       4.17910360       0.00976142      -0.00372764      -0.00468546
C       -2.48583538       5.70199775       3.84576899      -0.00080090       0.00532139       0.00967260
C       -3.70838103       7.83234713       3.69063266      -0.00177596       0.00397800      -0.00743526
C       -4.95621778       9.96139681       3.73601987      -0.01129679       0.00058245      -0.00037520
C        2.42333816       1.37019908       3.96973711      -0.00280813      -0.00410065       0.00326028
P        1.28415645       3.52722231       5.20394595      -0.01467789       0.00901134       0.00264917
C       -0.04956953       5.63927355       4.14619494       0.00059904       0.01452230      -0.00212168
C       -1.23022421       7.82228069       3.80084096       0.01032190      -0.00210551       0.01086874
C       -2.47731772       9.95187892       3.74991675      -0.00225019       0.00231477      -0.00349805
C        4.90708907       1.42696134       3.65551655       0.00504930       0.00816829      -0.00115153
S        3.49242248       3.49390989       2.55611585      -0.00694834       0.00519427       0.00772989
C        1.26891418       7.91740616       3.74499414       0.00036201       0.00416287       0.00523903
C       -0.01671848       9.98363156       3.68366097       0.00217826      -0.00053886       0.00664507
C        7.36755968       1.45504556       3.60899901      -0.00298308      -0.00095494       0.00396498
C        6.16445610       3.55593943       3.42025455       0.00301159      -0.00124373      -0.00343823
C        4.90278379       5.70985526       3.47838948      -0.00015686      -0.00141072      -0.01234699
C        3.67715883       7.96208645       3.36456498      -0.00300970       0.00409067       0.00653731
C        2.44583625      10.05521534       3.53176223       0.00703962       0.00446418       0.00224465
C        9.84130292       1.45532081       3.77481997      -0.00361419      -0.00331682       0.00648327
C        8.60115723       3.57883545       3.74072150      -0.00448291       0.00266249      -0.00785236
C        7.38101213       5.71711053       3.60106656      -0.00949421      -0.00972818       0.00093168
C        6.15678349       7.86048367       3.52419191       0.00287836      -0.00082731      -0.00329192
C        4.92147148      10.01605175       3.57508721       0.00751962       0.00006349      -0.00670002
Ta       3.41627183       4.62729170       4.56838459       0.01108626      -0.00515800      -0.00144429
