51
Lattice="12.336457 0.0 0.0 -6.168228499999997 10.683685154694365 0.0 0.0 0.0 15.0" Properties=species:S:1:pos:R:3:initial_magmoms:R:1:forces:R:3 energy=-446.5765505955675 free_energy=-446.5765505955675 stress="-0.0044048493411285245 -0.002930351247366898 1.2295588941172387e-05 -0.002930351247366898 -0.007951120197385163 1.9513273301459695e-05 1.2295588941172387e-05 1.9513273301459695e-05 2.2363360053447797e-05" pbc="T T T"
C       -0.06967269      -0.01372866       3.73493191       0.00000000      -0.00009677      -0.00491852      -0.00093649
C       -1.33007371       2.11163389       3.99269141       0.00000000      -0.00639713       0.00889026       0.00026810
C       -2.56036978       4.25997076       3.86850266       0.00000000      -0.01038103       0.00161188      -0.01312786
C       -3.74613938       6.39879521       3.63655527       0.00000000       0.00683252       0.00352869      -0.00489388
C       -4.98164149       8.54161475       3.56379963       0.00000000       0.00195977       0.00047865       0.01046908
C        2.40455586      -0.04650475       3.74594684       0.00000000       0.00260980      -0.00225383       0.00832179
C        1.16031445       2.02398122       4.20924364       0.00000000      -0.00589431      -0.00834288      -0.00068878
C       -0.19460400       4.27705897       4.42104173       0.00000000       0.00158519       0.00499880      -0.00674618
C       -1.29661225       6.39490277       3.94049970       0.00000000      -0.00895341       0.00653300       0.00113672
C       -2.51496564       8.51998647       3.71224850       0.00000000      -0.00478442      -0.00388066      -0.00240360
C        4.87135518      -0.02198638       3.67004390       0.00000000      -0.00646852      -0.01069453       0.00541259
C        3.59382671       2.04898698       3.53591574       0.00000000       0.00100288      -0.00479359       0.00092553
B        1.26765022       6.36964775       4.22155910       0.00000000      -0.00400476      -0.00064622       0.00325813
C       -0.05197897       8.52832915       3.83035328       0.00000000       0.00266214       0.00285977      -0.00718685
C        7.32515237       0.00218519       3.65717398       0.00000000       0.00425738       0.00897686       0.00130191
C        6.08011742       2.13654708       3.51289930       0.00000000       0.00036000      -0.00276682      -0.00659842
C        4.89312625       4.31425286       3.30190472       0.00000000       0.00482262      -0.00226832       0.00314268
C        3.69679122       6.47945150       3.46748707       0.00000000       0.00200025      -0.00526132      -0.00315408
C        2.40320636       8.56777671       3.68703136       0.00000000       0.00326487      -0.00213133      -0.00313439
C        9.79691100       0.00559477       3.65494399       0.00000000       0.00028287       0.00023569       0.01049894
C        8.55119761       2.13404914       3.69036971       0.00000000       0.00748793      -0.00631960       0.00235294
C        7.33241005       4.26992034       3.55156023       0.00000000       0.00927351       0.00236178      -0.00247957
C        6.15820201       6.44206406       3.37655222       0.00000000       0.00237822       0.00937819      -0.01288693
C        4.88334034       8.57010532       3.47560034       0.00000000      -0.00537429       0.00699983      -0.00219759
C       -0.08839389       1.38829962       3.99176586       0.00000000      -0.00930554      -0.00377864      -0.00132834
C       -1.36219862       3.52926416       4.11169425       0.00000000      -0.00835872       0.01307337      -0.01237424
C       -2.53154483       5.68436695       3.81592895       0.00000000      -0.00243091       0.00007397      -0.00686169
C       -3.74877006       7.82062912       3.62634041       0.00000000      -0.00015796      -0.00087666       0.00637566
C       -5.00102056       9.95105309       3.68433557       0.00000000       0.00542872      -0.00179333       0.00267072
C        2.38622008       1.36689343       3.86556031       0.00000000       0.00009698      -0.00329563       0.00308854
P        1.15710767       3.47749180       5.22161621       0.00000000       0.00948867      -0.01347672       0.00996435
C       -0.09336804       5.67118760       4.20730117       0.00000000      -0.00948749       0.00758746       0.00125433
C       -1.28359470       7.81079505       3.82858188       0.00000000      -0.00259536       0.00488776      -0.00299495
C       -2.52396843       9.94090525       3.69668751       0.00000000      -0.00622943      -0.00933293       0.00175921
C        4.85457603       1.40710151       3.56118044       0.00000000      -0.00272781      -0.01009097       0.00557908
S        3.44237920       3.56044813       2.63188757       0.00000000      -0.00000597       0.00550046       0.00933393
C        1.19820377       7.84410155       3.90716278       0.00000000       0.00281624      -0.00060285       0.00196437
C       -0.06296538       9.95628304       3.70989536       0.00000000       0.00245150       0.00455734      -0.00036436
C        7.31539726       1.42762779       3.60841271       0.00000000       0.00515525       0.00601474       0.00068551
C        6.10186641       3.55050016       3.44996730       0.00000000       0.00896674      -0.00089696      -0.01033963
C        4.90465921       5.75523354       3.34635527       0.00000000       0.00145099      -0.00321893       0.01332582
C        3.63726756       7.87429793       3.51242698       0.00000000       0.00211402      -0.00361512      -0.00004197
C        2.39605098       9.98671491       3.64483331       0.00000000       0.00185423       0.00121851       0.00676443
C        9.78762387       1.42016252       3.77062975       0.00000000       0.00361854      -0.00116361       0.00491843
C        8.55346087       3.55504110       3.69928725       0.00000000      -0.00101419      -0.00954571       0.00038222
C        7.35895561       5.69887633       3.50685142       0.00000000       0.00714744       0.00862270      -0.00603176
C        6.12239644       7.85433886       3.44488804       0.00000000      -0.00421941       0.01044782       0.00670964
C        4.86928158       9.97848028       3.60881192       0.00000000      -0.00306299       0.00397979      -0.00701100
Ta       3.11941243       4.93467807       4.66928891       0.00000000       0.00619791      -0.00480601       0.00078939
O        4.95189088       5.08934603       7.20460996       1.00000000      -0.00306355      -0.00986155      -0.01666118
O        4.16910388       5.03512910       6.12976348       1.00000000      -0.00255324       0.00781593       0.00778969
