51
Lattice="12.336457 0.0 0.0 -6.168228499999997 10.683685154694365 0.0 0.0 0.0 15.0" Properties=species:S:1:pos:R:3:initial_magmoms:R:1:forces:R:3 energy=-442.7815443653776 free_energy=-442.7815443653776 stress="-0.003868639823062842 -0.001334765718372471 3.336870199857856e-05 -0.001334765718372471 -0.011079392360216071 -3.956616172561271e-05 3.336870199857856e-05 -3.956616172561271e-05 -2.5929216441630608e-05" pbc="T T T"
C       -0.06125124      -0.00922442       3.45310373       0.00000000      -0.00355266       0.00454653       0.00523938
C       -1.29804938       2.14106667       3.68800931       0.00000000       0.00023182       0.00538678       0.00131673
C       -2.54009016       4.28194039       3.81394397       0.00000000       0.00510283      -0.00431638      -0.00101082
C       -3.75698067       6.41034060       3.78415889       0.00000000      -0.00455976       0.00099262       0.00183673
C       -4.99289882       8.53056713       3.58824881       0.00000000       0.00583695      -0.00776577      -0.00758724
C        2.41251858      -0.06562293       3.41094911       0.00000000       0.00385650       0.00494430      -0.00474547
C        1.19544482       2.02916952       3.73640337       0.00000000      -0.00389973      -0.00287993      -0.00040843
C       -0.15500064       4.25652867       4.28018182       0.00000000       0.00286393      -0.01074554       0.00546678
C       -1.28915142       6.41858072       4.03728925       0.00000000      -0.00038417      -0.00329805      -0.01067514
C       -2.50906781       8.52364706       3.68859261       0.00000000       0.00263291       0.00296161      -0.00636788
C        4.87688830      -0.01663332       3.45364120       0.00000000       0.00186606      -0.00158451      -0.01045832
C        3.62132642       2.03823216       3.15126672       0.00000000       0.00512200       0.00988854      -0.00109535
P        1.50780787       6.35323537       4.67481712       0.00000000      -0.00614865      -0.00223076       0.00722535
C       -0.05089501       8.58000606       3.87205551       0.00000000      -0.00212266       0.00831491      -0.00574263
C        7.32620967       0.04522763       3.48804870       0.00000000      -0.00317220      -0.00275175      -0.00770932
C        6.09125891       2.15909053       3.38006129       0.00000000      -0.00257068      -0.00880891      -0.00598419
C        4.88046607       4.30273670       3.60083924       0.00000000      -0.00469960       0.00492807      -0.00220639
B        3.52637808       6.51846756       4.03575617       0.00000000       0.00601728      -0.00385658      -0.00426747
C        2.40344447       8.66309957       3.70300194       0.00000000       0.00432022       0.00512527       0.00219961
C        9.81163040       0.04572900       3.42956576       0.00000000      -0.00077836      -0.00040376      -0.00390705
C        8.56848148       2.16897170       3.51308851       0.00000000       0.00316555      -0.01257218       0.00396288
C        7.33203881       4.28380828       3.67050731       0.00000000       0.00103069       0.00378602       0.00451511
C        6.11629825       6.43740975       3.81620036       0.00000000      -0.00788701       0.00015949      -0.00105294
C        4.87737916       8.58183560       3.54791792       0.00000000       0.00480516      -0.00780811      -0.00206304
C       -0.06639420       1.40748438       3.60865602       0.00000000      -0.00538951       0.00609489       0.00383448
C       -1.32417467       3.54554861       3.91846782       0.00000000       0.00495446      -0.00207521       0.00268815
C       -2.52373945       5.70422815       3.88288472       0.00000000      -0.00432654      -0.00196780      -0.00067779
C       -3.75318322       7.82422451       3.69268029       0.00000000       0.00517959      -0.00083500       0.00773917
C       -5.00006736       9.93921308       3.46532412       0.00000000       0.00203082      -0.00158681       0.00292532
C        2.40297277       1.34799527       3.38894330       0.00000000       0.00219158       0.00785570      -0.00230025
P        1.28767728       3.39566914       4.80462895       0.00000000      -0.00814361       0.00070124      -0.01594091
C       -0.10059356       5.66563835       4.29870112       0.00000000      -0.00130524      -0.00482582       0.00637582
C       -1.27845204       7.83656525       3.89201849       0.00000000      -0.00138080       0.00211820      -0.00558938
C       -2.51429020       9.93169984       3.49440162       0.00000000       0.00456664       0.00238557      -0.00223100
C        4.86859742       1.41144932       3.29242319       0.00000000      -0.00165656      -0.00376100       0.00102350
S        3.50913543       3.70062430       2.64066460       0.00000000       0.00039846       0.00086934      -0.00073502
C        1.21203554       7.97665016       4.06187200       0.00000000       0.00134679       0.00708524      -0.00246760
C       -0.05885848       9.98884897       3.59689874       0.00000000      -0.00161156       0.00451360      -0.00314090
C        7.32812751       1.46341828       3.43110404       0.00000000      -0.00193573      -0.00972914      -0.00040346
C        6.11028618       3.55905864       3.53605912       0.00000000       0.00064737      -0.00434908      -0.00210842
C        4.86318991       5.71679268       3.95557788       0.00000000       0.00119659       0.00132129       0.00815684
C        3.62304717       7.94764846       3.66965137       0.00000000       0.00447568      -0.00551315       0.00008432
C        2.39947824      10.04959997       3.49186150       0.00000000      -0.00173978       0.00409313      -0.00296754
C        9.80999995       1.45915863       3.50845283       0.00000000       0.00581793      -0.00306963       0.00411075
C        8.56868571       3.58017856       3.64718345       0.00000000       0.00496658      -0.00906849       0.01267338
C        7.33505618       5.70923351       3.76672413       0.00000000      -0.00877017       0.00810906       0.01282811
C        6.10526951       7.84575415       3.65761776       0.00000000       0.00121725      -0.00794900      -0.00350177
C        4.87313833       9.99613507       3.43640761       0.00000000      -0.00140221       0.00000702       0.01150079
Ta       3.34058117       4.67393254       5.20047904       0.00000000       0.00774484       0.00834493       0.00024413
O        4.64818465       4.43204135       8.03664512       1.00000000      -0.00739177       0.01148375       0.01451796
O        4.10860508       4.54186624       6.81973679       1.00000000      -0.00875750       0.00773524      -0.00311957
