50
Lattice="12.336457 0.0 0.0 -6.168228499999997 10.683685154694365 0.0 0.0 0.0 15.0" Properties=species:S:1:pos:R:3:forces:R:3 energy=-443.26404107044795 free_energy=-443.26404107044795 stress="-0.0042987103126978015 -0.003062761730099737 6.559311171452091e-06 -0.003062761730099737 -0.007379025441640953 -1.5308739986960552e-05 6.559311171452091e-06 -1.5308739986960552e-05 2.3868551617641653e-05" pbc="T T T"
C       -0.03199111      -0.00808808       3.75520717      -0.00012517      -0.00326546       0.01256767
C       -1.29414118       2.11843385       4.00265520       0.00037257       0.00240533       0.00277221
C       -2.52122145       4.26730247       3.84146487       0.00297609       0.00838995       0.00258277
C       -3.70534491       6.40774160       3.60064657       0.00164784       0.00185593      -0.00499001
C       -4.94186201       8.55057079       3.55977021      -0.00469053      -0.01015264       0.00417639
C        2.44223161      -0.04113448       3.80184834      -0.00356585       0.00106306       0.00290792
C        1.19000852       2.02413567       4.27838177      -0.00379867      -0.00156425      -0.00479403
C       -0.16796076       4.28479857       4.44843589       0.00983811       0.00063916      -0.00130050
C       -1.26219745       6.40277292       3.94492814       0.01095776       0.00394293       0.00029905
C       -2.47615194       8.52854953       3.72627272      -0.00379299       0.00113433       0.00387087
C        4.90902515      -0.01252208       3.72210688       0.00992964       0.00529950       0.00739647
C        3.63177402       2.06172248       3.65231691       0.00231441       0.01746103      -0.00232284
B        1.29694637       6.38052645       4.27512481      -0.01665499      -0.00016793       0.00234189
C       -0.01413493       8.53746300       3.86386158      -0.00454159      -0.00044662       0.00019589
C        7.36452615       0.00895394       3.69101544      -0.00188130      -0.00074177      -0.00252300
C        6.11694841       2.14578662       3.53486962      -0.00295840      -0.00380948      -0.00377610
C        4.94439868       4.32674131       3.28646684       0.01305324       0.00656103      -0.00062766
C        3.74943172       6.47312850       3.49878165      -0.00312980      -0.01746282      -0.00140958
C        2.44502527       8.56976988       3.73307944      -0.00353459      -0.00200761      -0.00635711
C        9.83521036       0.00960698       3.67800071      -0.00104836       0.00076774      -0.00100362
C        8.59032028       2.14072644       3.68555301      -0.00801880      -0.00499864      -0.00383611
C        7.37656041       4.27892114       3.50211735      -0.00584272      -0.00083996       0.00825686
C        6.20014686       6.45158834       3.32643561       0.00671571       0.00218514      -0.00294842
C        4.92306816       8.57452688       3.48434532       0.00041815      -0.00061488       0.00992190
C       -0.05402283       1.39251989       4.02277494      -0.00312295      -0.00201934       0.00437373
C       -1.32830322       3.53741901       4.11050383       0.00957863       0.00693001      -0.00335429
C       -2.49331032       5.69173905       3.79238443       0.00926534       0.01052800      -0.00500315
C       -3.70857402       7.82976943       3.61595326      -0.00369922      -0.00235181       0.00174277
C       -4.96265830       9.95766115       3.70989009      -0.00438203      -0.00942851      -0.00446146
C        2.42268878       1.36761381       3.95628309       0.00273884       0.00711795       0.01348009
P        1.16178830       3.47906047       5.29503563      -0.00820500      -0.01105170      -0.00375983
C       -0.06443783       5.68023124       4.23595423       0.00536192      -0.00147367      -0.00304234
C       -1.24564014       7.81965361       3.84467246      -0.00224712       0.00181690      -0.00138584
C       -2.48564683       9.94917095       3.74094257       0.00461011       0.00427361      -0.00323954
C        4.89262463       1.41826440       3.62796953       0.00296599       0.00633456      -0.00650818
S        3.44910729       3.57634191       2.74778812      -0.00695336      -0.01020050      -0.00458120
C        1.23594011       7.85233205       3.95145434      -0.00698203      -0.00164178      -0.00231883
C       -0.02453034       9.96542484       3.74883154       0.00467499      -0.00250332       0.00409509
C        7.35306367       1.43524562       3.62426979      -0.00868606      -0.00482626      -0.00215420
C        6.14205985       3.56025929       3.42770684       0.00028167      -0.00299558       0.00913003
C        4.94836872       5.76059080       3.30188240       0.01290678      -0.00116657      -0.00898178
C        3.68001958       7.87129943       3.55576837       0.00046562      -0.00722904       0.00244508
C        2.43534217       9.99012861       3.68089627      -0.00251000       0.00231276      -0.00544510
C        9.82542802       1.42593889       3.77891192      -0.00231792       0.00018938      -0.00186237
C        8.59370969       3.56233842       3.66565452      -0.00411424      -0.00034120       0.00294510
C        7.40167868       5.70804204       3.45062261       0.00130311       0.00009295       0.00027643
C        6.16336520       7.86224207       3.42484062      -0.00219515      -0.00246552       0.00842190
C        4.90759089       9.98293308       3.62386226       0.00059748       0.00234601       0.00564185
Ta       3.13069907       4.95557906       4.76553703       0.01071093       0.00198353      -0.00130067
O        4.13351173       4.96952629       6.21519208      -0.00468611       0.01013609      -0.01655421
