49
Lattice="12.336457 0.0 0.0 -6.168228499999997 10.683685154694365 0.0 0.0 0.0 15.0" Properties=species:S:1:pos:R:3:forces:R:3 energy=-432.4411749553334 free_energy=-432.4411749553334 stress="-0.007360751173482816 0.001447353341101974 1.850407461860987e-06 0.001447353341101974 -0.003906594322335634 9.307805961077195e-06 1.850407461860987e-06 9.307805961077195e-06 -2.866517433039626e-06" pbc="T T T"
C        0.01420094      -0.00914805       3.74339739      -0.00236459      -0.00859234       0.00198861
C       -1.21706437       2.13502082       3.61434764       0.00327859      -0.00347079      -0.00653356
C       -2.44751856       4.27731350       3.80207103       0.00520067       0.00067722       0.00040450
C       -3.66900403       6.41944753       3.93882508       0.00245999       0.00677049       0.00022809
C       -4.91633558       8.55118815       3.96167640      -0.00558577      -0.00703723      -0.01430159
C        2.48063986      -0.02937585       3.58856377       0.00683584      -0.00382709       0.00596053
C        1.24270541       2.06963451       3.24701765       0.00766806       0.01759909       0.00266269
C       -0.05586593       4.33827271       3.41573332      -0.00271341       0.00326490       0.00032145
C       -1.24146332       6.44844443       3.79421409      -0.00142750       0.00153884       0.01264387
C       -2.45382518       8.55604642       3.77464848      -0.00455645      -0.00653653       0.00062599
C        4.95553339       0.00068193       3.57966534      -0.00761760       0.00479461      -0.01260489
C        3.71521085       2.07094328       3.26848525      -0.00693656      -0.00670858       0.01145277
N        1.19633983       6.46825379       3.79957285      -0.00282488      -0.00204614      -0.00441753
C        0.00950450       8.55293668       3.71886353      -0.00304415       0.00843055       0.00090666
C        7.42218736      -0.00072554       3.68614469       0.00407347      -0.00610771       0.00422106
C        6.19499888       2.14436805       3.58901133       0.00220552      -0.00810965      -0.00238641
C        5.05483836       4.33233522       3.79199831      -0.00361695       0.01007461       0.01156427
P        3.57303537       6.26523138       4.98466624      -0.00355382      -0.00284362       0.01023312
C        2.47391646       8.55141271       3.96626279       0.00134928       0.00391748       0.00332466
C        9.88668903      -0.00477877       3.80958943      -0.00456758       0.00718527      -0.01113557
C        8.65810681       2.13539718       3.73350583       0.00048478       0.00406107      -0.00566196
C        7.44996987       4.27440331       3.88028990      -0.00113792      -0.00099258      -0.00236179
C        6.24308898       6.42360081       4.19089063       0.00810993      -0.00187255       0.00184246
C        4.94959779       8.55469966       4.14041278      -0.00141107      -0.00393576       0.00273129
C        0.00886237       1.41140070       3.52871985       0.00439040      -0.00315505       0.00253922
C       -1.24720503       3.54645835       3.64528380       0.00012547      -0.00392706      -0.01678426
C       -2.44391097       5.70699069       3.84488568       0.00011236       0.00443237       0.00804893
C       -3.68080115       7.84366432       3.90599703      -0.00554728      -0.00056505      -0.00479210
C       -4.91881478       9.96421080       3.76970700       0.00356926      -0.00751637       0.00316632
C        2.49131645       1.38493533       3.32831192      -0.00115814       0.00384229      -0.00430848
S        1.12523864       3.58859171       2.24104099      -0.00127402       0.00771414       0.00463368
C       -0.00220322       5.76239861       3.73839119      -0.00535503      -0.00453183       0.00026974
C       -1.22365809       7.85510884       3.75754766      -0.00333802       0.00132653      -0.00337652
C       -2.44902362       9.97184401       3.64695753       0.00218630      -0.00830904      -0.00238276
C        4.96315887       1.42812962       3.47280795      -0.00516524       0.00208071       0.00082635
S        3.66347885       3.77766665       2.93472492       0.01004998      -0.00396744       0.00563012
C        1.23075991       7.84012248       3.82464065       0.00270007       0.00030751      -0.00057176
C        0.02067760       9.97364878       3.65919858      -0.00511214       0.01061323      -0.00222507
C        7.41890170       1.42714900       3.66647675       0.00639236      -0.00927277      -0.00644558
C        6.23140243       3.55449740       3.74140918      -0.00288334      -0.00473759      -0.00340200
C        5.05097450       5.64737266       4.27198515       0.00753948      -0.00361699       0.00453398
C        3.68981411       7.89415393       4.29034510       0.00212767       0.01576685       0.00022045
C        2.48022940       9.97106407       3.80920956       0.00535625       0.00042696      -0.00471626
C        9.88887319       1.41914763       3.72251128      -0.00191116       0.00866824      -0.00521083
C        8.66697503       3.55718938       3.81048696       0.00402561       0.00284991       0.00345571
C        7.45201208       5.70081136       4.01365542       0.00492271       0.00368885      -0.00417376
C        6.19831737       7.84635028       4.15288023      -0.00359956      -0.00797260      -0.00301680
C        4.95173729       9.96950851       3.90265426      -0.01135261      -0.00197970       0.00704868
Ta       1.79079366       4.61053015       4.25503718       0.00289072      -0.00839968       0.00932427
