50
Lattice="12.336457 0.0 0.0 -6.168228499999997 10.683685154694365 0.0 0.0 0.0 15.0" Properties=species:S:1:pos:R:3:forces:R:3 energy=-440.5721584407277 free_energy=-440.5721584407277 stress="-0.008150143062717698 0.0025694929832177247 -3.3360686685966703e-06 0.0025694929832177247 -0.004125621407862164 7.270558391824587e-07 -3.3360686685966703e-06 7.270558391824587e-07 1.216665613428048e-05" pbc="T T T"
C        0.02001672       0.00721362       3.73410037      -0.01466432       0.00158016      -0.00487572
C       -1.20325826       2.15595607       3.58481563       0.00421330       0.00835764      -0.00596350
C       -2.43281806       4.29533778       3.77867918       0.00253807       0.01100187       0.00524718
C       -3.66832625       6.43827657       3.93780586       0.00126226      -0.00932194      -0.00794003
C       -4.91562945       8.56745663       3.96400915       0.00293640       0.00568935       0.00573878
C        2.48336695      -0.00951245       3.58376723       0.00546909       0.00454120       0.00302546
C        1.24261447       2.07178611       3.15705858       0.00259332      -0.00165544       0.00109534
C       -0.04237086       4.36693694       3.34698631      -0.00254486      -0.00391623       0.00271400
C       -1.25205614       6.47382581       3.71752990       0.00351809       0.00607180      -0.00198225
C       -2.45604042       8.57770916       3.77794536      -0.00507629      -0.00129456       0.00590539
C        4.96162618       0.01534665       3.61800305       0.00793922       0.00165166       0.00355385
C        3.73421942       2.07787416       3.28801720      -0.00286819       0.00369899       0.00268479
N        1.16114377       6.48204122       3.85901217      -0.00856929       0.00374653      -0.01176271
C        0.01004681       8.57261943       3.77284877      -0.00323305      -0.00678988       0.00592098
C        7.43093589       0.01424629       3.73823839      -0.00464386      -0.00677949       0.00179132
C        6.20854341       2.15591429       3.64243997      -0.00511802      -0.00234428      -0.00084693
C        5.07928443       4.33513721       3.88465975      -0.00152355      -0.00059822      -0.00331794
P        3.60189347       6.30621937       5.08854942       0.00563206      -0.00414736       0.00156216
C        2.47058962       8.56551673       4.04284793       0.01098683       0.00529576      -0.00695246
C        9.89498873       0.01185245       3.83070670      -0.00096112      -0.00133475       0.00266767
C        8.67269648       2.15198450       3.75307610       0.00779886      -0.00804872       0.00795242
C        7.46852032       4.28889421       3.92969378      -0.00196178      -0.00228147       0.00013446
C        6.25202000       6.43876621       4.23996050      -0.00187776       0.00898105       0.00092401
C        4.95593756       8.57428740       4.17369339       0.00109805      -0.00214949       0.00157281
C        0.02004793       1.42562945       3.48996349      -0.00213637       0.00479741      -0.00589050
C       -1.22500262       3.57305264       3.60008126      -0.00355252       0.00745664      -0.00278481
C       -2.44915655       5.72593223       3.80782989       0.01011883       0.00623907       0.00047570
C       -3.68129095       7.86209886       3.90294419      -0.00239028      -0.00895800      -0.00141045
C       -4.91613841       9.97964140       3.76359084      -0.00441926       0.00919985       0.00128080
C        2.49394811       1.39756374       3.30375349       0.00145783       0.00299062       0.00527795
S        1.11068164       3.57672105       2.16990885       0.00057352      -0.00413452      -0.00246848
C       -0.02843502       5.79796668       3.62880346      -0.00567490      -0.00284277      -0.00063806
C       -1.22707870       7.88124023       3.75346909      -0.00680934       0.00031220       0.00393971
C       -2.44646060       9.99241121       3.66432741       0.00823159       0.00305220       0.00602334
C        4.97460755       1.44011429       3.51656781      -0.00373212       0.00255756       0.00292335
S        3.73944865       3.77837867       2.94350969      -0.00066485      -0.00300929       0.00459875
C        1.22120630       7.85331508       3.91251092       0.00499464      -0.00007452      -0.01065232
C        0.02660221       9.99251058       3.71351171       0.00024178      -0.00850271       0.00208556
C        7.43210525       1.44140615       3.70856258      -0.00298566      -0.00674125       0.00141626
C        6.25067675       3.56272165       3.81896648      -0.00385749      -0.00255671      -0.00463735
C        5.07014423       5.66244522       4.36085550       0.00130655       0.00290644      -0.00842943
C        3.69705488       7.91560041       4.35348169       0.00784485      -0.00791676      -0.00792774
C        2.48667097       9.98466305       3.86078983       0.00070105       0.00511192       0.00020059
C        9.90368435       1.43807579       3.72405000       0.01233635      -0.00292336       0.00036476
C        8.68383176       3.57318630       3.82704025       0.00444982      -0.00034056       0.00444185
C        7.46094576       5.71610027       4.04843089      -0.00454079      -0.00028670      -0.00406033
C        6.20257680       7.86362735       4.17770492       0.00326506       0.01014007       0.01027677
C        4.95834656       9.98723179       3.91867379      -0.01106487      -0.00674965      -0.00346570
Ta       1.83713268       4.59852175       4.35127522      -0.00446890      -0.01094236       0.00721002
O        1.39409263       3.83323708       5.87433792      -0.00216803       0.00126095      -0.00699929
