49
Lattice="12.336457 0.0 0.0 -6.168228499999997 10.683685154694365 0.0 0.0 0.0 15.0" Properties=species:S:1:pos:R:3:forces:R:3 energy=-435.26804724916036 free_energy=-435.26804724916036 stress="-0.006600609558410227 -0.0008294393305247041 4.851432152543537e-06 -0.0008294393305247041 7.365277950251061e-05 2.1143928842815353e-07 4.851432152543537e-06 2.1143928842815353e-07 -1.7289312500394016e-06" pbc="T T T"
C       -0.00336565      -0.00055201       3.76924253       0.01003023      -0.00875862      -0.00293880
C       -1.25348131       2.12629377       3.73029864      -0.00359178       0.00062686      -0.01058771
C       -2.49567129       4.26954261       4.00541992      -0.01299484       0.00125578      -0.00234536
C       -3.70566848       6.42298679       4.09311385      -0.00633121      -0.00386460      -0.00772162
C       -4.92638423       8.57010710       3.96730961      -0.00206234       0.00251823       0.00199918
C        2.46783995       0.00658890       3.72045970       0.00183003       0.00156215       0.00161324
C        1.21506470       2.08560807       3.32149719       0.00131327      -0.01198137      -0.00837595
C       -0.13185071       4.32197255       3.55827069       0.00478204      -0.00099504       0.01164753
C       -1.28448320       6.43159034       3.97896848      -0.00440806      -0.00068188      -0.00236991
C       -2.47551434       8.56520922       3.97113827       0.00047008       0.00568572       0.00334936
C        4.93553707      -0.00513467       3.76564912      -0.00401249      -0.00593648      -0.00049353
C        3.71833249       2.08152263       3.27235254       0.00150913       0.00062987      -0.01105189
C        1.16569115       6.38277727       3.70071810       0.01037130       0.00325835       0.00263413
C       -0.00497698       8.53293761       3.87829242       0.00597221       0.00265499      -0.00368672
C        7.40481952      -0.02859876       3.83417966       0.00395619       0.00172730       0.00637544
C        6.17099545       2.13178974       3.73037842       0.00434578      -0.00515426      -0.00174269
C        5.02164736       4.33882976       3.56331179      -0.00418417      -0.00690564       0.00259230
N        3.80622280       6.40284868       3.66864228      -0.00783214       0.00457965      -0.00350765
C        2.47897054       8.49234320       3.81446984       0.00092395      -0.00677951       0.00136015
C        9.86201343      -0.02706916       3.83425935      -0.00275348      -0.00080002      -0.00260065
C        8.62659733       2.12226166       3.91433137       0.00101394       0.01300838      -0.00165821
C        7.40113790       4.27392889       4.01086737       0.00177399      -0.00649839       0.00135624
C        6.20848013       6.44774925       3.96011482       0.00352301      -0.00069063      -0.00455347
C        4.94687526       8.53623480       3.86537115      -0.00221772       0.00875337       0.00077178
C       -0.01239751       1.42299353       3.61007389       0.00237471      -0.01077675       0.00271298
C       -1.28425096       3.54849764       3.79832953      -0.00940807       0.00542601       0.00043640
C       -2.49087648       5.70084771       4.05877965      -0.00936646      -0.00447156      -0.00259580
C       -3.70113568       7.85116418       4.03337730      -0.00218929       0.00407449       0.01017474
C       -4.93152241       9.98837585       3.83002058       0.00831300      -0.00122117      -0.00178114
C        2.46785715       1.42086793       3.41117170       0.00403353       0.00321126       0.01386520
S        1.09798167       3.66211010       2.53383585       0.01753019       0.00738805       0.00532417
C       -0.06931772       5.71931793       3.76950240       0.00482624       0.00608208       0.00041895
C       -1.24943211       7.84989398       3.96578938       0.00385633       0.00245130       0.00502499
C       -2.47078057       9.98254097       3.83054872      -0.00490764      -0.00002900      -0.01323797
C        4.93973325       1.41851186       3.59081709      -0.00030198      -0.00887773      -0.00062834
S        3.87739681       3.63752600       2.42350651      -0.01739818       0.00015937      -0.00501824
C        1.23562618       7.77975833       3.80835857       0.00213531       0.00301281      -0.01107063
C        0.00133938       9.95182895       3.83768853       0.00245337       0.00250304      -0.00207411
C        7.39253116       1.40767077       3.84407244       0.00691399       0.00772841       0.00418613
C        6.18515994       3.55884482       3.80964298       0.00333158      -0.00441681       0.00857908
C        5.00748705       5.75735345       3.73103332      -0.00499552       0.00095443       0.00253443
C        3.72769860       7.78179130       3.79986782       0.00072771       0.00761424       0.00012951
C        2.46910165       9.92667167       3.84051966      -0.00059306      -0.01136866      -0.00499177
C        9.86313498       1.40721784       3.84419206      -0.00343203       0.00531719       0.00388107
C        8.62163242       3.54882560       4.01272687      -0.00487869       0.00230964       0.00521264
C        7.41207581       5.70496733       4.05610620      -0.00027161      -0.01078127       0.00437503
C        6.18468554       7.86028417       3.95127975      -0.00376244       0.00239658       0.00093803
C        4.93130156       9.95681280       3.83233069       0.00331786       0.00576908       0.00761700
Tc       2.52353470       4.85210616       3.80249094       0.00026422      -0.00166923      -0.00407756
