49
Lattice="12.336457 0.0 0.0 -6.168228499999997 10.683685154694365 0.0 0.0 0.0 15.0" Properties=species:S:1:pos:R:3:forces:R:3 energy=-435.79657157233174 free_energy=-435.79657157233174 stress="-0.0033551312006157843 0.0006113870300510434 -2.378098876035294e-06 0.0006113870300510434 0.0011696676544357336 5.029743571306892e-06 -2.378098876035294e-06 5.029743571306892e-06 -3.1773477625889288e-06" pbc="T T T"
C        0.01144218      -0.00060767       3.84014164       0.00047554       0.00844677      -0.00034211
C       -1.23601649       2.12046338       3.62539637      -0.00008290       0.00400587      -0.00301738
C       -2.49508760       4.27068473       3.70743512      -0.00141735      -0.00460586      -0.00441773
C       -3.70686065       6.41508695       3.88937254       0.00013882      -0.00039846      -0.00665359
C       -4.92013944       8.55568056       3.95128914      -0.00968931       0.00309097      -0.00020043
C        2.48115684       0.02322203       3.89007429      -0.00204995      -0.00301415       0.00541035
C        1.26104339       2.10047961       3.48450093       0.00667290      -0.00130363      -0.00611553
C       -0.16075190       4.28022692       3.06745476       0.00234468       0.00745742       0.00589890
C       -1.29107382       6.43336032       3.48305262       0.00414513      -0.00387867      -0.00098772
C       -2.45689749       8.55808710       3.81757634      -0.00780559      -0.00043194      -0.00064812
C        4.94195266       0.01662671       3.88942012       0.01016140       0.00158663      -0.00582368
C        3.73037376       2.19142790       3.88048450      -0.00394877       0.00018672       0.00760924
S        1.33143094       6.41970406       2.52818664      -0.00723853       0.01235186      -0.00475345
C        0.00037151       8.55628224       3.64174830       0.00192678      -0.01046910      -0.00092126
C        7.41449687      -0.01052096       3.89248929      -0.00153819       0.00297301       0.00282387
C        6.18834273       2.13025059       3.98195670      -0.00110947       0.00128530      -0.00444785
C        4.95673928       4.24415684       4.02267348       0.00546316      -0.00254223       0.00711223
C        3.73162804       6.37378562       3.93156308       0.00448911      -0.00012249      -0.00639562
C        2.47785873       8.52934159       3.78087376      -0.00106623       0.00203872       0.00811069
C        9.88175035      -0.01369027       3.88016651      -0.00005347      -0.00297878       0.00205123
C        8.64732480       2.12861662       3.89267517      -0.00686484      -0.00300198       0.00356734
C        7.40700547       4.26715271       3.98802081      -0.00170077       0.00141759      -0.00934027
C        6.18522025       6.41057882       4.02401753       0.00343355       0.00151452       0.00357330
C        4.94374675       8.52975247       3.94130273       0.00387103      -0.00043940       0.00477443
C        0.00820453       1.41907628       3.64679645       0.00257080       0.00941596       0.00162097
C       -1.29292166       3.53697794       3.46831631      -0.00019926       0.00145827      -0.00511516
C       -2.49677470       5.70101517       3.70986921       0.00431456      -0.00390067      -0.00107735
C       -3.69395550       7.84224247       3.89596822      -0.01132345       0.00041679       0.00599556
C       -4.91904305       9.98415511       3.90241619      -0.00513709       0.00219204       0.00539983
C        2.48755962       1.46453601       3.78770426      -0.00024144      -0.00275001       0.00427302
S        1.29838133       3.52080239       2.43559984      -0.00328364      -0.00269154       0.00403957
C       -0.15382652       5.68536933       3.10054444       0.00357903      -0.00662667      -0.00186539
C       -1.24077014       7.85146387       3.62963488      -0.00280891      -0.00390833      -0.00656149
C       -2.45851802       9.98946984       3.88188137       0.00325026       0.00275348       0.00590997
C        4.94882436       1.44515495       3.93909826       0.00016139       0.00361920       0.00090018
N        3.76703624       3.57861752       3.93681005       0.00327950      -0.00143558      -0.00853733
C        1.25290048       7.88628352       3.48507578       0.00514734      -0.00087131      -0.00647303
C        0.00767947       9.97500892       3.83201700       0.00749352      -0.00770141       0.00125525
C        7.41877485       1.41529102       3.94553377      -0.00615663       0.00098854       0.00468771
C        6.18889130       3.54140671       4.02229406       0.00374383      -0.00128660       0.00077018
C        4.94502737       5.68232084       4.02088573       0.00645324      -0.00134441      -0.00144999
C        3.70517113       7.78312579       3.87907070       0.00099791       0.00189879       0.00719787
C        2.47860309       9.95822707       3.88133977      -0.00377300       0.00314430       0.00490303
C        9.88500866       1.41439947       3.81613349      -0.00315921      -0.00087209      -0.00534589
C        8.63326766       3.55365959       3.88838475      -0.00563469      -0.00341472      -0.00531649
C        7.40463317       5.69665639       3.98935521      -0.00014177       0.00193843      -0.01254853
C        6.18291657       7.83451211       3.98541993      -0.00037246       0.00019406      -0.00171603
C        4.94477208       9.95626963       3.89192293       0.00443385       0.00015389       0.00151057
Tc       2.25049378       4.93235835       3.95077460      -0.00175040      -0.00453913       0.01067611
