50
Lattice="12.336457 0.0 0.0 -6.168228499999997 10.683685154694365 0.0 0.0 0.0 15.0" Properties=species:S:1:pos:R:3:forces:R:3 energy=-442.366482358389 free_energy=-442.366482358389 stress="-0.008954666339201401 -0.0006969205870601085 -5.643693965143278e-06 -0.0006969205870601085 -0.000458247344282741 -7.553872610026035e-06 -5.643693965143278e-06 -7.553872610026035e-06 2.827312208796611e-06" pbc="T T T"
C       -0.00367492       0.00591583       3.79669110      -0.00574102      -0.00522630      -0.00042370
C       -1.25722275       2.12999880       3.72649759      -0.00296541      -0.00506996       0.00831001
C       -2.49916343       4.27582740       4.00651648       0.00750613       0.00159593      -0.00085323
C       -3.70605330       6.43175359       4.10837085       0.00299696       0.01153798       0.00771366
C       -4.92573325       8.58071440       3.99741051      -0.00584723      -0.00117312       0.00301269
C        2.46758723       0.01986699       3.75037770      -0.00405845      -0.00327245       0.00245797
C        1.20897920       2.08781145       3.32872224      -0.00365622      -0.00510292      -0.01168296
C       -0.15578164       4.32791779       3.51340523      -0.00556176       0.00529221      -0.01542309
C       -1.29684407       6.44250424       3.95855373      -0.00250971       0.00148553       0.00065029
C       -2.47763490       8.57758966       3.98924661       0.00476354      -0.00239645       0.00102501
C        4.93503582       0.00510306       3.77927050       0.00151099      -0.00979178       0.00169910
C        3.72001407       2.08804679       3.28651067       0.00886125      -0.00637593      -0.00049917
C        1.14869500       6.39123920       3.70286720      -0.00476350       0.00020387      -0.00227687
C       -0.00797092       8.54296133       3.88196526       0.00116688       0.00125469       0.00217079
C        7.40550231      -0.02480208       3.84228129       0.00480062      -0.00100198       0.00378741
C        6.17593982       2.13575556       3.72418395       0.00197659      -0.00416814      -0.00201323
C        5.06833824       4.34919366       3.49908557       0.00584829       0.00645839      -0.01208245
N        3.82651219       6.41324514       3.64249686      -0.00150821       0.00402714       0.00372061
C        2.47948255       8.49222788       3.82614983      -0.00145641       0.00880291      -0.00360402
C        9.86125271      -0.02473702       3.84589191       0.00382278       0.00538631       0.01171547
C        8.62789521       2.12569876       3.92283481      -0.00579622       0.00311419      -0.00151746
C        7.40950799       4.27992406       4.01689152       0.00574433       0.00231376      -0.00743279
C        6.21830226       6.45596892       3.95502727       0.00496083      -0.00540170       0.00123739
C        4.94632141       8.54045216       3.88672874      -0.00054394      -0.00387089      -0.00327868
C       -0.01359883       1.42817235       3.62167770      -0.00442308      -0.00632020       0.00053465
C       -1.29366254       3.55374053       3.77717513       0.00492351      -0.00363852      -0.00241124
C       -2.49646846       5.70746103       4.05832786      -0.00059698       0.00445767       0.00598679
C       -3.70137590       7.86143228       4.05605715       0.00009834       0.00936541       0.01133037
C       -4.93075345       9.99931967       3.86321656      -0.00701391      -0.00309100       0.00255553
C        2.46703045       1.42978325       3.43616278       0.00210731      -0.00249146      -0.01037845
S        1.06878796       3.63885871       2.49026090      -0.00725040       0.00251672      -0.00036093
C       -0.09530670       5.72657134       3.73335516      -0.00415082       0.00409110      -0.00564552
C       -1.25405158       7.86174269       3.96786798       0.00403744      -0.00193932       0.00259027
C       -2.47121316       9.99541498       3.85304333      -0.00147792      -0.00606472       0.00034069
C        4.93973940       1.42867315       3.59698623       0.00545698      -0.01027854       0.00440770
S        3.86411175       3.64634007       2.44326252      -0.00712304       0.00619217       0.00450292
C        1.22908286       7.79039725       3.81289961      -0.00100879       0.00324129       0.00058244
C       -0.00013592       9.96177865       3.84509822       0.00410693      -0.00081016       0.00897930
C        7.39418175       1.41154562       3.84957836      -0.00063172      -0.00327748      -0.00148444
C        6.20099622       3.56485644       3.78205146       0.00253314       0.00088535      -0.00863966
C        5.03703493       5.75956521       3.69110368      -0.00146938       0.00477186       0.00360685
C        3.73421986       7.78805640       3.80752739      -0.00387160       0.00525458      -0.00301536
C        2.46881815       9.92717981       3.85112442       0.00665388       0.00681014       0.00082977
C        9.86257922       1.41038452       3.85030306      -0.00696996       0.00325387       0.00915830
C        8.62373464       3.55193046       4.02568553       0.00536153       0.00325295      -0.00186059
C        7.41717311       5.71047849       4.06821587       0.00872163       0.00258657      -0.00301611
C        6.18714452       7.86893197       3.97255931      -0.00146177      -0.00802729      -0.00332974
C        4.93138561       9.96274544       3.85501491      -0.00130309      -0.00343313       0.00819689
Tc       2.47900815       4.91510597       3.90125484       0.00220168      -0.01475897       0.00303682
O        2.58317911       4.48001142       5.55004600      -0.00700101       0.00882980      -0.01290999
