50
Lattice="12.336457 0.0 0.0 -6.168228499999997 10.683685154694365 0.0 0.0 0.0 15.0" Properties=species:S:1:pos:R:3:forces:R:3 energy=-442.99266626671306 free_energy=-442.99266626671306 stress="-0.003935165134364253 0.0006862673496763242 -4.4015423010191e-06 0.0006862673496763242 0.0016038037390283448 8.017244285241291e-06 -4.4015423010191e-06 8.017244285241291e-06 -1.2095244631974534e-05" pbc="T T T"
C        0.02280306       0.00268407       3.84623643       0.01055738      -0.00976175      -0.00510294
C       -1.22395764       2.12276361       3.60018670       0.00089244      -0.00744741      -0.00407562
C       -2.48637815       4.27086981       3.67158601       0.00375173       0.00119068      -0.00188299
C       -3.69320651       6.41771647       3.88022196      -0.00537221      -0.00110802       0.00122429
C       -4.90770428       8.55930549       3.96328446      -0.00220405       0.00126980       0.00377130
C        2.49378022       0.02633505       3.89818630       0.00516759      -0.00199054       0.00825839
C        1.27194388       2.09474426       3.47096961       0.00201356       0.00132300      -0.00062202
C       -0.16988002       4.28519223       3.00065538       0.00266621      -0.00477742      -0.00252527
C       -1.28773869       6.43568775       3.43842127       0.01066248       0.00855055      -0.00479188
C       -2.44412595       8.55899029       3.81492826      -0.01467601       0.00915130      -0.00350283
C        4.95534014       0.01613677       3.90087397       0.00359230      -0.00571093       0.00045444
C        3.74633807       2.19018770       3.89921250       0.00147118      -0.00107375       0.00358401
S        1.32646628       6.44350827       2.48329395      -0.00225452      -0.00198213       0.00793065
C        0.01218166       8.55492621       3.63850496      -0.00097599       0.00500029      -0.00457649
C        7.42859889      -0.01379927       3.90232046      -0.00912524       0.00753969      -0.00768894
C        6.20325692       2.12862620       3.99865973      -0.00114609      -0.00265831       0.00049932
C        4.98902416       4.24236209       4.05577829       0.00131217       0.00865930       0.00426098
C        3.74932523       6.36415480       3.97581249      -0.00297357       0.00179286       0.00321522
C        2.49038031       8.52547772       3.78751374      -0.00023679      -0.00225249      -0.00164464
C        9.89556730      -0.01380382       3.87953262      -0.00759830      -0.00242384       0.00873332
C        8.66112638       2.12706303       3.88335049      -0.00392990       0.00275967       0.01253867
C        7.42652352       4.26879869       3.99336668       0.00001137      -0.00898602      -0.00742459
C        6.20426471       6.41285899       4.04844171       0.00282866      -0.00115843      -0.00054076
C        4.95540808       8.53011328       3.95942988       0.00748906      -0.00555543      -0.00427060
C        0.02168308       1.42280728       3.63515739       0.00578975      -0.00846429      -0.00430299
C       -1.28649270       3.53776675       3.41930458       0.00288288      -0.00591141      -0.00233454
C       -2.48884234       5.70181427       3.67733000       0.00514414       0.00633547       0.00135805
C       -3.68139025       7.84507380       3.89647335      -0.01131931       0.00215639       0.00230489
C       -4.90799628       9.98808668       3.91446002       0.01059508      -0.00468701      -0.00872789
C        2.49941144       1.46419925       3.79200901       0.00078851      -0.00308694       0.00489489
S        1.31951989       3.52843690       2.43960533      -0.01054764       0.01322959      -0.00075712
C       -0.16399248       5.68733652       3.03428706       0.00698005      -0.00297100      -0.01225502
C       -1.23067930       7.85164772       3.61182379      -0.00623363       0.01301298       0.00269355
C       -2.44500421       9.99037697       3.88926145       0.00065310       0.00379936       0.01008331
C        4.96036356       1.44716315       3.95657865       0.00259234      -0.00810137      -0.00185965
N        3.79715686       3.57369178       3.97100617      -0.00609514       0.00905450       0.00366426
C        1.26220321       7.88884254       3.47710870       0.00102480       0.00036906      -0.00772317
C        0.02027967       9.97339040       3.84226068      -0.00049516      -0.00004952      -0.00350346
C        7.43287834       1.41266954       3.95284744      -0.00416141       0.00467348       0.00035686
C        6.21035898       3.54020992       4.04316456      -0.00176847      -0.00283738       0.00001942
C        4.97502764       5.68219552       4.05867529       0.00225473       0.00671598       0.00148737
C        3.71949690       7.78062036       3.89932037       0.00249737      -0.00067535       0.00870406
C        2.49316419       9.95516373       3.88633963      -0.01286981       0.00161181       0.00346990
C        9.89919430       1.41499219       3.80252048      -0.00673088       0.00007353      -0.00184950
C        8.64772394       3.55281132       3.87386602       0.00333087      -0.00122018      -0.00020531
C        7.42302376       5.69787635       3.99623186      -0.00276073      -0.00962480      -0.00379740
C        6.19638800       7.83798441       4.00527841       0.00622111      -0.00275443       0.00101755
C        4.95768381       9.95839211       3.90010881       0.00245798      -0.00507856      -0.00322516
Tc       2.25412252       4.97421677       4.06523809       0.00522671       0.00590388      -0.00191711
O        1.62326697       4.85224160       5.64771212       0.00261935      -0.00182448       0.00658319
