50
Lattice="12.336457 0.0 0.0 -6.168228499999997 10.683685154694365 0.0 0.0 0.0 15.0" Properties=species:S:1:pos:R:3:forces:R:3 energy=-439.0945952790664 free_energy=-439.0945952790664 stress="-0.009060499985408437 0.004660508946222504 1.4688179270315519e-05 0.004660508946222504 -0.004629825195818398 -1.6432342760102563e-06 1.4688179270315519e-05 -1.6432342760102563e-06 1.121663335068238e-05" pbc="T T T"
C       -0.00185150      -0.04782630       3.76311221      -0.01048790      -0.00248240       0.00901769
C       -1.21175848       2.11201292       3.79713044       0.00559495      -0.00600327       0.00471235
C       -2.44573712       4.24890959       3.45105131      -0.00322276      -0.00225073       0.00983598
C       -3.69053814       6.38758630       3.30335868       0.00393316       0.00488124       0.00590554
C       -4.95313643       8.51418493       3.45859789      -0.00193678       0.00930381      -0.00398797
C        2.46665464      -0.05447382       3.81978278       0.00197131       0.01026665      -0.00073180
C        1.23552660       1.99820973       4.31413046      -0.00178192       0.00479753       0.00717813
C       -0.09778810       4.35867121       3.94044280      -0.00071613      -0.00302169      -0.00767973
C       -1.26687823       6.43240440       3.40831627       0.00422248       0.00231622       0.00366477
C       -2.48794286       8.54208703       3.41676711      -0.00468779      -0.00118975      -0.00279080
C        4.93572511      -0.02992425       3.71966619       0.00520078      -0.00678213      -0.00426515
C        3.75264547       1.97781234       4.40279457      -0.00013643       0.00701192      -0.00246934
N        1.04522273       6.49167144       4.06813370       0.01225147      -0.00425071       0.00428103
C       -0.03193776       8.53720440       3.54519441      -0.00444471       0.00201232       0.01072736
C        7.40985427      -0.03410386       3.67715628       0.00727286       0.00312993      -0.00912994
C        6.21674211       2.08341700       3.86770689      -0.00681098       0.00162444       0.00669143
C        5.13116896       4.27111654       4.09629794      -0.00725883      -0.00774280      -0.01641432
S        3.51450188       6.14691501       3.15396685       0.00655502      -0.00971274      -0.00637866
C        2.43628823       8.50938941       3.71594701       0.00115734      -0.00348741      -0.00256219
C        9.87675840      -0.03899389       3.69045067      -0.00230889      -0.00609794       0.00143908
C        8.66810779       2.09873827       3.60942494       0.00488553      -0.00985066      -0.00176725
C        7.45868609       4.22814218       3.50504145      -0.00069804       0.00710959       0.00278510
C        6.21048808       6.36979923       3.41856122      -0.00468404       0.00521210      -0.00271938
C        4.91612418       8.49415815       3.54242732      -0.00064509       0.00094855      -0.00721991
C        0.00043664       1.37137008       3.96607376       0.00220783      -0.00270339       0.00004045
C       -1.23581987       3.54815482       3.70282102      -0.00336653      -0.00371501       0.01060227
C       -2.46229063       5.67715509       3.34374176       0.00537301       0.00135780      -0.00651520
C       -3.71319050       7.81487985       3.35761177      -0.00300177       0.00311309       0.00764918
C       -4.94043747       9.93015021       3.67205055      -0.00413820       0.01006187       0.00367700
C        2.49097864       1.31656154       4.20555513      -0.00105235       0.00714235       0.01608194
P        1.24225992       3.67741517       4.79975310       0.00012874       0.00495006       0.00653721
C       -0.07416082       5.77708065       3.75450751       0.00892505      -0.00278916      -0.00443479
C       -1.26109364       7.84095358       3.41100744      -0.00507050       0.00280250       0.00623281
C       -2.47257715       9.94823786       3.63366558       0.00083019      -0.00128694      -0.00429941
C        4.96839622       1.36764481       4.00062821      -0.00559194      -0.00445501      -0.00319837
P        3.92321295       3.58274433       5.20614548       0.00265142       0.00278371      -0.01422024
C        1.16715320       7.81337350       3.74884796       0.00013426      -0.00305474      -0.00897703
C       -0.00410825       9.95329210       3.61649690       0.00946642       0.00052928      -0.00178449
C        7.43030042       1.38508130       3.69574515      -0.00209240       0.00171346       0.00800443
C        6.27695921       3.50259155       3.81762813      -0.00079904       0.00316800       0.00298605
C        5.06093572       5.58803885       3.61580132       0.00292019      -0.00834342      -0.00763166
C        3.65780581       7.83204778       3.56941130       0.00219433      -0.00238441      -0.00399225
C        2.46624162       9.93855442       3.69064546       0.00133582      -0.00258539       0.00717983
C        9.89734390       1.39329256       3.68234085       0.00830596      -0.00929963      -0.00334804
C        8.67763376       3.51915624       3.48327794      -0.00260946      -0.00579751      -0.00219542
C        7.44112127       5.65348683       3.38214151      -0.00177844       0.01021200      -0.00568197
C        6.15628965       7.79318276       3.43278942      -0.00066116       0.00576053      -0.00652573
C        4.93176175       9.92600872       3.66075701      -0.00806454      -0.00462955       0.00862559
Tc       2.55017916       5.42719602       5.20063052       0.00207245       0.00742438       0.00492226
O        2.46108972       6.44104310       6.56633120      -0.01154396      -0.00571692      -0.00785646
