52
Lattice="12.336457 0.0 0.0 -6.168228499999997 10.683685154694365 0.0 0.0 0.0 15.0" Properties=species:S:1:pos:R:3:forces:R:3 energy=-447.77840978650937 free_energy=-447.77840978650937 stress="-0.008231619022493405 0.004878147724570279 3.184512647945063e-05 0.004878147724570279 -0.005014814636186375 -1.3065838425506376e-05 3.184512647945063e-05 -1.3065838425506376e-05 1.3297043722654095e-05" pbc="T T T"
C        0.03028742      -0.07633771       3.80674285      -0.00411061      -0.00297105       0.00059410
C       -1.17896327       2.08360045       3.86075054       0.00064557       0.00328443       0.00594024
C       -2.41019758       4.21984227       3.50918586       0.00240337       0.00695278       0.00502654
C       -3.65845859       6.35676778       3.33152548       0.00428784       0.00778657       0.00333414
C       -4.92420112       8.48390712       3.48320718      -0.00474736      -0.00349646      -0.00707647
C        2.49680076      -0.08570648       3.83757315       0.00161346      -0.00131992       0.00152683
C        1.27171559       1.97197579       4.34799728       0.00952570      -0.00020113      -0.00289467
C       -0.07115540       4.33040862       4.04811624       0.00555082      -0.00364012      -0.00460636
C       -1.23516659       6.40196217       3.51469736       0.00831438       0.00114776      -0.00430223
C       -2.45673574       8.50843338       3.46529140       0.00253209       0.00043023       0.00826797
C        4.96832198      -0.06392074       3.74491997       0.00165689      -0.00124685       0.00506260
C        3.78147722       1.95163583       4.37752255       0.00173291       0.00556680      -0.00090465
N        1.06522607       6.46866406       4.23782438      -0.00884877      -0.00117690      -0.00899963
C        0.00155957       8.50157010       3.64674563       0.00062096       0.00203398      -0.00782064
C        7.44198480      -0.06408854       3.72986839      -0.00086791      -0.00094620       0.00638660
C        6.24888670       2.05285172       3.86179937      -0.00436183      -0.01301236       0.00210374
C        5.15953587       4.23284611       4.03608725       0.00306255       0.00465136       0.00676533
S        3.50331690       6.12346674       3.38025672       0.00036018      -0.00089635       0.00586354
C        2.46578864       8.48464397       3.80990381      -0.00032344       0.00475170      -0.00227108
C        9.90958661      -0.06815909       3.75266119      -0.00239592       0.00112045      -0.00345802
C        8.70286049       2.06864300       3.64139489      -0.00074351      -0.00346564       0.00774907
C        7.49237207       4.19806457       3.49156968      -0.00155252      -0.00053917       0.00686996
C        6.23341570       6.33997722       3.40463613      -0.00393771       0.00300545      -0.00695414
C        4.94551266       8.46661932       3.58841329       0.00037567      -0.00256902      -0.00443687
C        0.03455031       1.34381887       4.01694486       0.00184768       0.00020280       0.00248040
C       -1.20216894       3.52166125       3.78364201      -0.00052771       0.00537343       0.00658437
C       -2.42762972       5.64744313       3.40844824       0.00808149       0.00676242      -0.00355627
C       -3.68292589       7.78355686       3.39066053      -0.00092438       0.00533926       0.00164591
C       -4.91107821       9.89939532       3.70133102      -0.00379070      -0.00393274      -0.00147076
C        2.52090151       1.28742291       4.21463980       0.00584185       0.00410347      -0.00579049
P        1.28713932       3.64347887       4.86506709       0.00239599      -0.00156992       0.00118158
C       -0.03994213       5.75314391       3.88600130      -0.00074867      -0.00747046      -0.00218238
C       -1.22968730       7.80746377       3.50204229       0.00621828      -0.00172961      -0.00268617
C       -2.44114302       9.91596683       3.66146149       0.00212564       0.00084077       0.00149182
C        4.99982030       1.33795799       3.99608801      -0.00269683      -0.00467563       0.00130182
P        3.92226948       3.57066055       5.10286562      -0.01026313      -0.00592240       0.00238857
C        1.19947259       7.77783138       3.87920713       0.00039280      -0.00458756      -0.00345836
C        0.03074005       9.91909709       3.67632031       0.00177458       0.00011836      -0.00307635
C        7.46479187       1.35426551       3.71920993      -0.00113531      -0.00553898       0.00524856
C        6.30837554       3.46934227       3.78621297      -0.00167146      -0.00943809       0.00422472
C        5.08859892       5.55608015       3.59953455      -0.00291169       0.00138899      -0.00615577
C        3.68589600       7.81487991       3.64288578       0.00502255       0.00204443      -0.00209186
C        2.49744587       9.90874684       3.76292193      -0.00093050       0.00494487       0.00683349
C        9.93090722       1.36405245       3.73690132       0.00078182       0.00065827      -0.00534475
C        8.71332162       3.48877281       3.50535489       0.00116954      -0.00138027       0.00664284
C        7.47022541       5.62319044       3.37171494      -0.00119988       0.00499060       0.00371184
C        6.18366928       7.76436230       3.45360351      -0.00289988      -0.00299993      -0.00635404
C        4.96325699       9.89869027       3.71455335      -0.00449221      -0.00482142      -0.00643765
Tc       2.56273596       5.36906234       5.44086621      -0.00018553       0.00427325       0.00432368
O        2.28863301       6.88890413       6.55234515       0.00003274      -0.00101897      -0.00672942
O        2.20474065       5.81242891       7.55747447       0.00010801      -0.00057656      -0.01559042
H        2.97177649       5.98255829       8.14193944      -0.01220792       0.00937128       0.01109920
