49
Lattice="12.336457 0.0 0.0 -6.168228499999997 10.683685154694365 0.0 0.0 0.0 15.0" Properties=species:S:1:pos:R:3:forces:R:3 energy=-433.95278505141414 free_energy=-433.95278505141414 stress="-0.004383761172660393 -0.005414418533866318 -5.06034758519912e-06 -0.005414418533866318 -0.003164731834782167 7.96690857941612e-06 -5.06034758519912e-06 7.96690857941612e-06 -6.590694642023088e-07" pbc="T T T"
C        0.00167318      -0.02586546       3.97630415      -0.00087716       0.00436657       0.00028390
C       -1.27205650       2.08660532       3.93740438       0.00219993      -0.00371753       0.00690889
C       -2.48233684       4.25463308       3.87697784       0.00313348       0.00394839       0.00649786
C       -3.65650673       6.40702198       3.91135968       0.00122006      -0.01321567      -0.00286721
C       -4.89294603       8.55334870       3.96552221       0.00526181      -0.00334256      -0.00221163
C        2.47599683       0.00016760       3.87872206      -0.00959704       0.00061383       0.00357471
C        1.18144326       2.07436880       3.91014602       0.00463419       0.00021036       0.00255776
C       -0.08413154       4.18728971       3.73538404      -0.00879793       0.00897889       0.01007514
C       -1.19904178       6.37926712       3.71592970       0.00222565       0.00428610      -0.00548965
C       -2.42864560       8.53379245       3.81122908       0.00527234      -0.00241437       0.00146062
C        4.93655176       0.00122283       3.70787930      -0.00043335       0.00205460      -0.00553989
C        3.65770902       2.12168944       3.53223530      -0.00387561      -0.00165756      -0.00502149
P        1.27369789       6.32387312       2.40941194      -0.00257549       0.00725688       0.00425581
C        0.02208185       8.53687677       3.56107566       0.00337917      -0.00295671       0.00798115
C        7.40091344      -0.00840048       3.73338753       0.00238899      -0.00019557      -0.00007334
C        6.15404855       2.14763907       3.68207455      -0.00232722       0.00266615      -0.00090305
C        5.00568134       4.36740595       3.59532529       0.00226203      -0.00363109      -0.00487467
N        3.79005974       6.43437028       3.71006298      -0.00051505       0.00375020       0.00312869
C        2.49710220       8.52968642       3.62804670      -0.01114884      -0.00206869       0.00649001
C        9.85950916      -0.02983940       3.89478358       0.00110033      -0.00395288      -0.00051665
C        8.61464591       2.12324174       3.86321680      -0.00187689       0.00638565       0.00415580
C        7.41157419       4.28061245       3.85379205       0.00556171      -0.00276024      -0.00265548
C        6.22974823       6.45084344       3.90347075       0.00421331      -0.00140174      -0.00342889
C        4.96617058       8.53622674       3.89395385       0.00143004       0.00386153      -0.00920217
C       -0.02969241       1.39048618       3.96717518       0.00623079       0.00074447      -0.00315881
C       -1.28056411       3.49904233       3.85792102      -0.00422284      -0.00088604       0.01215603
C       -2.42744094       5.68080143       3.85284245       0.00482181      -0.00043394      -0.00401759
C       -3.65812604       7.83151275       3.91326255       0.00706008      -0.01165103      -0.00397355
C       -4.91514085       9.97362619       3.96135440      -0.00668849      -0.00042663       0.00382884
C        2.43954175       1.42858395       3.79515581      -0.00102883      -0.00283303      -0.00097167
O        1.11067195       3.50482696       3.93464434      -0.01148864       0.00136192       0.00718948
C        0.04449705       5.58482101       3.56647436       0.00707885       0.01049840       0.00072960
C       -1.19888241       7.80571249       3.67669398       0.00713688      -0.00113117       0.00831289
C       -2.45236942       9.96609846       3.79975848      -0.00491961       0.00307431      -0.00267093
C        4.91253071       1.43817176       3.63183140      -0.00303193       0.00381800      -0.01153665
P        3.52864906       3.78752276       2.88549876      -0.00246365      -0.00233135      -0.00002664
C        1.27760798       7.85874449       3.36621769      -0.00748321       0.00028603      -0.01027395
C        0.00431818       9.96352741       3.67145781       0.00319596      -0.00107581      -0.00462178
C        7.38249643       1.42140898       3.77070295      -0.00212599       0.00352590      -0.00367642
C        6.18313015       3.57748312       3.71524670       0.00781546      -0.00117736      -0.00364200
C        5.00072131       5.77971661       3.75891348       0.00053711       0.00212049      -0.00881904
C        3.74803901       7.81186224       3.74557064      -0.00647267       0.00604909       0.00070980
C        2.46944655       9.95306853       3.77184525      -0.00081536      -0.00540439       0.00925048
C        9.84589242       1.39462797       3.91715906      -0.00128663      -0.00098979       0.01296228
C        8.62431054       3.55157727       3.88368302       0.00516442       0.00642958      -0.00277387
C        7.44219670       5.70719217       3.90861655      -0.00098592      -0.00848658       0.00419095
C        6.21345023       7.85569214       3.94724680       0.00362633      -0.00031605      -0.00858947
C        4.93653594       9.94868833       3.93854436       0.00252833       0.00289076      -0.00891163
Tc       2.21263145       5.19767595       4.02920705      -0.00444071      -0.01072030       0.00374743
