51
Lattice="12.336457 0.0 0.0 -6.168228499999997 10.683685154694365 0.0 0.0 0.0 15.0" Properties=species:S:1:pos:R:3:initial_magmoms:R:1:forces:R:3 energy=-445.62997283113 free_energy=-445.62997283113 stress="-0.005967436875710254 -0.0071242321885938865 -8.386828239424947e-05 -0.0071242321885938865 -0.003975230933979164 6.796784870780939e-05 -8.386828239424947e-05 6.796784870780939e-05 -0.00010077585961134175" pbc="T T T"
C       -0.09364808      -0.02348136       3.60334098       0.00000000      -0.01422727      -0.00386933      -0.00815706
C       -1.37806504       2.08345774       3.63600578       0.00000000      -0.02008385       0.00018386      -0.00213046
C       -2.58841843       4.24323926       3.67692188       0.00000000      -0.00597487      -0.02947128       0.00206265
C       -3.75978337       6.39753738       3.64938681       0.00000000       0.00532740      -0.00050510      -0.01363853
C       -4.98503976       8.55007729       3.60319256       0.00000000      -0.01283320       0.02207978       0.00238942
C        2.36575399      -0.00981152       3.78034229       0.00000000      -0.00273947      -0.00051858       0.00064887
C        1.04949796       2.08038729       3.83944668       0.00000000       0.03406210       0.02786291       0.00751661
C       -0.19688757       4.13394050       4.00994320       0.00000000      -0.02603501      -0.00703601       0.00440804
C       -1.31518850       6.34828703       3.94712784       0.00000000       0.00526989      -0.00492902      -0.00050472
C       -2.52832129       8.51911541       3.82675964       0.00000000      -0.00378138       0.02189194      -0.00336140
C        4.83208707      -0.00867141       3.76400725       0.00000000       0.01421708      -0.02072494       0.01086275
C        3.54413043       2.10173822       3.57375842       0.00000000      -0.00518374      -0.00330375      -0.00094350
P        1.37871437       6.20214304       4.59077199       0.00000000      -0.00693728       0.03185097      -0.03573187
C       -0.07211721       8.52184850       3.95002893       0.00000000      -0.00105950      -0.02624556       0.00271614
C        7.29016142      -0.01719464       3.66933841       0.00000000       0.00662471      -0.00057149      -0.00187721
C        6.03902013       2.14348078       3.57822524       0.00000000       0.00497396       0.01130516       0.00863399
C        4.85383282       4.36493372       3.53528187       0.00000000      -0.00650483       0.01757621       0.00901720
N        3.75508741       6.46050622       3.51042323       0.00000000       0.01705447       0.00955484       0.00311646
C        2.40238092       8.53354876       3.73457691       0.00000000      -0.00573122       0.00132681      -0.00137285
C        9.75835182      -0.02883477       3.54323747       0.00000000       0.00147138      -0.01809275      -0.00032178
C        8.50370413       2.11374033       3.56772326       0.00000000       0.00147370       0.01362153      -0.00290673
C        7.29875271       4.26734917       3.54416049       0.00000000       0.01265701      -0.01301388      -0.00030392
C        6.15976353       6.46248027       3.40281753       0.00000000       0.01454217      -0.01891792      -0.00380252
C        4.87787831       8.55036644       3.48373922       0.00000000       0.01357095      -0.01102807       0.00350588
C       -0.13477439       1.39110717       3.67320113       0.00000000      -0.01581371      -0.03392318       0.01645368
C       -1.38413932       3.48909740       3.73757460       0.00000000      -0.01801840      -0.02202820       0.00190613
C       -2.54873308       5.66207488       3.75498527       0.00000000       0.01085911       0.01703370      -0.00036793
C       -3.75704385       7.82215436       3.69743166       0.00000000      -0.00326803      -0.02040921      -0.01665974
C       -5.01903693       9.96709042       3.67566938       0.00000000      -0.00709008      -0.00330848       0.00123400
C        2.31768071       1.41188020       3.77017865       0.00000000       0.00126320      -0.00256645       0.00297171
O        0.95310861       3.39897987       4.21390225       0.00000000      -0.00641225      -0.01215562       0.00294073
C       -0.15282558       5.53444018       4.13467735       0.00000000      -0.01373628       0.01714513       0.00146515
C       -1.29545372       7.78869233       3.93906405       0.00000000      -0.00012465      -0.01424017      -0.00923077
C       -2.55594585       9.95346037       3.80636170       0.00000000       0.00324739       0.03397548       0.00541535
C        4.79878475       1.42452404       3.63315689       0.00000000      -0.00306655       0.03050341      -0.00560445
P        3.33191513       3.76124115       2.88746453       0.00000000       0.00454865      -0.01311585      -0.00488557
C        1.19430714       7.85020843       4.03920905       0.00000000      -0.00291371       0.00590172      -0.01193100
C       -0.09838222       9.95455132       3.79774370       0.00000000       0.00535181      -0.00416827      -0.01528796
C        7.27201242       1.41080907       3.59336318       0.00000000       0.00011486       0.00034845      -0.00765071
C        6.07450492       3.56006069       3.54180719       0.00000000       0.01737511      -0.02415768      -0.00324087
C        4.93630746       5.80503811       3.42262175       0.00000000      -0.00215901       0.00746921       0.01217698
C        3.66032768       7.83447120       3.57102767       0.00000000       0.01667341      -0.01009916      -0.00554556
C        2.36416760       9.95033666       3.62159637       0.00000000       0.01569044       0.00564567       0.00297534
C        9.73985479       1.39071044       3.56191414       0.00000000      -0.00072485       0.01781389      -0.00848280
C        8.51644697       3.53906775       3.58072541       0.00000000       0.01416776       0.00325773       0.00930842
C        7.35106744       5.70121510       3.51738366       0.00000000      -0.00814993       0.00969275      -0.00701641
C        6.12909492       7.86538068       3.46547476       0.00000000      -0.01482195       0.01299967      -0.00973849
C        4.84236886       9.95990877       3.52567073       0.00000000      -0.01774073       0.01959395       0.01747728
Tc       3.23533421       4.97073495       4.82426538       0.00000000      -0.12377800       0.07720373      -0.06634417
O        4.46775469       4.93315545       6.35855147       1.00000000      -0.01026697      -0.00247059      -0.02025023
O        3.83086914       6.14906131       6.29865659       1.00000000       0.13864014      -0.09496794       0.13808644
