50
Lattice="12.336457 0.0 0.0 -6.168228499999997 10.683685154694365 0.0 0.0 0.0 15.0" Properties=species:S:1:pos:R:3:forces:R:3 energy=-436.203995723446 free_energy=-436.203995723446 stress="-0.0019514732333266336 -0.004068784106244099 -1.5128222824554717e-06 -0.004068784106244099 -0.0037949922059214536 1.6805504365716e-05 -1.5128222824554717e-06 1.6805504365716e-05 1.1553641459873036e-05" pbc="T T T"
C        0.05800772      -0.01219093       3.79591833      -0.00029796       0.00396673       0.00592341
C       -1.20913312       2.10864896       3.54824158      -0.00121952      -0.00312762       0.00642954
C       -2.43951494       4.25643970       3.62116850       0.00222336      -0.00405567      -0.00061842
C       -3.62232233       6.40476553       3.85022259      -0.00254793      -0.00125172       0.00555014
C       -4.85080147       8.54142754       3.93693665      -0.00011044       0.00360960      -0.00449972
C        2.53298067      -0.04763287       3.75127526       0.00070245      -0.00070575      -0.00818450
C        1.27531231       2.03534299       3.33724465       0.00126057      -0.00255165       0.00031590
C       -0.11928164       4.21725867       2.87739020       0.00155982       0.00924657      -0.00035953
C       -1.21508702       6.41425509       3.37858194      -0.00147403      -0.00223708       0.00659856
C       -2.37799256       8.52684050       3.75237799       0.00174725      -0.00150596      -0.00444588
C        5.00626218      -0.01542361       3.85461611      -0.00019993       0.00082559       0.00184784
C        3.72073915       2.07214870       3.83232807       0.00055826      -0.00136256      -0.00362748
P        1.48683582       6.45414375       2.43181574      -0.00423327      -0.00175181      -0.00346262
C        0.09353774       8.53137083       3.65266900       0.00458742      -0.00005167      -0.00463488
C        7.46444375      -0.00690489       3.94293037       0.00208278       0.00252752       0.00407051
C        6.20491071       2.15556369       4.01901417       0.00304967      -0.00114112       0.00081736
C        5.03225260       4.39640022       4.22533351      -0.00144458      -0.00066016      -0.00430230
O        3.87211780       6.50740426       4.32682314       0.00497772       0.00226323      -0.00916409
C        2.57368313       8.52992887       3.90862763      -0.00424750      -0.00229003       0.00597948
C        9.92966014      -0.00513151       3.93563591      -0.00337300      -0.00477219      -0.00530389
C        8.67875718       2.13518296       3.89476072      -0.00143163       0.00419327      -0.00613448
C        7.45999533       4.28403490       4.01470249       0.00042046       0.00441513       0.00030051
C        6.27850912       6.45436227       4.17043801      -0.00348317      -0.00056703      -0.00882922
C        5.02245660       8.55738989       4.06296464      -0.00172625      -0.00157287       0.00307150
C        0.03321453       1.39350976       3.55177101      -0.00137576      -0.00079098      -0.00485255
C       -1.25519104       3.51087035       3.34651267       0.00676766      -0.00080677       0.00540042
C       -2.41411379       5.69100453       3.62105348      -0.00378194      -0.00492298       0.00065893
C       -3.61328399       7.82531347       3.85050283      -0.00018512      -0.00025015       0.00268547
C       -4.87055762       9.95377076       3.82381897       0.00081464       0.00518490      -0.00249394
C        2.51160510       1.35565328       3.62884379      -0.00272479      -0.00465317      -0.00138706
S        1.28918176       3.38100121       2.17334999      -0.00174639       0.00444424       0.00622947
C       -0.06106144       5.67480054       2.92351914       0.00624595       0.00812333      -0.00056688
C       -1.15193599       7.81783438       3.58059521       0.00286476      -0.00199765      -0.00292317
C       -2.38595155       9.94583544       3.79914614       0.00062334      -0.00115680       0.00004906
C        4.98713195       1.41840264       3.92947817      -0.00065930       0.00042423       0.00204480
P        3.43090044       3.74698725       4.12763864       0.00309587       0.00192154       0.00525347
C        1.35165235       7.85420139       3.56436212       0.00099119      -0.00332725      -0.00215446
C        0.07335991       9.95505861       3.84622392       0.00298091       0.00248869       0.00120723
C        7.44407111       1.42867891       3.97762248       0.00241836       0.00307971       0.00371970
C        6.21533990       3.59355199       4.10165675       0.00133062       0.00162250       0.00236794
C        5.06604419       5.80464626       4.27158636       0.00113769      -0.00194671      -0.00292798
C        3.82691473       7.85444030       4.07269684      -0.00232179      -0.00021904       0.00365510
C        2.54055988       9.95552533       3.97222718      -0.00339061      -0.00329333      -0.00266194
C        9.91555943       1.41878384       3.81070412      -0.00558314      -0.00368383      -0.00431289
C        8.67924569       3.55786593       3.85798540      -0.00038698       0.00437480      -0.00377417
C        7.48830686       5.70383655       4.02703182      -0.00328165       0.00209821       0.00479485
C        6.26615799       7.85936279       4.08012237      -0.00056623      -0.00067589      -0.00194190
C        4.99633515       9.97596804       3.93878293       0.00005314      -0.00047057       0.00786528
Tc       1.50741341       4.85829521       4.12045348      -0.00348946       0.00551503       0.01432049
O        0.82616958       4.92771026       5.70211060       0.00278850      -0.01252481      -0.00759302
