51
Lattice="12.336457 0.0 0.0 -6.168228499999997 10.683685154694365 0.0 0.0 0.0 15.0" Properties=species:S:1:pos:R:3:initial_magmoms:R:1:forces:R:3 energy=-441.05135537399224 free_energy=-441.05135537399224 stress="-0.0019984225617994825 -0.0037706345249463474 1.4846223570116736e-06 -0.0037706345249463474 -0.0048850503341640854 4.058298222539298e-06 1.4846223570116736e-06 4.058298222539298e-06 3.0925787190095294e-05" pbc="T T T"
C        0.07786154      -0.04353680       3.72701687       0.00000000      -0.00048387       0.00817633       0.00360412
C       -1.18416817       2.08349496       3.52096878       0.00000000       0.00207035      -0.00334123      -0.00622071
C       -2.40964952       4.23372188       3.65223702       0.00000000      -0.00049718      -0.00132842      -0.01154581
C       -3.60012414       6.38229671       3.86144775       0.00000000      -0.01190392      -0.00203162      -0.00834122
C       -4.83218546       8.51601243       3.89678858       0.00000000      -0.00047808      -0.00540005       0.00851300
C        2.55420544      -0.07511062       3.68458586       0.00000000      -0.00754223       0.00012139       0.00445499
C        1.29803352       1.98548646       3.23995379       0.00000000      -0.00475259       0.00819096       0.00776439
C       -0.06991735       4.20907989       2.98377715       0.00000000      -0.00883221       0.00046005       0.01091503
C       -1.19458752       6.39900821       3.43678542       0.00000000      -0.00474869       0.00745524       0.00729188
C       -2.35997691       8.50667902       3.74131125       0.00000000       0.00839706      -0.00515696      -0.01322788
C        5.02596865      -0.03510521       3.80710337       0.00000000       0.00097489      -0.00550200       0.01387419
C        3.73731587       2.04945229       3.78230406       0.00000000       0.00223724      -0.00260765       0.00388719
P        1.48008132       6.41137268       2.39273421       0.00000000       0.00318878      -0.00407301      -0.01685701
C        0.11528715       8.51516404       3.61278422       0.00000000       0.00202794       0.01021916       0.00536259
C        7.48572075      -0.02448441       3.89654974       0.00000000       0.00253131      -0.01435403      -0.00689214
C        6.22463896       2.13367534       3.98702596       0.00000000       0.00916961       0.00491157      -0.00122487
C        5.05171716       4.36983698       4.20217011       0.00000000      -0.00141305       0.00131466      -0.00013418
O        3.88783313       6.48356012       4.26718767       0.00000000       0.00829123      -0.00210956       0.00061852
C        2.59172708       8.50743944       3.84146075       0.00000000      -0.00780523       0.00143900      -0.00034412
C        9.94999759      -0.03008859       3.88215678       0.00000000       0.00534618       0.00552641      -0.00118682
C        8.70252798       2.11367190       3.86897588       0.00000000      -0.00338110      -0.00305455       0.00239101
C        7.48150516       4.26137289       4.00121258       0.00000000       0.00115843       0.00581732       0.00207640
C        6.29527991       6.43040542       4.13082408       0.00000000       0.00333831      -0.00508932       0.00616043
C        5.04123566       8.53169873       4.00979803       0.00000000      -0.00127675       0.00017907      -0.00833773
C        0.05690579       1.36190085       3.47601170       0.00000000       0.00027386       0.00897689       0.01176273
C       -1.22705947       3.48789589       3.38468855       0.00000000       0.00071565      -0.00561250       0.00204392
C       -2.38634507       5.66857003       3.66210903       0.00000000      -0.00956587       0.00267591      -0.00838231
C       -3.59242196       7.80198308       3.84098761       0.00000000       0.00236037      -0.00431432      -0.00629078
C       -4.85003122       9.92604549       3.76151278       0.00000000      -0.00858130      -0.00168217      -0.00264030
C        2.53333473       1.32774181       3.54700154       0.00000000      -0.00345678       0.00416905       0.00498903
S        1.32474834       3.43339412       2.23862024       0.00000000       0.00603894      -0.00484788       0.00593623
C       -0.01401851       5.66016971       3.03608831       0.00000000      -0.00128537       0.00636732       0.00735185
C       -1.13152766       7.79966569       3.58612334       0.00000000       0.00984344       0.00601540      -0.00055657
C       -2.36542408       9.92409297       3.75665553       0.00000000      -0.00152636      -0.00522709      -0.00470310
C        5.00440995       1.39861825       3.88446057       0.00000000       0.00855765      -0.00291342       0.00620959
P        3.45191768       3.70685189       4.16927119       0.00000000       0.00465578       0.00782434      -0.00522637
C        1.37026201       7.84697327       3.49102856       0.00000000      -0.00897739       0.00438653       0.00846316
C        0.09421918       9.93961551       3.80008592       0.00000000       0.00010581      -0.00295040       0.00260184
C        7.46570511       1.40926335       3.94299737       0.00000000       0.00047849      -0.01266881      -0.00809616
C        6.23634714       3.56942924       4.07693461       0.00000000       0.00536679       0.01254448       0.00191980
C        5.08218823       5.77716500       4.23235347       0.00000000       0.00497315      -0.00545429      -0.00342421
C        3.84190278       7.83071221       4.01299544       0.00000000      -0.00441501      -0.00192176      -0.01128867
C        2.55978195       9.93600367       3.91613475       0.00000000       0.00523975      -0.00021906       0.00141150
C        9.93782450       1.39447280       3.77395385       0.00000000       0.00054399       0.00169928      -0.00574936
C        8.70287655       3.53575954       3.85396354       0.00000000       0.00108721       0.00094048       0.00941328
C        7.50784513       5.68086611       4.01477006       0.00000000      -0.00574171      -0.00079915       0.00021885
C        6.28331030       7.83384882       4.03438027       0.00000000      -0.00032196      -0.00635047       0.00261913
C        5.01573790       9.94824020       3.88111924       0.00000000       0.00498266       0.00546739       0.00142656
Tc       1.57684046       4.92514795       4.19282414       0.00000000      -0.00037897      -0.00620389       0.01004209
O        1.54438839       5.88298998       5.95475391       1.00000000      -0.00359535       0.00086713      -0.00748276
O        0.81391962       4.71173366       5.99102490       1.00000000      -0.00299391      -0.00053172      -0.01517021
