50
Lattice="12.336457 0.0 0.0 -6.168228499999997 10.683685154694365 0.0 0.0 0.0 15.0" Properties=species:S:1:pos:R:3:forces:R:3 energy=-444.803759917116 free_energy=-444.803759917116 stress="0.0025028474139162427 0.0018609772153820301 -3.220855739724464e-05 0.0018609772153820301 -0.006277661224934364 -2.597762783878251e-05 -3.220855739724464e-05 -2.597762783878251e-05 -2.8391603045256257e-06" pbc="T T T"
C       -0.01122704      -0.00648720       3.63310413      -0.00292995       0.00200457       0.00210602
C       -1.22759309       2.15896720       3.66967640      -0.00044765      -0.00008469       0.00149970
C       -2.47874373       4.29378526       3.68398353       0.00049227       0.00199483       0.00459399
C       -3.72354829       6.40869043       3.71014944      -0.00686652       0.00382310       0.00212987
C       -4.96046928       8.52993573       3.67382551       0.00278663       0.00340561      -0.00058128
C        2.46949304      -0.02375214       3.71487358      -0.00542687       0.00136023      -0.00288365
C        1.24313261       2.07630785       3.89646116       0.00116424      -0.00018401       0.00686593
C       -0.03350084       4.30983934       3.91657553       0.00077344       0.00453525       0.00671295
C       -1.20807984       6.42478062       3.76346591       0.00647299      -0.00430903       0.00242822
C       -2.47481128       8.53665740       3.66933477       0.00831280       0.00936738      -0.00003853
C        4.93134028       0.00159369       3.63013663       0.00075702       0.00303389       0.00187301
C        3.72458295       2.13018343       3.89135062       0.00563936       0.00035527      -0.00519926
B        1.47863796       6.42046129       3.94740289       0.00447389      -0.00225210       0.00164587
C       -0.00011819       8.56313166       3.64494411      -0.00582776      -0.00382577       0.00336829
C        7.39056279       0.04019495       3.52011771      -0.00694113      -0.00660349      -0.00364103
C        6.16170961       2.14758859       3.63628264      -0.00710726      -0.00258676      -0.00753365
C        4.90916611       4.22367989       3.89649143       0.00749632       0.00600430      -0.00263397
B        3.42377153       6.41245757       3.90020429      -0.00000100      -0.00757466      -0.00466510
C        2.45723579       8.63461973       3.59283001      -0.00252873       0.00166815      -0.00022450
C        9.87241220       0.04234636       3.51700335       0.00140448      -0.00426369       0.00544715
C        8.63398765       2.16891253       3.55747402      -0.00423122      -0.00985918       0.00260102
C        7.37790269       4.28579143       3.68413561      -0.00394964      -0.01138874      -0.00943850
C        6.08998992       6.39282007       3.77507291      -0.00786243       0.00110740      -0.00906794
C        4.91035232       8.55336507       3.62461673       0.00132105       0.00195459       0.00188772
C       -0.00844011       1.41744295       3.71823090      -0.00003838       0.00047152       0.00419914
C       -1.24251674       3.58022203       3.74247871       0.00227938       0.00291457       0.00395711
C       -2.46825714       5.71436195       3.72062773      -0.00153473       0.00344564       0.00579521
C       -3.71819776       7.82731579       3.68867979       0.00664270       0.00902903       0.00169349
C       -4.94674190       9.95453637       3.66798303      -0.00540290       0.00222948       0.00016444
C        2.48731758       1.39207899       3.84844490       0.00133589       0.00035436       0.00097094
B        1.17915990       3.49625637       4.17047618       0.00394518       0.00344955       0.00403235
C        0.05307714       5.72243580       3.88396950       0.01048411       0.00290720       0.00454227
C       -1.23359552       7.84017923       3.69403221       0.00021737      -0.00628342      -0.00212662
C       -2.46853555       9.95665258       3.66490182       0.00081531       0.01062653       0.00450329
C        4.94061549       1.42285575       3.69057575       0.00017881      -0.00147561      -0.00405723
N        3.77807250       3.47369164       4.10218103       0.01599842      -0.00064530      -0.00614940
C        1.24995490       7.90113967       3.69532307      -0.00286235       0.00245480       0.00246383
C       -0.00277518       9.99037444       3.57577058      -0.00702967      -0.00596394      -0.00395960
C        7.39689372       1.45684391       3.54435329      -0.01006672      -0.00629314      -0.00498458
C        6.15434928       3.55788087       3.71002236      -0.00315106      -0.00470986      -0.00291510
C        4.82408298       5.66774775       3.89037505      -0.00451178       0.00241524      -0.00427185
C        3.65823228       7.89609888       3.65884294      -0.00102119       0.00116481      -0.00310163
C        2.46247656      10.04013977       3.50121495      -0.00157217       0.00126428      -0.00389101
C        9.87376490       1.46118986       3.55463225      -0.00029486      -0.00556369       0.00018780
C        8.62434152       3.58609833       3.62704599       0.00125961      -0.00807380       0.00481381
C        7.35759593       5.70364806       3.73225115      -0.01031080      -0.00703906      -0.00689093
C        6.13090474       7.82024490       3.69530456       0.00206540       0.00173751      -0.00149172
C        4.92390373       9.98536555       3.56771737       0.00158990      -0.00061914       0.00635259
Ti       2.63201490       4.77923331       5.26946149      -0.00075574       0.00142069       0.00224221
O        2.90039749       4.61731217       6.87279046       0.01476596       0.01309929       0.00066882
