52
Lattice="12.336457 0.0 0.0 -6.168228499999997 10.683685154694365 0.0 0.0 0.0 15.0" Properties=species:S:1:pos:R:3:forces:R:3 energy=-458.2522333286264 free_energy=-458.2522333286264 stress="-0.0070591941192267756 -0.001021773473254104 -4.048495412947476e-05 -0.001021773473254104 -0.002896031346472104 2.6096511635622296e-05 -4.048495412947476e-05 2.6096511635622296e-05 2.1063488092633034e-05" pbc="T T T"
C       -0.00035943      -0.00072170       3.71754426       0.00024691       0.00267276      -0.00739624
C       -1.24913643       2.11639348       3.68897504      -0.00695697       0.00803860      -0.00208371
C       -2.48696552       4.26324820       3.60647766      -0.00403455      -0.00368221      -0.00572267
C       -3.70673238       6.41373295       3.57761903       0.00075847      -0.01334458       0.01376036
C       -4.92804319       8.55724067       3.64596364       0.00242141       0.00469506       0.00020765
C        2.46861778       0.01514679       3.73139882       0.00682098       0.00497972      -0.00243335
C        1.22130640       2.15018684       3.91041562       0.00624401      -0.00295941      -0.00790538
C       -0.05249845       4.23620967       3.91130329       0.00254136       0.00391352      -0.00446097
C       -1.26505178       6.41010870       3.72489623       0.00174890       0.00365820       0.00420042
C       -2.46830654       8.55623187       3.64084276      -0.00358161       0.00452105       0.01368633
C        4.93374200       0.00842677       3.68680068      -0.00592425       0.00176770      -0.00311756
C        3.70946605       2.15348984       3.86549513      -0.00543020       0.00216438      -0.00377181
B        1.15819353       6.43817000       4.10349546       0.01000374      -0.00615776      -0.00422825
C       -0.00961859       8.55572662       3.75272080       0.00178444      -0.00633425       0.01064274
C        7.40726832      -0.01156791       3.66684455      -0.00035145      -0.00167242       0.00245225
C        6.17409354       2.13189352       3.66074370       0.00140621       0.00145515      -0.00379027
C        4.96020047       4.27883492       3.85791598      -0.00291870      -0.00626429       0.00244426
N        3.79213626       6.42511502       4.06456482       0.01136237       0.00569008      -0.01034924
C        2.49453794       8.53356373       3.84768378      -0.00471650      -0.00650403       0.00464992
C        9.87147046      -0.01538438       3.68014623       0.00143903      -0.00000364      -0.00104244
C        8.63295285       2.12330386       3.58441644      -0.00048792       0.00980953       0.00931197
C        7.40317137       4.27250786       3.59293857       0.00315317       0.00318714      -0.00463525
C        6.18158907       6.42567700       3.69448047      -0.00394801       0.00243472      -0.01001104
C        4.94570962       8.53206468       3.76178398      -0.00735657      -0.00734398       0.00098201
C       -0.00913133       1.41776002       3.76543394      -0.00438406       0.00706756       0.00219071
C       -1.27146974       3.53406848       3.70680487      -0.00778918       0.00499939       0.01429363
C       -2.48987650       5.69422314       3.61172472       0.00395602      -0.01012703       0.00551982
C       -3.69917123       7.84174921       3.60611441       0.00115196      -0.00518182       0.01598127
C       -4.93052914       9.98066493       3.69762871       0.00700368       0.01112236       0.00212824
C        2.46732091       1.43393944       3.85208928       0.00627090      -0.00358520       0.01743356
C        1.14951562       3.53683002       4.09163844       0.00709057       0.00049196       0.00138801
C       -0.08055739       5.66586716       3.91546881       0.00615107       0.00602659       0.00592259
C       -1.24044611       7.83833527       3.70363814      -0.00170027       0.00413559      -0.01107053
C       -2.46845676       9.98170432       3.68069620      -0.00235512       0.00324025       0.00152490
C        4.93949847       1.42827210       3.72613074      -0.00613630       0.00244092      -0.00765683
C        3.78213346       3.54858279       4.01677133      -0.01219147       0.00472720      -0.00162441
C        1.23820652       7.87078634       3.88664502       0.00205453      -0.01229264      -0.00634725
C       -0.00300267       9.97653068       3.68673618      -0.00382073      -0.00568749      -0.00742965
C        7.40441329       1.41118355       3.61579938       0.00407330       0.00489012       0.00229662
C        6.18445256       3.55925533       3.67632489       0.00456626       0.00220132      -0.00995093
C        4.96461900       5.73364909       3.86945737       0.00166984      -0.00216616      -0.00150681
C        3.73234612       7.79606267       3.90116235      -0.00667600      -0.00004021      -0.00979115
C        2.47940150       9.95557441       3.71763740      -0.00001926      -0.00612982      -0.00523429
C        9.86105406       1.40545265       3.62669834      -0.00473191       0.00529260       0.01085076
C        8.62730445       3.55113362       3.56395101      -0.00271507       0.00353662       0.00828158
C        7.40187017       5.70041473       3.60259964      -0.00565340      -0.00158923      -0.01238109
C        6.18027869       7.84186484       3.69372157      -0.00205979      -0.00017055       0.00152244
C        4.93622948       9.95774430       3.71242902       0.00090372      -0.00944298      -0.00061083
Ti       2.54750712       4.92308597       4.80810109      -0.00662604       0.00553698      -0.00351437
O        2.59999091       4.84738547       6.52031414      -0.00102295      -0.00236937       0.00697016
O        2.45430611       4.88582931       7.91489030       0.01032738      -0.01220134      -0.00669552
H        3.38276691       4.91063065       8.22706593       0.00843805       0.00055332      -0.00388037
