52
Lattice="12.336457 0.0 0.0 -6.168228499999997 10.683685154694365 0.0 0.0 0.0 15.0" Properties=species:S:1:pos:R:3:forces:R:3 energy=-452.99480080638955 free_energy=-452.99480080638955 stress="0.0014019473036270137 0.0018387382136978126 -1.0366329135640951e-05 0.0018387382136978126 -0.006184444422434272 -2.6351285347456454e-05 -1.0366329135640951e-05 -2.6351285347456454e-05 2.030310371015728e-05" pbc="T T T"
C       -0.03043860      -0.00130350       3.66762357      -0.00766255      -0.00036876       0.00604518
C       -1.25033073       2.16001226       3.71632389      -0.00395811      -0.00474827      -0.00242045
C       -2.50191357       4.29522874       3.71683864       0.00308710      -0.00076610       0.00481386
C       -3.74344279       6.41279063       3.72790087       0.00369202       0.00669545      -0.00513518
C       -4.97850615       8.53589134       3.69368367       0.00163060       0.00137274       0.00027646
C        2.44947071      -0.01586812       3.73502560      -0.00154803      -0.00028933      -0.00734471
C        1.22129413       2.08484446       3.93796134       0.00106363      -0.00023599       0.00108342
C       -0.06349298       4.31201951       3.97175243       0.00573458      -0.00025953      -0.00385206
C       -1.23367876       6.42759947       3.79661194       0.00596681       0.00150171       0.00596682
C       -2.49498757       8.54242822       3.68940869      -0.00110804      -0.00201146       0.00267256
C        4.91113967       0.00492226       3.64159455       0.00125353      -0.01130687      -0.00834428
C        3.70659345       2.13111427       3.88962524       0.00406355       0.00475820       0.00212922
B        1.44512107       6.41928917       4.00933167      -0.00458248       0.00199571      -0.00915595
C       -0.02075192       8.56374906       3.67125433      -0.00740124      -0.00249563       0.00486393
C        7.37036001       0.03812209       3.53648846       0.00411069       0.00504258      -0.00381285
C        6.14238802       2.14785469       3.63386749       0.00008089      -0.00919141      -0.00689572
C        4.90574153       4.22667011       3.89188300      -0.00160574       0.00068374      -0.00139872
B        3.42225200       6.41905674       3.94206281      -0.00099327      -0.00930021      -0.01260134
C        2.43676345       8.63029280       3.61688147      -0.00337039       0.00031220       0.00505068
C        9.85179601       0.04156221       3.54680815      -0.00151317       0.00595159       0.00262870
C        8.61351912       2.16755390       3.57961945       0.00299538      -0.00384930      -0.00276629
C        7.36138469       4.28706254       3.68619752       0.00323387       0.00041007       0.00289075
C        6.07680475       6.39637395       3.78862550      -0.00637615       0.00208726       0.00453194
C        4.89295617       8.55756469       3.64444997       0.00312747       0.00472466       0.00691513
C       -0.02827767       1.42257326       3.76283001      -0.00337944      -0.00463959       0.00305770
C       -1.26749170       3.58149876       3.79088088       0.00293348      -0.00332660      -0.00607594
C       -2.49197533       5.71665458       3.74735254       0.00609373       0.00365944       0.00941747
C       -3.73735887       7.83257381       3.70789324       0.00316284       0.00201468      -0.00117679
C       -4.96546017       9.96109266       3.69440758      -0.00330555      -0.00164069      -0.00572495
C        2.46718497       1.40378019       3.86615542       0.00353380       0.00188827      -0.00216577
B        1.15299197       3.50437937       4.22312752       0.00707486       0.00051395      -0.00446476
C        0.02108050       5.72287613       3.93427433       0.00560708       0.00034124      -0.00315272
C       -1.25570304       7.84334195       3.71957422      -0.00380196       0.00064546       0.00757336
C       -2.48935408       9.96348643       3.68187042      -0.00181831      -0.00579284       0.00123714
C        4.91980922       1.42740889       3.68992403      -0.00007593      -0.00898787       0.00797632
N        3.76673793       3.48042780       4.09810725      -0.00750331       0.00647471       0.00893407
C        1.22861055       7.89904258       3.73155892      -0.00754171      -0.00042415       0.01159791
C       -0.02409649       9.99058106       3.59206670       0.00431469      -0.00419262       0.00233738
C        7.37655383       1.45540877       3.55495302       0.00471567      -0.00049447      -0.00358657
C        6.13734875       3.55845422       3.70029161      -0.00057463      -0.00469691      -0.00405895
C        4.81736309       5.66612816       3.91503081      -0.00656591      -0.00182428      -0.00601661
C        3.64111591       7.89918002       3.68049993       0.00161372      -0.00151302       0.00869044
C        2.44207223      10.03718099       3.52364858       0.00186392       0.00575600      -0.00359348
C        9.85267914       1.46020779       3.58984534      -0.00223771       0.00250684      -0.00319607
C        8.60447678       3.58582878       3.64517783       0.00514880      -0.00459610       0.00267689
C        7.34070604       5.70567492       3.74110836      -0.00552067       0.00594014       0.00161426
C        6.11450521       7.82441274       3.71240315       0.00064140       0.00389734       0.01060498
C        4.90579727       9.98857143       3.59756838      -0.00718181       0.00572572      -0.00481777
Ti       2.64896345       4.78953748       5.13729346      -0.00207698      -0.00472294      -0.01108004
O        2.90668176       4.65492500       6.82208695      -0.00006396       0.01337732       0.00449518
O        3.00359278       4.51801182       8.20161507       0.00250527       0.00092551      -0.00205017
H        3.91267126       4.82808009       8.39156674       0.00251769       0.00247243      -0.00519361
