52
Lattice="12.336457 0.0 0.0 -6.168228499999997 10.683685154694365 0.0 0.0 0.0 15.0" Properties=species:S:1:pos:R:3:forces:R:3 energy=-447.6979073890427 free_energy=-447.6979073890427 stress="0.002129988656974303 -0.00042720284252769036 2.86470927152425e-05 -0.00042720284252769036 -0.009829945681700961 1.9534414530928192e-05 2.86470927152425e-05 1.9534414530928192e-05 1.1837987530249977e-05" pbc="T T T"
C       -0.05724209       0.00921091       3.73047505      -0.00358206      -0.00510165      -0.00614089
C       -1.27593896       2.18099050       3.74486741      -0.00003242      -0.00033460       0.00680834
C       -2.51335606       4.31143135       3.83012732      -0.00073235       0.00370773       0.00768525
C       -3.75090297       6.42455010       3.90696687      -0.00206482      -0.00480115       0.00058263
C       -4.99591250       8.54418398       3.84689357      -0.00072230      -0.00196752       0.00206496
C        2.41930162      -0.05069364       3.66806834      -0.00360896       0.00106038      -0.00646679
C        1.20287065       2.08365197       3.69338974       0.00622269      -0.00503228      -0.00095153
C       -0.04280676       4.32245982       3.91749852       0.00305266       0.00179104      -0.00503002
C       -1.23698217       6.43521549       3.96400047      -0.00028187      -0.00471665      -0.00927686
C       -2.50668916       8.54156376       3.84509408      -0.00097713      -0.00568868      -0.00688881
C        4.88663471       0.00473582       3.62951237      -0.00470889       0.00176389      -0.01416572
C        3.62454503       2.04539484       3.30989138       0.00242132       0.00996330       0.00358162
B        1.46031897       6.41576028       4.11399834       0.00116437      -0.00051848       0.00523518
C       -0.03699969       8.57850037       3.87168622       0.00047589      -0.00131850      -0.00697734
C        7.33525418       0.06914400       3.67291440       0.00833301       0.01048524       0.00284270
C        6.09743446       2.18324234       3.49939547      -0.00444308      -0.00226839       0.00644456
C        4.89542181       4.34601043       3.51380515       0.00605455      -0.00579690       0.00302401
B        3.39895016       6.47347827       3.99983946       0.00550077       0.00715815      -0.00270831
C        2.40853813       8.67132159       3.82846575      -0.00039303       0.00465027      -0.00398410
C        9.81942000       0.07087816       3.70676834       0.00635962       0.00412449      -0.00362473
C        8.57848315       2.19394215       3.66988938       0.00124173       0.00695121      -0.00552137
C        7.33621041       4.31004760       3.74282935       0.00090202      -0.00318636       0.00113577
C        6.07918004       6.43524183       3.91162495      -0.00262089       0.00080334       0.00413342
C        4.87378885       8.59281829       3.81423410      -0.00273256       0.00232632       0.01477592
C       -0.05356006       1.43607769       3.71967304       0.00267910      -0.00529820      -0.00588321
C       -1.27327301       3.60088103       3.81959511      -0.00053369       0.00323556      -0.00206938
C       -2.49714740       5.72822775       3.90981189      -0.00106867      -0.00022261       0.00067566
C       -3.75052210       7.83996204       3.88358688      -0.00018196      -0.00660638      -0.00139526
C       -4.99643434       9.95612663       3.75460387      -0.00333349      -0.00230744       0.00446934
C        2.41533540       1.36120043       3.54867139       0.00744545       0.00140084       0.00695125
B        1.22572911       3.51897902       3.94719848       0.00477537      -0.00470203       0.00654972
C        0.03075719       5.72861753       4.00952552       0.00139466       0.00081292      -0.00228497
C       -1.26530266       7.84949889       3.90976769      -0.00015194      -0.00506941      -0.00011801
C       -2.50707752       9.95324401       3.70977496      -0.00567649      -0.00216824      -0.00145781
C        4.87897866       1.42980106       3.44905056      -0.00432988       0.00599132       0.00863104
S        3.47665252       3.67704906       2.69436699      -0.00216563      -0.00922218      -0.00026922
C        1.21249241       7.91677243       3.93919190       0.00095100      -0.00247358      -0.00412077
C       -0.04798862      10.00501238       3.72506257       0.00200538       0.00716995       0.00274114
C        7.33267445       1.48860837       3.60140556       0.00122598       0.00873331       0.00362952
C        6.10431460       3.59760574       3.55794218       0.00267845      -0.00654593       0.00480089
C        4.80327231       5.72179361       3.88405356       0.00040110      -0.00335344      -0.00893613
C        3.61852303       7.95480193       3.84371449      -0.00205691       0.00483891      -0.00502147
C        2.40796000      10.07394359       3.72537711       0.00852793       0.00588386      -0.00782148
C        9.81959613       1.48679361       3.69703122      -0.00058647       0.00414293       0.00103344
C        8.58142515       3.60896751       3.74339728       0.00215567       0.00408487       0.00362625
C        7.32772357       5.72665998       3.87237948      -0.00465073      -0.00347001       0.00334600
C        6.09842194       7.85193645       3.87862811      -0.00357916       0.00267676       0.01078621
C        4.87707511      10.01514208       3.74646514      -0.00272856      -0.00178201      -0.00382777
Ti       2.91891602       4.63656789       4.86123346      -0.00312379       0.00118312       0.00164438
O        3.52678534       4.17952329       6.39536881      -0.00851844      -0.00435706       0.00858357
O        3.96067033       3.78624597       7.65135816       0.01000617       0.00200963      -0.01458090
H        4.28477049       4.62468381       8.04098464      -0.01638876      -0.00863964       0.00374009
