49
Lattice="12.336457 0.0 0.0 -6.168228499999997 10.683685154694365 0.0 0.0 0.0 15.0" Properties=species:S:1:pos:R:3:forces:R:3 energy=-437.037084195715 free_energy=-437.037084195715 stress="-0.0001879522824089094 0.0021047884896212856 -1.6240853465466353e-06 0.0021047884896212856 -0.006642265407216744 -4.323161871873516e-06 -1.6240853465466353e-06 -4.323161871873516e-06 3.0367074791960686e-07" pbc="T T T"
C       -0.00435627      -0.00789893       3.65617678      -0.00532548      -0.00125445      -0.00329689
C       -1.22467696       2.15153696       3.67918510       0.00155852       0.00744318       0.00809202
C       -2.47792259       4.28782521       3.70312250      -0.00354052       0.00229299      -0.00128817
C       -3.71931622       6.40777335       3.73572780       0.00033507      -0.01283286      -0.00240342
C       -4.95267051       8.53080486       3.70432450      -0.00510216      -0.00356357       0.00570471
C        2.47558153      -0.02021940       3.72269118       0.00053617       0.00335202       0.00441560
C        1.25124944       2.08003874       3.85647027       0.00010491      -0.00860764       0.01162699
C       -0.04345104       4.30759312       3.92349445       0.00871407      -0.00781984      -0.01361512
C       -1.21850252       6.42368471       3.80922556       0.00295018       0.00174517      -0.00170438
C       -2.47102937       8.53862523       3.71514767      -0.01758625       0.00078325      -0.00893238
C        4.93658657      -0.00062090       3.64523509       0.00751523       0.00058377      -0.00167744
C        3.73213929       2.12901687       3.84227315      -0.00413429       0.00700678      -0.00725728
B        1.44232597       6.40786255       4.00182252      -0.00159250       0.00197994      -0.00329697
C        0.00208342       8.55885492       3.69434648       0.00599624      -0.00602909      -0.00017691
C        7.39740544       0.02782783       3.54151016      -0.00314506      -0.00126334       0.00413870
C        6.16968096       2.13804967       3.60450020       0.00118817       0.00150671       0.00848586
C        4.94149969       4.21664207       3.83955661       0.00741906      -0.00255012      -0.00522905
B        3.47048868       6.40201600       3.91796142      -0.01031445       0.00352100      -0.00803474
C        2.46114862       8.61486454       3.62810218       0.01216261       0.00635556       0.00120810
C        9.87665386       0.03092648       3.54944979      -0.00533426      -0.00201844      -0.00501534
C        8.63987272       2.15777909       3.56222213      -0.00090233      -0.00144183      -0.00322914
C        7.39014945       4.27809777       3.66433892       0.00225244       0.00704754       0.00522987
C        6.10800355       6.38884407       3.78123632      -0.00243210       0.00252807       0.01124156
C        4.91865511       8.55028600       3.65334574       0.00281841      -0.00139178      -0.00001136
C       -0.00159767       1.41605834       3.71833091      -0.00011723       0.00324225       0.00317095
C       -1.24423043       3.57334450       3.75138370      -0.00271602       0.00599840       0.00648467
C       -2.47132656       5.71009940       3.75414105       0.00510680      -0.00346777      -0.00826563
C       -3.71227682       7.82824772       3.72532282      -0.01247718      -0.01234165       0.00247296
C       -4.93869073       9.95650491       3.69160298      -0.00304487       0.00120044      -0.00198659
C        2.49540123       1.40517474       3.81631585       0.00198782       0.00022804       0.00174241
B        1.19517513       3.50862025       4.10907582       0.00466498      -0.01089346       0.00825449
C        0.02912564       5.71496345       3.92822563       0.00443727      -0.00567652       0.00680613
C       -1.23415420       7.83983808       3.74723770      -0.00913228       0.00407535      -0.00711391
C       -2.46432561       9.95917652       3.69341406       0.00037022       0.00420737      -0.00986525
C        4.94641097       1.42218959       3.66736992      -0.00110465       0.00263455       0.00092901
N        3.79627759       3.48207438       4.02336298      -0.00348525       0.00976542      -0.00971494
C        1.24947028       7.89218100       3.74219235       0.01379804       0.00378196       0.00589536
C        0.00081985       9.98417649       3.60641055       0.00600902      -0.00716494       0.00232410
C        7.40428670       1.44489976       3.54071717      -0.00276829      -0.00158589       0.00382075
C        6.16636229       3.54753204       3.65982288       0.00842711       0.00244529      -0.01102532
C        4.85557657       5.64796760       3.89247522       0.00131751      -0.00286472       0.00194135
C        3.66804090       7.88910337       3.68189538       0.00653952       0.00174922      -0.00547647
C        2.46783951      10.02442019       3.53630843      -0.00434713       0.00294626      -0.00286549
C        9.87787947       1.45034763       3.57474278       0.00286063      -0.00139304      -0.00650847
C        8.63079383       3.57678038       3.62620437      -0.00377917       0.00105881       0.00739610
C        7.36886436       5.69798011       3.73250568      -0.00106012       0.00194561       0.01331167
C        6.14177412       7.81764758       3.72091365      -0.00094856      -0.00125653      -0.00200972
C        4.93140988       9.98034171       3.60080077      -0.00535025      -0.00525375       0.00362695
Ti       2.61688820       4.80866856       4.98248040       0.00067041       0.00924627       0.00168008
