50
Lattice="12.336457 0.0 0.0 -6.168228499999997 10.683685154694365 0.0 0.0 0.0 15.0" Properties=species:S:1:pos:R:3:forces:R:3 energy=-439.44672986525654 free_energy=-439.44672986525654 stress="-0.005837603486201393 0.0015947990424315117 1.8387797980686227e-06 0.0015947990424315117 -0.009302809370345447 -1.686071875868757e-05 1.8387797980686227e-06 -1.686071875868757e-05 2.001014264416671e-06" pbc="T T T"
C        0.01842260      -0.02195663       3.46006032      -0.00441726      -0.00780304      -0.00931355
C       -1.20208363       2.14110676       3.43114168      -0.00249642      -0.00751117      -0.00123422
C       -2.43180200       4.26985669       3.61664675      -0.00845761       0.01471589      -0.00558779
C       -3.67938903       6.40551565       3.67459268      -0.00250506      -0.00115937       0.00017218
C       -4.92059690       8.52825312       3.64570959       0.00224461       0.00583487       0.00221733
C        2.48669033      -0.07000845       3.33942446       0.00343048       0.00008772       0.00315220
C        1.26432595       2.04018825       3.11080430       0.00232458       0.00379796       0.00686231
C        0.02553036       4.31206600       3.64496446      -0.01387573       0.00265665      -0.00983712
C       -1.24471587       6.43621482       3.69846260       0.00900303      -0.00016695      -0.00766108
C       -2.44795733       8.53547643       3.55127224       0.00279019      -0.01260371       0.00367297
C        4.96831290      -0.02374490       3.51197905      -0.00151186       0.00390125      -0.00875750
C        3.70619360       2.02625444       3.56155895       0.00063168       0.00175497       0.00487066
C        1.14986928       6.48465204       4.14369440       0.00249206       0.00614773      -0.00223059
C        0.02351304       8.55806417       3.74524554      -0.00434395      -0.00382446      -0.00003933
C        7.43083267       0.00863992       3.65349164       0.00231992      -0.00974239      -0.00367082
C        6.19694820       2.13152616       3.68568323       0.00017269       0.00681656      -0.00365505
C        5.05211248       4.29014288       4.17599651       0.00172902       0.00067218       0.01441836
P        3.73844724       6.47482154       5.25584769       0.00373715       0.01483490       0.00881813
C        2.49169252       8.60503054       4.05455021       0.00501438       0.00257952      -0.00191865
C        9.89993692       0.01309507       3.65584234       0.00199137       0.00582272      -0.00395709
C        8.66788848       2.14109405       3.59534715      -0.00705580      -0.00277343      -0.00101784
C        7.44361290       4.27238380       3.76024983       0.00081806      -0.01098903      -0.00837521
C        6.23840390       6.42854214       4.05598265       0.00579021      -0.00282089       0.00265903
C        4.97520359       8.58261914       3.99271643      -0.00706752       0.00055909       0.00342985
C        0.02003976       1.40229876       3.29721410       0.00278802      -0.00765473       0.00393892
C       -1.19661680       3.55897568       3.54127063      -0.01395457       0.00195148      -0.01074352
C       -2.44958616       5.69815463       3.64644376       0.00193126       0.01494000      -0.00081672
C       -3.68227227       7.82382951       3.61108030      -0.00097754      -0.00306511       0.00390581
C       -4.92390764       9.93259408       3.45309687       0.00111258       0.00393949       0.00251612
C        2.48817048       1.33159294       3.26758313       0.00179036       0.00070013       0.00612905
P        1.48235103       3.75639289       2.74580853       0.00912200      -0.00325044       0.00363830
C       -0.01468554       5.75602844       3.84002491       0.00431120      -0.00015380      -0.00316663
C       -1.21488249       7.84648389       3.66122158       0.00295922      -0.00842140       0.00108660
C       -2.43692537       9.94141515       3.45195355       0.00238691      -0.00887061       0.00383803
C        4.97243502       1.39516933       3.57857764       0.00128050       0.00924233       0.00026757
P        3.49739032       3.51944097       4.39322143       0.00271170       0.00101166      -0.00622515
C        1.25042652       7.86738867       4.00562394       0.00231047       0.00535544      -0.00453414
C        0.03111012       9.96790803       3.62671523      -0.00484678      -0.00468573      -0.00031655
C        7.42952227       1.42991220       3.62360896      -0.00467718      -0.00691789      -0.00369644
C        6.21733321       3.55061062       3.85038333      -0.00047309       0.00182231       0.00469286
C        5.08593303       5.69092379       4.41371633       0.00702833      -0.00070908       0.01385861
C        3.73749529       7.96931672       4.33863921      -0.00428722       0.00474823       0.01772005
C        2.49595226       9.99504398       3.77043028       0.01011744       0.00179442       0.00121276
C        9.90221010       1.43257922       3.53838812      -0.00500593       0.00227014       0.00087826
C        8.67195649       3.56321642       3.63533190       0.00009034      -0.00231122      -0.00207263
C        7.44027002       5.69726350       3.81078671       0.00316774      -0.01277195      -0.00164547
C        6.20286304       7.84599897       3.92605666      -0.00032397       0.00591689       0.00412316
C        4.96474973       9.97955956       3.68871061      -0.00714556      -0.00319736      -0.00503497
Ti       1.75979395       4.85529558       5.34643506      -0.00023798      -0.00207215      -0.00397063
O        0.93274774       4.58638344       6.72203978      -0.00393645      -0.00039861      -0.00860042
