52
Lattice="12.336457 0.0 0.0 -6.168228499999997 10.683685154694365 0.0 0.0 0.0 15.0" Properties=species:S:1:pos:R:3:forces:R:3 energy=-437.8626533742437 free_energy=-437.8626533742437 stress="0.0011045642872291779 -0.003913342156778357 1.2750419129340738e-05 -0.003913342156778357 -0.005834770311427286 -1.085424968130196e-06 1.2750419129340738e-05 -1.085424968130196e-06 -1.1387484889369892e-05" pbc="T T T"
C        0.14129418       0.08541877       3.95904129      -0.00115891      -0.00259169       0.00546440
C       -1.11949592       2.21322045       3.96417114       0.00796649       0.00107987       0.00587958
C       -2.34500932       4.35837886       3.93413855      -0.00441796      -0.00808535      -0.00735362
C       -3.55587100       6.48772171       3.88430482       0.00047837       0.00780447      -0.00426785
C       -4.78971903       8.62058383       3.92290942      -0.00904440       0.00152181       0.00333043
C        2.59946365       0.07904999       3.85117853       0.00196404       0.00435861      -0.00160786
C        1.32401219       2.19361854       3.80524791      -0.00209580       0.00339982       0.01069585
C        0.09225100       4.28009507       3.89986597       0.00333238       0.00354052      -0.01335136
C       -1.04105858       6.44972153       3.84605389       0.00362660      -0.00431708      -0.00336304
C       -2.30136826       8.60249474       3.85707324      -0.00665456       0.00152958       0.00653980
C        5.06297219       0.07465029       3.75384768       0.00772367       0.00172297       0.00493437
C        3.80337094       2.15633073       3.40380863       0.00739450      -0.00994135      -0.01082788
S        1.79746469       6.30481267       3.39697669      -0.00008758      -0.00456793      -0.00346976
C        0.16427972       8.61251287       3.76386183      -0.00628201       0.01031821      -0.00416205
C        7.51298669       0.11888562       3.83236486       0.00279663       0.00781104      -0.00067717
C        6.27223672       2.23947021       3.60727824       0.00504550       0.00520477      -0.00250883
C        5.12201382       4.40315929       3.30862561      -0.00073675      -0.00888843       0.00666024
B        3.73505870       6.55645326       3.66047948      -0.00455895      -0.00161310       0.01372475
C        2.61690098       8.72298744       3.82502173      -0.00425530      -0.00752443       0.00724995
C       10.00337477       0.11979013       3.95980489      -0.00611420      -0.00586854       0.00058827
C        8.74209626       2.24177411       3.87902127       0.00108692      -0.00804099      -0.00636793
C        7.52579419       4.37134302       3.75709061       0.00074057       0.00583099       0.01194599
C        6.28794798       6.50087900       3.77296714      -0.00522801      -0.00706063       0.00063028
C        5.07894221       8.65716630       3.91476386       0.00651524       0.00038030       0.00291456
C        0.12652853       1.51062232       3.92910306       0.00297806      -0.00314170      -0.00217781
C       -1.12471047       3.62043749       3.96297681       0.00633541       0.00349898      -0.00268283
C       -2.31154405       5.77074635       3.90257391      -0.00058598      -0.00443528      -0.00947572
C       -3.54867426       7.90687615       3.89422654      -0.00914151       0.00599631       0.00998710
C       -4.79488878      10.05002161       3.93507152      -0.00026328       0.00153885       0.00078530
C        2.57008261       1.50727964       3.70692783      -0.00053380       0.00547230      -0.00403929
O        1.28431991       3.56682413       3.87947043      -0.00709488      -0.00168483      -0.00180452
C        0.14945271       5.66600259       3.80808994       0.01108879       0.00393922      -0.00603688
C       -1.05970319       7.88247161       3.81113608      -0.00533483      -0.00016282      -0.00291938
C       -2.32757331      10.03904398       3.82446562       0.00348370       0.00275834      -0.00158524
C        5.04373247       1.50820538       3.59204240       0.00852472      -0.00197796      -0.00417278
S        3.76365783       3.66138226       2.55311517       0.00329098       0.00375934      -0.00082091
C        1.42954225       7.98988691       3.69364449      -0.01008864      -0.00055102       0.00183572
C        0.13504245      10.05776719       3.78860347       0.00564774       0.01145972       0.00431327
C        7.50030254       1.54157984       3.78651206      -0.00001360       0.00345199      -0.00203243
C        6.29790091       3.65598821       3.55162927       0.00669522       0.00312729      -0.00233072
C        5.04775393       5.78965937       3.56812251      -0.00511191      -0.00653880      -0.00696139
C        3.83011548       8.01420527       3.82765074       0.00516772       0.00367051       0.00046260
C        2.59169993      10.13030580       3.90363615      -0.00689663      -0.00552987       0.00945067
C        9.98801691       1.53272885       3.95444100       0.00528511      -0.00386648       0.00046920
C        8.74991689       3.65704311       3.87235155      -0.00516184      -0.00850990      -0.00762254
C        7.53370489       5.78941708       3.81403770       0.00118174       0.00754889      -0.00612588
C        6.30727386       7.92099504       3.89019682      -0.00151550      -0.00640782       0.00470151
C        5.07267956      10.08328528       3.97192775      -0.00222324      -0.00107318      -0.00099698
Tl       2.86141303       4.63621898       6.22099706      -0.00796452       0.00517079       0.00794763
O        0.89844121       3.48225397       6.54881178       0.01050578      -0.00124558      -0.00172770
O        1.06498433       3.46668668       8.01157218      -0.01001957      -0.00708243       0.00191325
H        0.24012480       3.91841224       8.27612968       0.00372830       0.00481170      -0.00095437
