52
Lattice="12.336457 0.0 0.0 -6.168228499999997 10.683685154694365 0.0 0.0 0.0 15.0" Properties=species:S:1:pos:R:3:forces:R:3 energy=-439.7644888146689 free_energy=-439.7644888146689 stress="0.0007616256677887259 0.00047184563911777355 -3.720468655739052e-05 0.00047184563911777355 -0.003989725541970449 4.307103312692115e-05 -3.720468655739052e-05 4.307103312692115e-05 2.771082106785149e-05" pbc="T T T"
C       -0.00706615       0.01774812       3.61034828       0.00516623       0.00156985      -0.00001091
C       -1.25238842       2.14879459       3.39017895       0.00675466       0.00370370       0.00079310
C       -2.50836766       4.28843015       3.53398193       0.00300865      -0.00157153       0.00519181
C       -3.73362535       6.41375804       3.74701677       0.00113016       0.00348375      -0.00702093
C       -4.95958858       8.54540566       3.76771442      -0.00227664      -0.00579433       0.00117343
C        2.46281911       0.01164140       3.71868106       0.00183766       0.00126325      -0.00275535
C        1.25127579       2.10767698       3.25840635       0.00442322       0.00232274       0.00204298
C       -0.08868553       4.28978936       3.15539856      -0.00202554       0.00021390       0.00782557
C       -1.24455744       6.41024560       3.69790930      -0.00422427      -0.00341536       0.00342979
C       -2.47916693       8.54039639       3.82720615      -0.00494609       0.00464341      -0.00000231
C        4.91757944      -0.00057390       3.82184163      -0.00550238      -0.00342372       0.00883165
C        3.71866329       2.12423180       3.71383395      -0.00436548       0.00611941      -0.00000911
P        1.59923580       6.19692922       3.97042245       0.01091859      -0.00111492       0.00324642
C       -0.00744138       8.55388664       3.90412795      -0.00609642       0.00387751      -0.00102817
C        7.38013536       0.03625645       3.81327677       0.00159255      -0.00147139      -0.00372151
C        6.14723094       2.14833039       3.77928939      -0.00634630      -0.00933901       0.00181244
C        4.91188281       4.22969034       3.83906139       0.00583142       0.00186742       0.00038956
B        3.53325899       6.41299668       3.83035525      -0.00718385       0.00598211      -0.00750910
C        2.46980110       8.64318654       3.88081011       0.00479918      -0.00548730      -0.00191712
C        9.86599909       0.04705348       3.69059565      -0.00481558       0.00102370       0.00261159
C        8.61462731       2.16104392       3.64348714       0.00437299       0.00536552      -0.00209763
C        7.36440790       4.28930789       3.72804154       0.00404974       0.00193348       0.00273960
C        6.09732203       6.39124129       3.79817951      -0.00889610      -0.00416273      -0.00728117
C        4.92277639       8.57441687       3.77042237       0.00319339       0.00476222       0.00330339
C       -0.00006111       1.43952032       3.40642734       0.00648200       0.00392763      -0.00279118
C       -1.29314253       3.56373834       3.32299315       0.00038544       0.00133679       0.00365942
C       -2.49588468       5.70891327       3.65701609      -0.00156290      -0.00343969      -0.00009759
C       -3.72294024       7.83526407       3.79165879      -0.00070099       0.00276154      -0.00702776
C       -4.94670268       9.97728540       3.70282984       0.00318554      -0.00379414       0.00751312
C        2.47939175       1.43926590       3.57762656       0.00176492       0.00213988      -0.00538130
P        1.32056686       3.62382872       2.37472596      -0.01171291      -0.00591088       0.00009387
C       -0.03239284       5.65818641       3.53171084       0.00315702       0.00198411      -0.00790392
C       -1.24227258       7.82933274       3.83855661      -0.00897373       0.00035144      -0.00353443
C       -2.48206111       9.97207976       3.81250449      -0.00295516       0.00132685       0.00398527
C        4.91875302       1.43075229       3.78325812      -0.01144401      -0.00597011       0.00355566
O        3.73766658       3.49529802       3.89914097       0.00542928       0.00525181       0.00453512
C        1.25515111       7.91277160       3.96074853      -0.00134158       0.00538519      -0.00305415
C       -0.01409021       9.98484462       3.86428314      -0.00218992       0.00311073       0.00080069
C        7.37654219       1.45461356       3.74828402       0.00264099       0.00043694       0.00666454
C        6.13363073       3.56318173       3.78110687       0.00438769      -0.00596864       0.00226445
C        4.85366954       5.64320050       3.82858816      -0.01018693       0.00001052      -0.00611863
C        3.68018284       7.91294995       3.82849977       0.00800877       0.00178450       0.00881054
C        2.45875015      10.04777347       3.80605190      -0.00101321      -0.00693574       0.00155358
C        9.85746170       1.45643493       3.57254639       0.00338693       0.00274551      -0.00509677
C        8.60108795       3.58127293       3.63036599       0.00457494       0.00406821       0.00413030
C        7.35293319       5.70367739       3.75805539      -0.00025776       0.00380633      -0.00216271
C        6.13669771       7.82758287       3.77748035      -0.00365839      -0.00440453       0.00403566
C        4.92957062      10.00713114       3.69377825       0.00002411       0.00542005      -0.00587344
Tl       2.06604795       4.89293279       6.57990371      -0.00076087      -0.00946728      -0.00345787
O        3.57103670       4.75192396       8.25127651       0.00654870      -0.00599775      -0.00609634
O        2.54938425       4.65620411       9.32417256      -0.00221225      -0.00796809      -0.01086811
H        2.79459141       5.45187710       9.83012052       0.00859451       0.00165717       0.00782400
