49
Lattice="12.336457 0.0 0.0 -6.168228499999997 10.683685154694365 0.0 0.0 0.0 15.0" Properties=species:S:1:pos:R:3:forces:R:3 energy=-423.561350039429 free_energy=-423.561350039429 stress="0.0009894882202674145 -0.003849414614219906 -1.5789284437638287e-06 -0.003849414614219906 -0.005921045150105918 1.6673771600013833e-06 -1.5789284437638287e-06 1.6673771600013833e-06 4.240491142027446e-06" pbc="T T T"
C       -0.00249021      -0.00297116       3.95102184      -0.01124161      -0.00275633       0.00065309
C       -1.26221434       2.13003381       3.96167390      -0.00353651      -0.00463104       0.00251016
C       -2.48700045       4.27417062       3.85506844      -0.00004751       0.00468912      -0.00913283
C       -3.69702437       6.40406672       3.77700079      -0.00206597       0.00122249       0.00386097
C       -4.93388074       8.53421913       3.86150008       0.00893505       0.00588024      -0.00196794
C        2.45604142      -0.00789577       3.82157805      -0.00903966       0.00009102       0.00046648
C        1.18204374       2.10391251       3.83984832       0.00296977      -0.00220418      -0.00728548
C       -0.05244831       4.20587103       3.87405114       0.00016549       0.00227899       0.00145787
C       -1.18290520       6.36559938       3.73768116       0.00573898       0.00544360       0.00130640
C       -2.44511217       8.51891688       3.77117903       0.00248106      -0.00753683       0.00407238
C        4.91991056      -0.00771572       3.68817410      -0.00329953      -0.00544681       0.00602683
C        3.65362455       2.07261197       3.37885536       0.00977108       0.00683480       0.00868233
S        1.63982606       6.23619612       3.19703907       0.00110612       0.00138105      -0.00139754
C        0.02019827       8.53134771       3.66807920      -0.00369736       0.00031081       0.00229773
C        7.36915949       0.03512016       3.78504170       0.01141421       0.00402028      -0.00232279
C        6.13044390       2.15457201       3.52952489      -0.00100716       0.00735114      -0.00459956
C        4.98760998       4.31946032       3.19991422      -0.00626547      -0.00441316       0.00115957
B        3.58800814       6.47041457       3.56550932      -0.00062166      -0.00130065       0.00145808
C        2.47003172       8.63439203       3.78582608      -0.00642224      -0.00177364      -0.00289735
C        9.85749852       0.03342032       3.94757456       0.00655977      -0.00360831      -0.00661698
C        8.59996331       2.15639455       3.82155166      -0.00183029      -0.00195907       0.00632918
C        7.38750308       4.28631616       3.64660539      -0.00297180      -0.00001561       0.00099561
C        6.14959570       6.41822099       3.66317415      -0.00830774       0.00063207       0.00053451
C        4.93281218       8.56896547       3.87986611      -0.00052650      -0.00440763       0.00366070
C       -0.01646896       1.42453032       3.94416366      -0.00104796      -0.00375889      -0.00180884
C       -1.26567445       3.53875364       3.93023215      -0.00152756      -0.00090262       0.00919071
C       -2.45313789       5.68599933       3.79755268       0.00315484       0.00801997      -0.00176205
C       -3.69240808       7.82292204       3.80908424       0.00558881      -0.00141906      -0.00854260
C       -4.93834452       9.96276265       3.90519997      -0.00973355       0.00356447      -0.00534922
C        2.42639303       1.42362094       3.71097670       0.00572266       0.00093578      -0.00570272
O        1.14338494       3.48388383       3.94542212       0.00316582      -0.00058727       0.00300230
C        0.01101521       5.58528598       3.71369078       0.00615864       0.00345897      -0.00386326
C       -1.20427923       7.79989563       3.70499515       0.00235127      -0.00073273       0.00544817
C       -2.47052005       9.95508420       3.76169558      -0.00853964      -0.00810558       0.00934436
C        4.89940795       1.42598638       3.53072539       0.00426302       0.00359926       0.01118314
S        3.58076828       3.57805753       2.53102680       0.01264767      -0.00226646      -0.00584668
C        1.28499542       7.90909694       3.59436648      -0.00787328      -0.00054049       0.00442151
C       -0.00883842       9.97562510       3.71940908       0.00542042       0.00213505      -0.00255688
C        7.35740170       1.45740166       3.72534727      -0.00019378       0.00471465      -0.00610341
C        6.15949361       3.57033158       3.44311515      -0.00359113       0.00399988       0.00378283
C        4.91123194       5.71066658       3.44248839      -0.00979902      -0.00389479      -0.00575483
C        3.68351336       7.92479944       3.79548233      -0.00495050       0.00037844      -0.01168591
C        2.44532841      10.04353866       3.87983754       0.00948849      -0.00149495       0.00086245
C        9.84482187       1.44786573       3.93259182      -0.00169312      -0.00437279      -0.00200263
C        8.60901365       3.57159574       3.78652162      -0.00048837      -0.00126090      -0.00167293
C        7.39462724       5.70553833       3.69855521      -0.00771960       0.00093563      -0.00061928
C        6.16378422       7.83503437       3.82058801       0.00677689       0.00344142       0.00747171
C        4.92771287       9.99572598       3.95702304      -0.00374919      -0.00658659       0.00462122
Tl       2.80297642       4.90890675       5.66728984       0.00790766       0.00065726      -0.00530860
