50
Lattice="12.336457 0.0 0.0 -6.168228499999997 10.683685154694365 0.0 0.0 0.0 15.0" Properties=species:S:1:pos:R:3:forces:R:3 energy=-425.61318539534795 free_energy=-425.61318539534795 stress="0.001576690642003848 -0.0013960971467729538 -2.210838062737574e-05 -0.0013960971467729538 -0.0102788264051975 4.501535621505648e-05 -2.210838062737574e-05 4.501535621505648e-05 -4.632799488097918e-06" pbc="T T T"
C        0.00189212      -0.00100510       3.96456143      -0.00160586       0.00576936      -0.01146686
C       -1.23767929       2.16413348       4.06218380       0.01148233      -0.00970605      -0.00429321
C       -2.47934464       4.29140241       3.76157491      -0.00557693       0.00395868       0.00072932
C       -3.70873601       6.40861820       3.57414181       0.00188451      -0.00110875       0.00197947
C       -4.94176175       8.52868757       3.71425978      -0.00181138      -0.00097851       0.00333978
C        2.47540935      -0.06640197       3.86452249      -0.00792379      -0.00303324      -0.00179163
C        1.26638237       2.05785425       4.22761578       0.01171664      -0.00361214       0.00591669
C       -0.03506998       4.33096489       4.01906346       0.00421635      -0.00192997      -0.00484303
C       -1.20463689       6.40273831       3.49671751       0.00205437       0.00263414       0.00652141
C       -2.44635030       8.51668923       3.58871952      -0.00500187      -0.00573367      -0.00195095
C        4.93475363      -0.01619873       3.64320404       0.00714701      -0.00329642      -0.00699673
C        3.66110645       2.03588504       3.57835089      -0.00937200       0.00736593      -0.00382640
S        1.63776439       6.26213607       3.03572645      -0.00049891       0.01325744       0.00420577
C        0.02501293       8.55293458       3.45957923      -0.00442262      -0.00527922       0.00089442
C        7.38271162       0.05466725       3.66960268       0.00755663       0.00298158      -0.00225079
C        6.13638270       2.16246844       3.53381419      -0.00829943       0.00151681       0.00283522
C        4.94456208       4.31111377       3.23462728       0.01217725      -0.00328758      -0.00275770
B        3.57330290       6.50240235       3.36484399      -0.00740659       0.01203667      -0.00310135
C        2.47702749       8.67385943       3.54064441      -0.01235267      -0.00424030       0.00120164
C        9.87351945       0.06258756       3.84806021      -0.00419370      -0.00579358      -0.00018744
C        8.61806999       2.17653942       3.77875423      -0.00182540       0.00410602      -0.00784464
C        7.37971886       4.29249139       3.55261795      -0.00214214       0.00614314       0.01073847
C        6.13003234       6.42318633       3.51372001       0.00208942      -0.00388013      -0.01596706
C        4.93320787       8.58970741       3.68724293       0.00456177       0.00688441       0.00708790
C        0.00162379       1.42435281       4.12452452       0.01475477      -0.00201930      -0.00464829
C       -1.25503265       3.58304789       3.98165697       0.00072457      -0.00483437      -0.00807178
C       -2.46455210       5.70272937       3.59987618       0.00169612       0.00423318       0.01070731
C       -3.69944155       7.82263414       3.61484968      -0.00383860      -0.00463337       0.01109847
C       -4.94057284       9.93896942       3.87091165      -0.00988507       0.00037565       0.00451081
C        2.47416947       1.34509381       3.95273100      -0.00352931      -0.00242049      -0.01337919
P        1.42268153       3.70827242       4.79999067       0.00959946      -0.01498274       0.00014514
C       -0.00369615       5.64987689       3.55597086       0.00061203       0.00479274       0.01241877
C       -1.20747964       7.82108241       3.47205282      -0.00240529      -0.00147326       0.00759697
C       -2.45592105       9.93414899       3.69389483      -0.00163016      -0.00401740      -0.00429291
C        4.92043398       1.41685450       3.58390439      -0.00985196       0.00306572      -0.00663584
S        3.44885853       3.55474729       2.80235937       0.00628324       0.00985474      -0.00017252
C        1.28954865       7.95069705       3.35587389      -0.01065724      -0.00632916       0.00273786
C        0.00554548       9.98669203       3.58812761       0.01287225      -0.00236551      -0.00583751
C        7.37334011       1.47534334       3.67459934      -0.00347129       0.00514647      -0.00905696
C        6.13792289       3.57584492       3.43502091       0.00694206      -0.00026484       0.00225668
C        4.88210298       5.71484791       3.35280686      -0.00266512      -0.00159009      -0.01385396
C        3.68472819       7.95855033       3.53906887      -0.00257602       0.01425037       0.01346479
C        2.46230533      10.07329630       3.70968631      -0.00208068      -0.00597614      -0.00791389
C        9.86403902       1.47510940       3.91862899       0.00155137      -0.00595237       0.00208739
C        8.61621062       3.58867033       3.70616119      -0.00861878       0.00733705       0.00659668
C        7.37822843       5.70975842       3.54543324       0.00328353       0.00119358       0.00410611
C        6.15160508       7.83960759       3.64574038       0.00380081      -0.00277686      -0.00089649
C        4.93550808      10.01317608       3.84796991      -0.00208245       0.00429661       0.01214762
Tl       2.24040470       4.67638184       6.94761202       0.01294762      -0.00177699       0.00710538
O        2.97492488       5.54125665       8.57919541      -0.00422884      -0.00790785      -0.00039293
