51
Lattice="12.336457 0.0 0.0 -6.168228499999997 10.683685154694365 0.0 0.0 0.0 15.0" Properties=species:S:1:pos:R:3:initial_magmoms:R:1:forces:R:3 energy=-435.177084345114 free_energy=-435.177084345114 stress="-0.0016830455949473826 -0.002551581017167452 -3.7089111686572133e-06 -0.002551581017167452 -0.006503084716971774 -1.437237815957411e-05 -3.7089111686572133e-06 -1.437237815957411e-05 3.926860923657011e-05" pbc="T T T"
C       -0.08933736      -0.13114323       3.50634894       0.00000000      -0.00977403      -0.00146942       0.01155786
C       -1.33464993       2.00945601       3.44170004       0.00000000      -0.01787499       0.01381863      -0.01994080
C       -2.57690322       4.14891757       3.59907104       0.00000000      -0.00328826      -0.00777826      -0.00094274
C       -3.79370778       6.28719869       3.66707292       0.00000000       0.00250119      -0.02339557       0.00542859
C       -5.01886296       8.41468480       3.60333719       0.00000000       0.00177221       0.00140968       0.01605089
C        2.38112827      -0.17697996       3.68792493       0.00000000       0.00160511       0.01101200      -0.00280473
C        1.16754047       1.93844054       3.37959926       0.00000000      -0.00908604       0.00094217      -0.00987966
C       -0.12784476       4.17525716       3.49528639       0.00000000       0.00293266      -0.00076686      -0.00590660
C       -1.34164859       6.28433680       3.82314028       0.00000000       0.01632396      -0.00906492      -0.01263398
C       -2.54434688       8.40779740       3.80242353       0.00000000      -0.00683644      -0.00385986      -0.01312060
C        4.84665107      -0.13267926       3.88098189       0.00000000      -0.00791885       0.01066850       0.00622503
C        3.56637673       1.94214602       3.97476360       0.00000000       0.01051129       0.01281213      -0.00577664
B        1.08117038       6.30388523       4.19979781       0.00000000      -0.01223469       0.00502481      -0.02230314
C       -0.07098361       8.42010285       3.93185588       0.00000000       0.00587942       0.01069563      -0.01735872
C        7.31341311      -0.11128038       3.80865294       0.00000000       0.00452662       0.00328870      -0.00736814
C        6.05483881       2.03861956       3.86817933       0.00000000       0.01536327      -0.01337845      -0.03075538
C        4.83725677       4.26338534       3.87403981       0.00000000      -0.03284331      -0.01801167      -0.02293892
O        3.67811535       6.36903229       3.79965871       0.00000000       0.00753741       0.02518495       0.00823171
C        2.42156861       8.42769341       3.82074979       0.00000000      -0.00158527       0.00626116      -0.00444785
C        9.77648405      -0.11303214       3.60557573       0.00000000       0.01012315      -0.02528922       0.00782919
C        8.52869173       2.02162490       3.64752312       0.00000000       0.00714488      -0.00913814      -0.00305836
C        7.28744815       4.16308628       3.67898476       0.00000000       0.00027085       0.01548172       0.00031874
C        6.08581550       6.31736290       3.60183482       0.00000000      -0.01089327       0.01927838       0.00777015
C        4.85552684       8.43550820       3.60158297       0.00000000       0.00327060      -0.00931789       0.01625526
C       -0.09041094       1.29270090       3.41162498       0.00000000      -0.01591239       0.01240059       0.01196446
C       -1.33717461       3.43235549       3.48432977       0.00000000      -0.00000905       0.01537916       0.01651627
C       -2.57188246       5.57200302       3.69652718       0.00000000       0.00226144      -0.02219262       0.01195171
C       -3.77985571       7.70643813       3.69042529       0.00000000      -0.00262279      -0.01662815       0.00450993
C       -5.02503052       9.82925410       3.58723026       0.00000000       0.00052559       0.00820867      -0.00300328
C        2.37050366       1.22945511       3.67574692       0.00000000       0.00741967       0.00791012       0.00819980
P        1.43304587       3.61151289       2.87661195       0.00000000      -0.00938416       0.00419323       0.00136614
C       -0.12903378       5.55358929       3.81339140       0.00000000       0.02530059       0.00161123       0.00389312
C       -1.30735682       7.70041564       3.88708096       0.00000000       0.00422577      -0.00268028      -0.00637413
C       -2.54676311       9.82247053       3.80967135       0.00000000      -0.00752555      -0.00128812      -0.01695765
C        4.83039829       1.30047408       3.93239787       0.00000000       0.01036221      -0.00369745       0.01276390
P        3.28049700       3.62085249       4.43094137       0.00000000       0.00808427      -0.01885172      -0.00430306
C        1.18703059       7.73748653       3.97717341       0.00000000       0.00927157      -0.01466275       0.00716266
C       -0.08588944       9.85232124       3.88056627       0.00000000      -0.00114971       0.01858438       0.01509368
C        7.29329242       1.31974614       3.77459655       0.00000000       0.01506229      -0.00817738       0.00537149
C        6.03845651       3.47571196       3.80056786       0.00000000      -0.00073930       0.00349923       0.02743279
C        4.87342802       5.65499417       3.71445862       0.00000000      -0.00346031       0.00749519      -0.00558432
C        3.65481852       7.74307770       3.72177243       0.00000000      -0.00049095       0.02239421       0.00115563
C        2.38949092       9.85802387       3.73851075       0.00000000       0.00073830      -0.00822483       0.00756262
C        9.76896905       1.31225554       3.55502355       0.00000000      -0.00019524      -0.01845688      -0.00286031
C        8.52461831       3.44465776       3.63005560       0.00000000      -0.00309154      -0.00385917       0.02511222
C        7.30707179       5.58151540       3.62708204       0.00000000      -0.00940323       0.01069825       0.00999193
C        6.09029288       7.72648541       3.57918327       0.00000000      -0.00167725       0.00668592      -0.00832956
C        4.84283460       9.85877039       3.55774646       0.00000000       0.00351507      -0.03028840      -0.00579017
Tl       2.04530349       5.46360012       6.25695248       0.00000000      -0.01116443      -0.00298797       0.03256713
O        4.09181777       7.32428577       6.43054328       1.00000000      -0.06997043       0.02420990       0.04592276
O        5.10686600       6.60340685       6.39213671       1.00000000       0.07260210      -0.00568258      -0.09576692
