49
Lattice="12.336457 0.0 0.0 -6.168228499999997 10.683685154694365 0.0 0.0 0.0 15.0" Properties=species:S:1:pos:R:3:forces:R:3 energy=-421.6373920241807 free_energy=-421.6373920241807 stress="-0.0007931510275837914 -0.0011488364710806216 3.2282782938712005e-06 -0.0011488364710806216 -0.00938712403737935 -1.5133200927049566e-05 3.2282782938712005e-06 -1.5133200927049566e-05 -1.2453963855078124e-06" pbc="T T T"
C        0.00169958       0.01206858       3.92156115       0.00833039      -0.00265960      -0.00503149
C       -1.23795176       2.15227490       3.70190007       0.00021638      -0.00148829      -0.00519727
C       -2.49073218       4.29508576       3.77984424       0.00243648       0.01208771       0.00890991
C       -3.71451077       6.41927238       3.90346409      -0.00973697      -0.00311908       0.00778730
C       -4.94046837       8.54132922       3.99377085      -0.00374814      -0.00514510       0.00536595
C        2.46604768      -0.04369377       3.75536507       0.00494130      -0.00006534       0.00769986
C        1.21236351       1.99594200       3.24904655      -0.00141753       0.00584885      -0.01062928
C       -0.11287970       4.30070906       3.30300968       0.00377757      -0.00783978      -0.00320393
C       -1.21318957       6.41696469       3.78168044       0.00113714      -0.00073701      -0.00133334
C       -2.44818875       8.53386190       3.92958403      -0.00442793       0.00234475       0.00881919
C        4.93396884       0.00342991       3.81283013       0.00727948       0.00018407      -0.00846538
C        3.69338498       2.02892456       3.19147421      -0.00506067       0.00485658       0.00817523
S        1.63880062       6.34429551       3.31070883       0.00212854      -0.00367801      -0.00400410
C        0.02063092       8.56532601       3.91880755      -0.00473431       0.00289633      -0.00983761
C        7.38433619       0.06411237       4.01683597      -0.00203649       0.00335282      -0.00147802
C        6.14913632       2.16361928       3.65264580      -0.00025842      -0.00807699       0.00359059
C        4.96497841       4.33172276       3.34386190       0.01695895       0.00406621      -0.00240767
B        3.58558963       6.51828915       3.71926596      -0.01177361      -0.00797857       0.00826976
C        2.47498110       8.66970907       4.08067875      -0.00224867      -0.00406991       0.00459934
C        9.87809603       0.06987052       4.08695347      -0.00348478       0.00073286       0.00305617
C        8.61970810       2.17745135       3.88849310       0.00024365       0.01355767      -0.00131697
C        7.37903191       4.30120076       3.77199742      -0.00397297      -0.00392258       0.01168313
C        6.12615179       6.42868993       3.83872611       0.00572048      -0.00063333       0.01503402
C        4.93422614       8.59211783       4.07946327       0.00456878       0.00391710       0.00057978
C       -0.00809811       1.41799798       3.65050440       0.00240317      -0.00122698      -0.00876331
C       -1.27278671       3.56423408       3.59821375       0.00000168       0.00064429      -0.00321767
C       -2.47286298       5.71268096       3.83199331      -0.00381055       0.00799083       0.00470263
C       -3.70012939       7.83457289       3.95429211      -0.00662729      -0.00362410       0.01320962
C       -4.93820515       9.96152875       3.92311379       0.00659539      -0.00695573      -0.00219259
C        2.45900409       1.32949354       3.38144086      -0.00310304       0.00048073      -0.01384697
S        1.20397346       3.53020238       2.45805910       0.00296182      -0.00830441       0.00501440
C       -0.03987717       5.67165158       3.52880439       0.00016473      -0.00731377      -0.00650091
C       -1.20870297       7.83621845       3.88476062      -0.00509936       0.00124348      -0.01234592
C       -2.45738773       9.95399062       3.85479243       0.00669389       0.00329824      -0.00191325
C        4.92663252       1.41768826       3.56727255       0.00161984      -0.00471936      -0.00681169
P        3.71522199       3.56718053       2.34271276      -0.00948998      -0.00603927      -0.00027920
C        1.28764252       7.95519105       3.87177449      -0.00542844      -0.00153354      -0.00027611
C        0.00052587      10.00442048       3.95231740       0.00064486       0.00265097       0.00106526
C        7.37790874       1.47622873       3.87977723       0.00354677       0.00258346      -0.00639201
C        6.15801822       3.58491770       3.58629734      -0.00045894      -0.00725521       0.00982251
C        4.88725849       5.72884540       3.60825237       0.01098763       0.00468766       0.01173695
C        3.68241265       7.95100764       4.03087552       0.00378193       0.00237113       0.00107463
C        2.46041360      10.07960609       4.14362734      -0.00432915      -0.00046215      -0.01501398
C        9.87262676       1.47672107       3.92290253      -0.00382726       0.00282125      -0.00146438
C        8.61054997       3.59079634       3.82895871       0.00170331       0.01419675      -0.00400363
C        7.37611774       5.71965837       3.84526722      -0.00330586      -0.00774398       0.00593930
C        6.15287665       7.84368312       3.99659399      -0.00044353       0.00034024      -0.01021174
C        4.93856242      10.02312095       4.08357547       0.00423764       0.00457127      -0.00088025
Tl       2.56048717       4.06433845       5.19657124      -0.00425790       0.00286684       0.00088313
