49
Lattice="12.336457 0.0 0.0 -6.168228499999997 10.683685154694365 0.0 0.0 0.0 15.0" Properties=species:S:1:pos:R:3:forces:R:3 energy=-427.8283631954065 free_energy=-427.8283631954065 stress="0.007856735068992343 -0.0009362943317760428 1.5134540492186148e-05 -0.0009362943317760428 -0.00905083102501686 1.0637292116467696e-05 1.5134540492186148e-05 1.0637292116467696e-05 2.850361227838877e-06" pbc="T T T"
C       -0.00464591      -0.02265681       3.89142751       0.00263103      -0.00997328      -0.01039249
C       -1.21567231       2.15872821       3.72494920       0.00231875       0.00089448      -0.00206280
C       -2.43774829       4.28595238       3.64972739      -0.00803750       0.00316517       0.00086500
C       -3.69214874       6.39176232       3.76846231      -0.00775769      -0.00117388      -0.00191365
C       -4.94341970       8.50519673       3.90754866      -0.00307034      -0.00564910      -0.00412311
C        2.46989550      -0.09104596       3.80793387      -0.00187331      -0.00348283      -0.00505651
C        1.24820890       2.03732070       3.66120981       0.00946837       0.00295272      -0.00566600
C        0.07353382       4.29098207       3.56619644      -0.00049849       0.00105760      -0.00331927
C       -1.15404998       6.39727393       3.71900007      -0.00047460       0.00155945       0.00853951
C       -2.44508714       8.50395062       3.82090924      -0.00718240       0.00304962      -0.00250281
C        4.93679135      -0.01528772       3.69452478       0.01022023      -0.00141653      -0.00044593
C        3.65740998       2.02605047       3.41444840       0.00220575       0.00528246       0.00265747
B        1.54691529       6.40496304       3.74703154       0.00282322      -0.01488182       0.00011931
C        0.02362523       8.55773334       3.79399269       0.00734175       0.00587572       0.00108402
C        7.39055706       0.05892899       3.75789462       0.00403840      -0.00004829      -0.00219826
C        6.14452497       2.16273030       3.53115450      -0.00352574       0.00217963       0.00502919
C        4.89951405       4.33281543       3.43790117      -0.00144327      -0.00133611       0.00210840
B        3.40196052       6.40849583       3.79933848      -0.00422498       0.00573593       0.00821374
C        2.46839573       8.65525693       3.87832591       0.00012752       0.00487275       0.00795654
C        9.87611094       0.05693342       3.86221670      -0.00156533       0.00036985      -0.01148016
C        8.63414097       2.17577288       3.67838270      -0.01647132       0.00214211      -0.00424965
C        7.38310541       4.28961138       3.61623976       0.00313407       0.00382899       0.00528368
C        6.11024219       6.40508094       3.79681853       0.01328469       0.00402201       0.00043687
C        4.91790394       8.55859566       3.93609849      -0.00046599      -0.00783021      -0.00191088
C        0.00057943       1.40289511       3.78196722       0.01064831      -0.00162788      -0.00121792
C       -1.18462034       3.57986964       3.62777216      -0.00525021       0.00465493      -0.00035099
C       -2.42603968       5.69984319       3.70217200      -0.00730415      -0.00018969       0.01497810
C       -3.69312037       7.80312914       3.84703392      -0.00814579      -0.00184398       0.00160113
C       -4.94475175       9.91872822       3.89974298       0.00071419      -0.00841956      -0.00284757
C        2.45726684       1.30505730       3.64328136       0.00615953      -0.00295343       0.00779358
B        1.39963395       3.52082148       3.47604920       0.00012735       0.00710142      -0.00166285
C        0.12430543       5.70045590       3.66716850       0.01052916       0.00180231      -0.00159729
C       -1.19752647       7.81371700       3.78130455       0.00049213       0.00535109       0.00382845
C       -2.45024517       9.91954161       3.78680032       0.00215971       0.00445360      -0.00020173
C        4.92157615       1.41030854       3.53101440       0.00285086      -0.00611960      -0.00269138
P        3.30075063       3.68139753       2.93378665      -0.00400371      -0.01145570       0.00373462
C        1.27485640       7.90554329       3.81916760       0.00413953       0.00296059      -0.00102839
C        0.00462342       9.99273955       3.75628202       0.01153727       0.00143769       0.00336249
C        7.38581059       1.47369880       3.65522200      -0.01064739      -0.00229780      -0.00070250
C        6.13169091       3.58718474       3.50161716       0.00383410       0.00715790       0.00358565
C        4.83114695       5.72102315       3.69417675       0.01146342       0.00794650      -0.00604666
C        3.66506081       7.91093782       3.90687342      -0.00469852       0.00291030      -0.00356614
C        2.46430158      10.06574795       3.85623264      -0.00022031      -0.00011419      -0.00184225
C        9.87786647       1.47137229       3.76325550      -0.00963070       0.00581720       0.00232629
C        8.63963084       3.59048433       3.63866770      -0.00624327       0.00193798       0.00073187
C        7.37678085       5.70137943       3.73055653       0.00358604       0.00148812      -0.01160296
C        6.14576580       7.81857068       3.90444559       0.00383647      -0.00197976      -0.00142238
C        4.92796557       9.99005111       3.91984407      -0.00018061      -0.00917887       0.00618205
Tl       2.55402069       4.65890625       5.66855254      -0.01675623      -0.01003560       0.00168457
