51
Lattice="12.336457 0.0 0.0 -6.168228499999997 10.683685154694365 0.0 0.0 0.0 15.0" Properties=species:S:1:pos:R:3:forces:R:3 energy=-446.08593125596724 free_energy=-446.08593125596724 stress="0.0009251004675959811 -6.480674717811353e-07 7.782079715666473e-07 -6.480674717811353e-07 0.0009302547814531812 -1.641885072100347e-06 7.782079715666473e-07 -1.641885072100347e-06 6.947655143996302e-06" pbc="T T T"
C       -0.00452332       0.00010530       3.68906916       0.00056903      -0.00044471      -0.00912205
C       -1.23733947       2.13051718       3.68907818       0.00253629       0.00134367      -0.00551281
C       -2.47339318       4.27144410       3.68903044       0.00241472       0.00173669      -0.00838635
C       -3.70195135       6.40430182       3.68685660      -0.00033393       0.00043749      -0.00837741
C       -4.94072724       8.54208413       3.68321156      -0.00278477      -0.00141876      -0.00051087
C        2.46625508       0.00402372       3.68416760      -0.00005346       0.00292149      -0.00096930
C        1.23881819       2.15983615       3.68706588       0.00086434       0.00460524       0.00285793
C       -0.02253523       4.25916323       3.68957613       0.00489170       0.00259641      -0.00383985
C       -1.20992314       6.40121696       3.68743883       0.00450819      -0.00149442      -0.00066352
C       -2.46315120       8.54205491       3.68267515       0.00201090      -0.00111833       0.00009514
C        4.93700544       0.00007160       3.68881453      -0.00029624      -0.00002457      -0.00936564
C        3.69364177       2.15984197       3.68890473      -0.00119914       0.00469409      -0.00122924
B        2.46617239       4.54057471       3.70790589       0.00035694      -0.00502301       0.00714612
B        1.46521681       6.27389595       3.70692286      -0.00494837       0.00308898       0.00356253
C        0.01749302       8.52710035       3.68655186       0.00348151      -0.00350879       0.00247099
C        7.39840584       0.00248464       3.68984773      -0.00024299      -0.00294626      -0.00722488
C        6.16974392       2.13054779       3.68931436      -0.00229584       0.00114553      -0.00624396
C        4.95491206       4.25921408       3.68911362      -0.00410562       0.00253095      -0.00422367
B        3.46724464       6.27395751       3.70736199       0.00410762       0.00242068       0.00548120
C        2.46623409       8.56976333       3.69055140       0.00044615      -0.00522352      -0.00314621
C        9.87050631       0.00249382       3.69088429       0.00010299      -0.00307946      -0.00804760
C        8.63441335       2.13484055       3.68681302       0.00036709      -0.00014531       0.00175663
C        7.40580171       4.27148543       3.68738091      -0.00223130       0.00126273      -0.00498319
C        6.14244294       6.40123516       3.68601605      -0.00473700      -0.00132960       0.00156883
C        4.91504571       8.52714983       3.68890227      -0.00367092      -0.00325022      -0.00035205
C        0.00102807       1.42844430       3.68839259       0.00186663       0.00122573       0.00001708
C       -1.25166327       3.54952103       3.68753634       0.00490699       0.00293789      -0.00288109
C       -2.46219826       5.69494535       3.68847422       0.00197486       0.00116080      -0.00457721
C       -3.70193519       7.83128264       3.68253380      -0.00044462       0.00044783       0.00935836
C       -4.93692967       9.97029687       3.68480178       0.00042671      -0.00031340       0.00308842
C        2.46624574       1.43134662       3.68514819      -0.00031959       0.00475666       0.01216810
C        1.22390561       3.59073566       3.69307666       0.00326441       0.00288814       0.00076462
C        0.02184534       5.67289673       3.69344000       0.00410143       0.00113079      -0.00050158
C       -1.22705271       7.82839078       3.68383055       0.00375826      -0.00243128       0.01126229
C       -2.46701701       9.97026314       3.68416077      -0.00031723       0.00018608       0.00573790
C        4.93142242       1.42842905       3.68997589      -0.00194490       0.00153083      -0.00500191
C        3.70845644       3.59076819       3.69432188      -0.00244517       0.00281846      -0.00180331
C        1.26411108       7.82444451       3.69264088       0.00135043      -0.00370426       0.00327653
C        0.00298075       9.96474766       3.68849994       0.00011230      -0.00258585      -0.00074988
C        7.40116015       1.42280538       3.68773591      -0.00105033      -0.00086641       0.00934245
C        6.18404500       3.54957271       3.68651869      -0.00443500       0.00246764      -0.00142731
C        4.91064624       5.67293836       3.69219023      -0.00398162       0.00106429       0.00065796
C        3.66839637       7.82456918       3.69481803      -0.00091936      -0.00427363      -0.00136194
C        2.46623168       9.98904898       3.68905129      -0.00004283      -0.00560105      -0.00351521
C        9.86768531       1.42280478       3.68820167       0.00151920      -0.00101507       0.00836294
C        8.63441895       3.55889927       3.68648304       0.00020686       0.00143191       0.01063472
C        7.39471981       5.69497482       3.68684410      -0.00235672       0.00082609      -0.00226414
C        6.15962207       7.82842744       3.68437779      -0.00442655      -0.00225769       0.01173124
C        4.92950965       9.96478548       3.69027147      -0.00017865      -0.00244315      -0.00250917
Tl       2.47272288       5.67972702       6.35387738      -0.00012001       0.00033417       0.00087586
O        2.48117184       5.66301819       8.37351615      -0.00026338       0.00050746      -0.00342651
