53
Lattice="12.336457 0.0 0.0 -6.168228499999997 10.683685154694365 0.0 0.0 0.0 15.0" Properties=species:S:1:pos:R:3:forces:R:3 energy=-456.5383960373284 free_energy=-456.5383960373284 stress="0.001377504244274257 1.9796487946705e-05 8.65071940257288e-07 1.9796487946705e-05 0.001368670673685 2.0077582149920657e-05 8.65071940257288e-07 2.0077582149920657e-05 1.1314995824084496e-05" pbc="T T T"
C       -0.02084282      -0.00140315       3.69474229      -0.00320251       0.00610824       0.00654702
C       -1.25288782       2.12977290       3.69136330      -0.00294425       0.00096320       0.00313895
C       -2.48904727       4.27097967       3.68876772       0.00160231      -0.00584452      -0.00009831
C       -3.71859641       6.40365992       3.69582898       0.00874947      -0.00888173      -0.00156992
C       -4.95772882       8.54060567       3.69751639       0.00218686       0.00196750       0.00372682
C        2.44988886       0.00317460       3.70060283       0.00096085       0.00365900      -0.00630637
C        1.22354573       2.16002490       3.69547712       0.00457829      -0.00062869       0.00433634
C       -0.03725582       4.25905928       3.69546525      -0.00195664      -0.00237425      -0.00062161
C       -1.22479103       6.40040050       3.69623409      -0.00111445       0.00044751       0.00634033
C       -2.47919259       8.54069681       3.70277659      -0.00366685       0.00352673      -0.00285897
C        4.92066377      -0.00097626       3.69482325      -0.00141627       0.00318305      -0.00030633
C        3.67686726       2.15985843       3.68773232      -0.00560896       0.00498382       0.01442578
B        2.45018761       4.54123019       3.69525867       0.00902152      -0.01041959      -0.00933097
B        1.45009479       6.27267238       3.69782670      -0.00640409       0.00541996       0.00048158
C        0.00132801       8.52504272       3.69367496       0.00454238      -0.00788995      -0.00131389
C        7.38193536       0.00065997       3.68628521       0.00243256       0.00317512      -0.00972489
C        6.15334343       2.12976824       3.67637656      -0.00588153      -0.00092921       0.01404984
C        4.93786602       4.25866792       3.68316244      -0.00317050      -0.00235777      -0.00587962
B        3.44646368       6.27011872       3.69693787       0.01178648       0.00633232      -0.00438111
C        2.44932827       8.56700857       3.68519983       0.00789274       0.00302133       0.00663712
C        9.85407224       0.00053026       3.68912337       0.00273882       0.00199630      -0.00336809
C        8.61830205       2.13352173       3.68070300       0.00364633       0.00265195       0.00822748
C        7.38934669       4.27060689       3.68182710      -0.00028209      -0.00017900      -0.00001891
C        6.12504176       6.39972658       3.69145261      -0.01149429       0.00093696       0.00388740
C        4.89759443       8.52426648       3.69039113      -0.00452767      -0.00148432      -0.00055264
C       -0.01437573       1.42756788       3.69546922      -0.00001380       0.00604806      -0.00612540
C       -1.26641131       3.54941367       3.69003284      -0.00393612      -0.00304948       0.00711783
C       -2.47804596       5.69475454       3.69317477       0.00855330      -0.00850241       0.00681621
C       -3.71854619       7.83054157       3.70051070       0.00302806      -0.00536120      -0.00273553
C       -4.95326240       9.96888576       3.69832077      -0.00087413       0.00541361       0.00253984
C        2.45008026       1.43146278       3.69485036       0.00275388       0.00032452       0.00622955
C        1.20958675       3.59139363       3.69779971       0.00115778      -0.00177702      -0.00433000
C        0.00773486       5.67260727       3.69900065      -0.00212006      -0.00125561      -0.01210352
C       -1.24253751       7.82675651       3.69901854      -0.00401938       0.00071951      -0.00000061
C       -2.48338706       9.96905752       3.70291870      -0.00150699       0.00451135      -0.01508916
C        4.91483668       1.42784437       3.68693659      -0.01014325       0.00422162      -0.00947435
C        3.69058530       3.59124677       3.68953310      -0.00056566      -0.00007185      -0.00395685
C        1.24746558       7.82125705       3.69150566       0.01033628      -0.00028988       0.00134669
C       -0.01352597       9.96307140       3.69167235       0.00178536      -0.00328583       0.00106110
C        7.38479285       1.42133646       3.67890883       0.00123865       0.00389587       0.00818872
C        6.16709710       3.54917287       3.67371723      -0.00320862      -0.00216687       0.01866258
C        4.89271693       5.67182744       3.69381285      -0.01192305      -0.00056488      -0.01027783
C        3.65084561       7.82131083       3.69065687       0.00091505      -0.00368015       0.00646806
C        2.44967412       9.98643145       3.68496716       0.00463072       0.00436828      -0.00524253
C        9.85177118       1.42142018       3.68827375       0.00141118       0.00018982      -0.00829713
C        8.61843266       3.55794173       3.68272451       0.00166151       0.00131538       0.00063363
C        7.37786715       5.69393328       3.69130828      -0.00219912       0.00185568      -0.01034187
C        6.14225111       7.82630373       3.69309238      -0.00439664       0.00317909       0.00891841
C        4.91289169       9.96262060       3.69183979      -0.00139227      -0.00060911      -0.00177828
Tl       2.71209411       5.79855503       6.55661116      -0.00011982      -0.01461650       0.00081836
O        3.73482048       5.49281797       8.54535857       0.00889154       0.00857426      -0.00839850
O        2.47908136       5.30566685       9.31410538      -0.01264812      -0.00456954       0.01147546
H        2.59192040       6.03925311       9.94447973       0.00423522      -0.00220069      -0.00759190
