50
Lattice="12.336457 0.0 0.0 -6.168228499999997 10.683685154694365 0.0 0.0 0.0 15.0" Properties=species:S:1:pos:R:3:forces:R:3 energy=-432.5446600038988 free_energy=-432.5446600038988 stress="-0.0028712315944620713 -0.00247040617216469 -1.4850228667138054e-06 -0.00247040617216469 -0.008544644442049817 -1.035014988467346e-05 -1.4850228667138054e-06 -1.035014988467346e-05 3.230635157631968e-06" pbc="T T T"
C       -0.00560198      -0.03108447       3.51553779       0.00761551       0.00603259      -0.00173433
C       -1.24819511       2.11145592       3.47635509      -0.00591525      -0.00129323      -0.00167529
C       -2.49234013       4.24617460       3.65226781      -0.00288272       0.00165759       0.01100757
C       -3.71042723       6.38302486       3.69992928      -0.00165073       0.00295728       0.00546860
C       -4.93533434       8.51139392       3.61529080      -0.00840365      -0.00967650       0.00555337
C        2.46565751      -0.08889578       3.64859381      -0.00206749       0.00035715       0.00390796
C        1.25561456       2.04212167       3.39921584      -0.00529942       0.00874609      -0.00025769
C       -0.04397961       4.27424998       3.55889592      -0.00038265      -0.00816390       0.01105342
C       -1.25927585       6.38529762       3.82389922      -0.00635279      -0.00030005       0.01833898
C       -2.45938552       8.50266675       3.75640498      -0.00524897      -0.00474531       0.00585944
C        4.93239415      -0.04135365       3.82452866      -0.00697621      -0.00375987       0.01558741
C        3.65089353       1.99972497       3.97330109      -0.00725648       0.00140737      -0.01345074
B        1.17151907       6.41226875       4.16127831       0.00291146      -0.00091334      -0.00395261
C        0.01162556       8.51905844       3.86181862       0.00856071       0.00534719       0.00266286
C        7.39604468      -0.00825593       3.77543488       0.00666875      -0.00377428       0.00222587
C        6.13563995       2.14030238       3.85995098       0.00548294      -0.01217011       0.01205222
C        4.91563665       4.37210850       3.90323002       0.00819513       0.01266233       0.00555052
O        3.76873314       6.48028860       3.93991413       0.00220811       0.00706828      -0.00353026
C        2.50335917       8.53609841       3.80862009       0.00925029      -0.00302895       0.00279802
C        9.86300714      -0.01052586       3.61525703      -0.00152538      -0.00324060       0.00673728
C        8.61364289       2.12266696       3.66923376       0.00592612       0.00472609      -0.00049404
C        7.36988995       4.26333161       3.73344528       0.00280324       0.00445891      -0.00819479
C        6.16981335       6.42066163       3.67172200       0.00103524      -0.00324089       0.00341166
C        4.94056334       8.53735870       3.64198533       0.00189234       0.00351163       0.00623102
C       -0.00254233       1.39592424       3.43170758      -0.00147802       0.00512754      -0.00876576
C       -1.25038577       3.53175856       3.54309631      -0.00599187      -0.00116678      -0.01705934
C       -2.48867933       5.66848835       3.73088928      -0.00733379       0.00135684      -0.01156897
C       -3.69659751       7.80168967       3.68753346      -0.00644610      -0.00167527       0.00586031
C       -4.94298671       9.92491879       3.57551509       0.00562004      -0.00533957      -0.00860232
C        2.45835952       1.31757614       3.66342961      -0.00676546       0.00267721      -0.00511520
P        1.53490689       3.73922957       2.95957085      -0.00023985       0.00172590      -0.00392201
C       -0.04628683       5.65816369       3.83667122      -0.00636801      -0.00347130       0.01072003
C       -1.22249546       7.79967534       3.84045819       0.00136286       0.00047610       0.00035130
C       -2.46043169       9.91545868       3.75119202      -0.00387118      -0.00550510      -0.00202096
C        4.91245149       1.39118228       3.90875049      -0.00572137      -0.00521914      -0.00261396
P        3.35930635       3.68812212       4.37535662       0.00634120      -0.00145811      -0.00222547
C        1.26789433       7.83974564       3.91357136       0.01126767      -0.00101792      -0.00106730
C       -0.00109514       9.95085481       3.81924070       0.00145971       0.00604140       0.01365210
C        7.37372699       1.42255569       3.76682201       0.01165655      -0.00434732      -0.00126478
C        6.11672178       3.58027822       3.83292503       0.00397994      -0.00376214      -0.00722409
C        4.95847221       5.76199079       3.80227962      -0.00338440       0.00752403      -0.00863875
C        3.73887073       7.85001884       3.78417357       0.00340796      -0.00143376      -0.00453695
C        2.47470009       9.96417951       3.72618190       0.00168951      -0.00711227      -0.00695834
C        9.85488144       1.41465597       3.57332197      -0.00237232      -0.00284883       0.01141762
C        8.60921278       3.54325344       3.68001187       0.00047905       0.00548009      -0.00956333
C        7.39029442       5.67920439       3.68999163       0.00389521       0.00274147      -0.00914496
C        6.17284978       7.82762572       3.62445389      -0.00740862      -0.01026091      -0.00768559
C        4.92647821       9.96019481       3.57947432       0.00413290       0.00598010      -0.00310351
Tl       2.00935016       6.11235035       6.44313987       0.00623705       0.00165437       0.00153915
O        3.02248291       3.98781369       5.84215629      -0.01273675       0.00920787      -0.00761537
