50
Lattice="12.336457 0.0 0.0 -6.168228499999997 10.683685154694365 0.0 0.0 0.0 15.0" Properties=species:S:1:pos:R:3:forces:R:3 energy=-442.46200447869785 free_energy=-442.46200447869785 stress="0.0006077668242395874 1.8039929018008397e-05 3.018345504155068e-06 1.8039929018008397e-05 0.0006413570994498791 -7.2941823281651255e-06 3.018345504155068e-06 -7.2941823281651255e-06 7.863973789806499e-06" pbc="T T T"
C       -0.00447717       0.00036550       3.70843755       0.00294932      -0.00384527       0.00176003
C       -1.23707983       2.13088561       3.72471161      -0.00348503      -0.00017977      -0.00201029
C       -2.47325223       4.27196547       3.72511775      -0.00093294      -0.00364123      -0.00052354
C       -3.70202708       6.40444858       3.71182861      -0.00401892       0.01573141       0.00388168
C       -4.94137094       8.54219063       3.70215857      -0.00158585       0.00196446       0.00539655
C        2.46586158       0.00507519       3.70206340       0.00003985      -0.00397139      -0.00686332
C        1.23832374       2.16065809       3.69445309      -0.00280287      -0.00311748      -0.00369130
C       -0.02285670       4.26012062       3.69789076       0.00057224      -0.00665105       0.00168133
C       -1.21103706       6.40186543       3.70333571       0.00014211      -0.00538974       0.00475422
C       -2.46402217       8.54276589       3.70600659       0.00671095      -0.00335200       0.00530421
C        4.93671246       0.00036317       3.71282873      -0.00949977      -0.00371875       0.00242886
C        3.69451543       2.15963774       3.69620086      -0.00275733       0.00814062      -0.00314504
B        2.46665734       4.53919034       3.65692782       0.00358431      -0.00514461       0.01334847
B        1.46167770       6.27582646       3.66886950       0.00623674       0.00650260      -0.01175461
C        0.01670415       8.52825565       3.70382586       0.00450283       0.00207146       0.01152502
C        7.39823543       0.00269378       3.73027092       0.00241530       0.00028929       0.00031055
C        6.17001234       2.13061485       3.72347905       0.00163896      -0.00102753      -0.00411924
C        4.95554773       4.25905447       3.69133876      -0.00088997       0.00085345      -0.00289002
B        3.46902567       6.27455664       3.66188737       0.00534167       0.00093108       0.00217205
C        2.46560497       8.56967596       3.70649793       0.00312942       0.00560939       0.00047358
C        9.87025827       0.00247744       3.72959848       0.00273130       0.00421986      -0.00000662
C        8.63475161       2.13525606       3.74228054      -0.00108964      -0.00452518      -0.00566855
C        7.40597485       4.27160023       3.72019683       0.00228799       0.00052849      -0.00196122
C        6.14314290       6.40106021       3.69547513      -0.00693272      -0.00246850      -0.00088818
C        4.91429570       8.52770678       3.70003086       0.00185359       0.00075362       0.00480961
C        0.00132341       1.42865592       3.70884916      -0.00098460      -0.00071484       0.00914094
C       -1.25135774       3.55020546       3.71650504      -0.00014940      -0.00302201       0.00004669
C       -2.46251218       5.69558964       3.71539500      -0.00126246       0.00447243      -0.00601283
C       -3.70255476       7.83140137       3.70628048       0.00074159       0.01333755      -0.00088397
C       -4.93711359       9.97062859       3.70201279       0.00240028      -0.00185545       0.01045151
C        2.46614038       1.43275288       3.69621328       0.00008092      -0.00368150       0.00673397
C        1.22310193       3.59149280       3.68728308       0.00473882       0.00225273      -0.00135468
C        0.02040741       5.67348460       3.69468733       0.00533033      -0.00728015       0.00149825
C       -1.22758393       7.82900186       3.70600771       0.00528163      -0.00144167      -0.01360136
C       -2.46759737       9.97111304       3.70513869      -0.00447947      -0.00902539       0.01053805
C        4.93160942       1.42820755       3.71310339      -0.00608030       0.00352496      -0.00787403
C        3.70979625       3.59026882       3.68602470      -0.00867457       0.01225456      -0.00077300
C        1.26322626       7.82584824       3.69832215       0.00442747      -0.00966542      -0.00065334
C        0.00234302       9.96528115       3.71666041      -0.00125652      -0.00367001       0.00201325
C        7.40135642       1.42303423       3.73790014       0.00264587      -0.00041161      -0.00723060
C        6.18423289       3.54961295       3.70932282       0.00015626       0.00173961       0.01378949
C        4.91178073       5.67239758       3.68519512      -0.01083296       0.00070218       0.00894644
C        3.66768892       7.82495806       3.69614259      -0.00064764      -0.00149060      -0.00891083
C        2.46586380       9.98867050       3.72483004       0.00379973       0.00374960      -0.00586870
C        9.86800677       1.42292430       3.73961173      -0.00421535       0.00318887      -0.01741976
C        8.63463825       3.55945935       3.73346098       0.00118825      -0.00940133       0.00119009
C        7.39510182       5.69524010       3.71001796      -0.00551414       0.00517405      -0.00209429
C        6.15860277       7.82836477       3.69914546       0.00343888      -0.00179481      -0.00440049
C        4.92954045       9.96501903       3.71332186       0.00206780      -0.00364416       0.00424189
Tl       2.48105920       5.66278239       6.09351505      -0.00234198       0.00613915      -0.00583691
