50
Lattice="12.336457 0.0 0.0 -6.168228499999997 10.683685154694365 0.0 0.0 0.0 15.0" Properties=species:S:1:pos:R:3:forces:R:3 energy=-431.45966603124896 free_energy=-431.45966603124896 stress="0.008692193629812703 -0.0008572542909591903 5.283082510636634e-06 -0.0008572542909591903 -0.008013346533893155 -3.796166227811886e-05 5.283082510636634e-06 -3.796166227811886e-05 2.7251961621398328e-08" pbc="T T T"
C       -0.00198127      -0.04456650       3.76332128       0.00558481      -0.00440488       0.00855905
C       -1.21063326       2.13797448       3.64286650       0.00002357       0.00805398       0.00346502
C       -2.43303595       4.26333517       3.68444887      -0.00943991      -0.00112719      -0.00042669
C       -3.69029363       6.36815934       3.82806392      -0.00051248       0.00682033       0.00220268
C       -4.94097234       8.48527507       3.87801979       0.00146036      -0.00730775      -0.01303640
C        2.47121182      -0.11302576       3.68028867      -0.00028527       0.00114859       0.00409237
C        1.25165603       2.01620980       3.50872174      -0.00648338       0.00336394       0.01533180
C        0.08749691       4.27108694       3.58625205      -0.00009290      -0.00242900      -0.01062955
C       -1.15246737       6.37305840       3.79792069       0.00135319      -0.00372529      -0.00206760
C       -2.44388513       8.48461170       3.80812921       0.00606555      -0.00601604      -0.00632469
C        4.94014871      -0.03625077       3.61593494      -0.00550236      -0.00979265      -0.00643691
C        3.66311108       2.00642038       3.29742079       0.00386696       0.00103397       0.00764202
B        1.54948376       6.37630505       3.87699721      -0.00073204       0.00689493       0.00409425
C        0.02606099       8.53686611       3.78538342       0.00152131       0.00598149       0.01057351
C        7.39347648       0.03664531       3.67852143       0.00089690       0.00389460       0.00469439
C        6.14421600       2.14491199       3.49384512      -0.00337151       0.00674464      -0.00597071
C        4.88808890       4.31192374       3.49315703      -0.00462576      -0.00310163       0.01043512
B        3.40040411       6.37997133       3.92745185       0.00070211       0.00512709       0.00125184
C        2.47129510       8.63250274       3.84376939       0.00149775      -0.00560184      -0.00049887
C        9.87966815       0.03438423       3.75918503       0.00128019       0.00374159      -0.00769897
C        8.63575443       2.15526706       3.62873360       0.00108517      -0.01024153       0.00723496
C        7.38157454       4.26635897       3.66102722       0.00810971      -0.00036039       0.00114728
C        6.11293820       6.37895617       3.87066557      -0.00629281      -0.00085847      -0.00213743
C        4.92048199       8.53722303       3.89760019      -0.00077171       0.00670747       0.00863274
C        0.00505623       1.38109458       3.64640830      -0.00406038      -0.00196951       0.00796527
C       -1.17816689       3.56011369       3.62409787      -0.00746078       0.00542678      -0.01583051
C       -2.42399639       5.67535990       3.77322043      -0.00546149       0.00141119      -0.00455873
C       -3.69106246       7.78213086       3.85924489       0.00456368       0.00296395      -0.01051879
C       -4.94253437       9.89721309       3.79282193       0.00543281      -0.00818390       0.00491808
C        2.45949494       1.28025203       3.49307532      -0.00298826       0.00400172       0.00303852
B        1.41024773       3.50606407       3.40235713      -0.00495386      -0.00438423      -0.00884624
C        0.12510332       5.67195848       3.75556148       0.00229378      -0.00406740      -0.00852446
C       -1.19695429       7.79290861       3.80872417       0.00731097      -0.00323135       0.00364750
C       -2.44780687       9.89858387       3.70739589      -0.00432118      -0.00846373      -0.00056004
C        4.92437575       1.39050946       3.44941194       0.00014288      -0.00720776       0.00013337
P        3.31276604       3.68105371       2.90866135       0.01541206      -0.00286243      -0.00716900
C        1.27546508       7.88456460       3.83857805      -0.00331641       0.00207562       0.00832962
C        0.00749631       9.97163978       3.69680332      -0.00008529       0.00376208      -0.00022447
C        7.38718539       1.45293480       3.59390579      -0.00360467       0.00317086       0.00021247
C        6.12817440       3.56754687       3.52938870       0.00351744       0.00616455      -0.00642492
C        4.83332510       5.69010493       3.79371567      -0.00599626      -0.00259715       0.00791676
C        3.66857734       7.89030187       3.90587367       0.00447763       0.00045135       0.00567187
C        2.46771681      10.04374500       3.76871705       0.00223574      -0.00425988      -0.00942138
C        9.88128889       1.44993676       3.67770142       0.00410149       0.00250906      -0.00322274
C        8.64105096       3.56991995       3.64857060       0.00039871      -0.01325032       0.00813290
C        7.37888067       5.67607640       3.79803729       0.00169143       0.00276551       0.00072215
C        6.14982089       7.79680710       3.91159503      -0.00454008      -0.00084433      -0.00849270
C        4.93099957       9.96842012       3.82224345       0.00174058       0.00545955      -0.00265704
Tl       2.45399978       5.74364397       6.22808833      -0.00226798      -0.00065184       0.00543473
O        2.52711183       4.61096687       7.88134749       0.00040000       0.01726567      -0.00380143
