50
Lattice="12.336457 0.0 0.0 -6.168228499999997 10.683685154694365 0.0 0.0 0.0 15.0" Properties=species:S:1:pos:R:3:forces:R:3 energy=-438.19357949357516 free_energy=-438.19357949357516 stress="-0.00466320492363808 0.000618515501218055 -2.3359639675233353e-05 0.000618515501218055 0.003944205936725463 -2.786608868342826e-05 -2.3359639675233353e-05 -2.786608868342826e-05 -6.501999149703703e-07" pbc="T T T"
C       -0.01231651       0.02388648       3.73034997      -0.00863996       0.01244635      -0.00353537
C       -1.26542196       2.13059155       3.74977423       0.00575113       0.00834133      -0.00066578
C       -2.50416554       4.27792620       3.65514147       0.00705231      -0.00212344       0.00482533
C       -3.72492260       6.43047047       3.57724896      -0.00198638      -0.00969767      -0.00163540
C       -4.94690265       8.57906162       3.62042129      -0.00548256       0.00666493       0.00141750
C        2.45981153       0.06705055       3.71978579       0.00888527      -0.00931392      -0.00055886
C        1.21969111       2.21137358       3.92215073       0.00451450      -0.00123889       0.00476102
C       -0.06367484       4.26433934       3.98068310       0.00638965      -0.00011967       0.00888257
C       -1.29119335       6.43616567       3.78046807      -0.00118953      -0.00118587       0.00461252
C       -2.49647609       8.57989345       3.68616049       0.00222954      -0.00400103      -0.00578768
C        4.91795939       0.01323919       3.72499847       0.00384771       0.01224143      -0.01182464
C        3.72934609       2.15903552       3.67925713      -0.00695209       0.00050891       0.00318862
C        1.08655121       6.43543831       4.26676609      -0.00961098       0.00470580       0.00807799
C       -0.02769371       8.54638077       3.85486490      -0.00691234      -0.00706212       0.00399740
C        7.39258977      -0.02186806       3.75593358      -0.00672064      -0.01485644      -0.00140443
C        6.16701001       2.13231789       3.62773085      -0.00641134      -0.00029200      -0.00382287
C        4.95771218       4.26146691       3.54635779      -0.00371603      -0.00180842       0.00209839
N        3.76562311       6.41454396       3.77050173       0.00400324       0.00139094      -0.00068503
C        2.46125770       8.50042469       3.89334540       0.00375163       0.00948831      -0.00459203
C        9.84962125      -0.02191424       3.73729893       0.01610708       0.00170947       0.00287459
C        8.61923824       2.12686865       3.65071351       0.00089286      -0.00203958      -0.00932492
C        7.38852447       4.28224005       3.54326462      -0.01105880       0.00146523       0.00638404
C        6.15603460       6.41671121       3.53282499      -0.00052730       0.00337244       0.00051031
C        4.93145225       8.54324792       3.69136856      -0.00365169      -0.00818604      -0.01036839
C       -0.01740778       1.44728691       3.80415870       0.00064060       0.01156650      -0.01355413
C       -1.28920445       3.55352812       3.76831473       0.00472064       0.00048514       0.00381197
C       -2.50658151       5.71319378       3.65107036       0.00428785      -0.00200291       0.00772277
C       -3.72048015       7.86144512       3.61505779      -0.00295051      -0.00434646      -0.00624294
C       -4.94122066      10.01209974       3.69244138      -0.00794894       0.01025728       0.00681744
C        2.48092506       1.50161071       3.78432903       0.00175997      -0.01385025      -0.00171316
C        1.10413517       3.56372971       4.19123722      -0.01252089      -0.00908547       0.00470603
C       -0.07221707       5.72524839       4.00353118       0.00457187      -0.00277158       0.00819975
C       -1.27025542       7.85928385       3.76741003      -0.00410870      -0.00638803       0.00185785
C       -2.48897647      10.01131041       3.70626366       0.01581399      -0.00248147      -0.00517148
C        4.93129301       1.44098332       3.67938736      -0.00876068       0.01143173      -0.00777891
O        3.78219605       3.53247644       3.52350335       0.00202208      -0.00441103       0.01258084
C        1.20895771       7.79898249       4.01263909      -0.00162229       0.00294637       0.00683403
C       -0.01568244       9.96592253       3.77475295      -0.01011136      -0.00891877       0.00000116
C        7.38758653       1.41096055       3.67157223      -0.00590147      -0.01238838      -0.00735440
C        6.15772198       3.56205854       3.55795818      -0.00866103      -0.00051290      -0.00351458
C        4.91663312       5.70111106       3.57638180       0.00469277       0.00477221      -0.00233997
C        3.71366232       7.77253554       3.78537853      -0.00085289       0.00256066      -0.00395776
C        2.45595465       9.92492454       3.79282289       0.00967876       0.00417994      -0.00362709
C        9.84238013       1.40512106       3.70149596       0.01034044       0.00314165       0.01109910
C        8.61221326       3.55920806       3.59839521      -0.00218479       0.00605462      -0.00029639
C        7.38183013       5.70600150       3.52560610      -0.00692334      -0.00210997       0.00519579
C        6.15976901       7.84768735       3.59920208      -0.00274417       0.00051198      -0.00331883
C        4.92065655       9.96806678       3.72144288       0.00402513      -0.00888541      -0.00864746
Tl       2.37630603       5.06580302       5.27887479       0.01389830       0.00347601       0.00869626
O        3.45043919       4.48501559       6.78177068       0.00827336       0.01635850      -0.00743078
