51
Lattice="12.336457 0.0 0.0 -6.168228499999997 10.683685154694365 0.0 0.0 0.0 15.0" Properties=species:S:1:pos:R:3:forces:R:3 energy=-444.0319467572943 free_energy=-444.0319467572943 stress="-0.0008913809579364433 0.006175851023899433 2.5856923064863438e-05 0.006175851023899433 -0.0009755775557893866 1.5718478847242522e-05 2.5856923064863438e-05 1.5718478847242522e-05 1.4986199166599105e-05" pbc="T T T"
C       -0.01688527       0.00995441       3.68894492       0.00065442       0.00324165       0.01125121
C       -1.21011742       2.16709300       3.76055269      -0.00008053      -0.00150559      -0.00519101
C       -2.43906727       4.28760504       3.74278936       0.00333020      -0.00451987      -0.00160079
C       -3.72197166       6.40877253       3.65090226      -0.00302277      -0.01257075       0.00243213
C       -4.98726092       8.53303569       3.61866162       0.00788639      -0.00064126      -0.00034086
C        2.43755032      -0.00486023       3.66835395      -0.00009379       0.00508496       0.00533339
C        1.24934694       2.18032173       3.64444692       0.00432855       0.00052703       0.00581695
C        0.04376664       4.35419898       3.76981113       0.01111400      -0.00337521      -0.00606605
C       -1.26246208       6.43556640       3.81154322      -0.00004443      -0.00107185       0.00360444
C       -2.50676081       8.54981741       3.74231424      -0.00266764       0.00091370       0.00025075
C        4.91711739      -0.00394020       3.76097691       0.00507223      -0.00012061      -0.00704446
C        3.70917421       2.10116397       3.57033948       0.00190406      -0.00674046      -0.00430842
C        2.57917455       4.25284181       3.43666174       0.00731875       0.00333800      -0.00928464
O        1.04387146       6.51955166       4.27050685       0.00058000       0.00066932       0.01843313
C       -0.04650344       8.56075860       3.90574595      -0.00080028       0.00005976      -0.00477696
C        7.39413863      -0.00180522       3.87451796      -0.00323974       0.00734456      -0.00715172
C        6.19378527       2.10524629       3.67127215      -0.00581307       0.00892080       0.00139360
C        4.99871988       4.20030591       3.38747288      -0.01223019      -0.00246524       0.01274296
S        3.35053171       6.14772721       3.17524414       0.00223740      -0.01218879       0.00782480
C        2.40433027       8.53423710       3.90088482       0.00162329       0.00668590       0.00852985
C        9.86465698       0.00360314       3.82289535      -0.00129403       0.00171003       0.00258891
C        8.65833914       2.13768898       3.77915209      -0.00319689      -0.00172252       0.00138268
C        7.43586781       4.25886761       3.60154952      -0.00594613      -0.00142943      -0.00037595
C        6.14407097       6.38341445       3.45826296      -0.00498677       0.00197879      -0.00441613
C        4.87266917       8.51835674       3.62629611       0.00447853       0.00781921       0.00608414
C        0.01317142       1.45208798       3.70623487       0.00133918       0.00199634       0.00348580
C       -1.18665885       3.60613498       3.76607681       0.00732328      -0.00212288      -0.00326499
C       -2.48002663       5.70442595       3.72628559       0.00043996      -0.00579245       0.00765065
C       -3.74410079       7.83278364       3.66489180       0.00356610      -0.01097920      -0.01044824
C       -4.96739069       9.96684505       3.65483794       0.00176496       0.00307143       0.00594832
C        2.45510404       1.42522388       3.62712975       0.00163915       0.00165691       0.00297905
C        1.31419747       3.65051802       3.61485145       0.01212765      -0.00106552      -0.00118908
C       -0.05089674       5.75721399       3.91071196       0.00432918      -0.00173101      -0.00383229
C       -1.28267932       7.85189775       3.82697358      -0.00345392       0.00136119       0.00740347
C       -2.49906851       9.97475512       3.72535939       0.00052839       0.00402707      -0.00090791
C        4.94372492       1.40532813       3.66821125       0.00307421      -0.00060541      -0.00285573
C        3.74109586       3.51737749       3.42487511      -0.00431675      -0.00816877       0.00248789
C        1.14303355       7.87397692       3.99952769      -0.00041934       0.00145277       0.00788112
C       -0.01853369       9.98457330       3.85620097       0.00336250      -0.00041389      -0.01268822
C        7.42027102       1.41686377       3.78741404      -0.00752959       0.00646308      -0.00322068
C        6.22349744       3.51753050       3.54476157      -0.00983010       0.00630641       0.00059119
C        4.98019669       5.59178543       3.32619775      -0.00283360      -0.00297522      -0.00101916
C        3.61990503       7.85011239       3.66259277       0.00152406       0.00961247      -0.00750670
C        2.44983484       9.96866608       3.89885335      -0.00282469       0.00826924      -0.00394741
C        9.88981819       1.43786786       3.80337434      -0.00133471      -0.00215047      -0.00232578
C        8.66786949       3.55958120       3.71229024      -0.00141034      -0.00206374      -0.00077900
C        7.39869165       5.68168341       3.56013027      -0.00776790      -0.00374608      -0.00887171
C        6.11482893       7.80998992       3.54712457       0.00483274       0.00451017      -0.00442967
C        4.91344081       9.96897776       3.72464684       0.00063942       0.00551059       0.00094071
Tl       3.24090577       5.78593897       6.13838610       0.00128144      -0.00546548      -0.00294183
O        3.05202821       5.62399212       8.17221387      -0.01316283      -0.00689967      -0.00625175
