49
Lattice="12.336457 0.0 0.0 -6.168228499999997 10.683685154694365 0.0 0.0 0.0 15.0" Properties=species:S:1:pos:R:3:forces:R:3 energy=-424.1018042430644 free_energy=-424.1018042430644 stress="0.0023577801387556097 0.0030468917858644004 5.603826946068557e-06 0.0030468917858644004 -0.007969996884336894 8.947969062060918e-06 5.603826946068557e-06 8.947969062060918e-06 2.996139986505575e-06" pbc="T T T"
C       -0.00046407      -0.04180427       3.86064473       0.00326949       0.00004399      -0.00457599
C       -1.19350669       2.14369791       3.93416218      -0.00283147       0.00214160      -0.00932989
C       -2.43133329       4.26977808       3.75013109      -0.00168089       0.00176528       0.00682257
C       -3.69181574       6.38122450       3.68255788       0.00170320       0.00450499      -0.01025137
C       -4.95696451       8.49176992       3.76731274       0.00258431       0.00217766       0.00554462
C        2.46293831      -0.07046560       3.67275469       0.00474379      -0.00177504       0.00712871
C        1.28007693       2.02934955       3.99279763      -0.00015089       0.00577278      -0.01208301
C        0.00194599       4.32306189       4.08382199       0.01098733      -0.00289777       0.00066376
C       -1.19468477       6.40340424       3.72465540      -0.00549558       0.00580773       0.01267606
C       -2.47287855       8.50939574       3.66612776       0.00051684       0.00516273      -0.00458998
C        4.93286764      -0.02547320       3.55478757       0.00005583      -0.00270144      -0.00690749
C        3.68605258       2.02731347       3.27568338      -0.00886186      -0.00991313      -0.00019435
C        1.32484678       6.47014054       3.79978034       0.00380056       0.01110922       0.00513846
C       -0.01430492       8.55746616       3.68160552       0.00386891      -0.00685145       0.00265554
C        7.39891797       0.02284837       3.65225990       0.00024647      -0.00042919       0.00429555
C        6.18083629       2.12080293       3.36400180      -0.00209582       0.00325533       0.00202393
C        5.01607665       4.26453767       3.10788023      -0.00567930       0.00513394       0.00418141
P        3.24928601       6.16293237       3.97566335       0.00017488      -0.00391663      -0.00530069
C        2.44352727       8.61624333       3.82711951       0.00236181      -0.00676491      -0.00743405
C        9.88444995       0.01827737       3.82830546       0.00064074      -0.00256815       0.00378746
C        8.66078656       2.14250605       3.66408074       0.00742957      -0.00228348      -0.00335098
C        7.43142497       4.25599952       3.50898069       0.00052851      -0.00141265       0.00375133
C        6.14377377       6.36404781       3.66278388       0.00069981      -0.00460219       0.00338141
C        4.90769078       8.51435492       3.87576111      -0.00442252      -0.00553161      -0.00597139
C        0.02216807       1.39640235       3.94517956      -0.00056842       0.00114022       0.00192933
C       -1.18727462       3.56847527       3.92245161      -0.00116241       0.00154210       0.00027127
C       -2.43358262       5.68788670       3.71087635      -0.00193244       0.00255904       0.00033819
C       -3.70912030       7.79737292       3.70649781       0.00188523       0.00436025       0.00172758
C       -4.94605743       9.91397919       3.78447807       0.00472806       0.00201419       0.00297146
C        2.47635383       1.34722061       3.63626216      -0.00696330       0.00203448       0.00127086
S        1.41960729       3.58166269       4.72844956      -0.01177882      -0.00680088       0.00053360
C        0.08114416       5.72251132       3.84340630      -0.00595777       0.00669591       0.00445208
C       -1.23035929       7.82031998       3.67337289      -0.00307250       0.00633218       0.00389203
C       -2.46548467       9.92543474       3.61892823       0.00230611       0.00086984      -0.00371010
C        4.93918100       1.39609889       3.38797778      -0.00487926       0.00031092       0.00087106
S        3.60362764       3.51815301       2.41656552      -0.00601933       0.01542635      -0.00510222
C        1.22606971       7.87258493       3.76048365       0.00553897      -0.01642834       0.00332818
C       -0.00023838       9.97542140       3.62754753       0.00030315      -0.00607156      -0.00297354
C        7.41010998       1.43571409       3.55760747       0.00373197       0.00047537      -0.00391042
C        6.20671771       3.53275836       3.29293261      -0.00189624       0.00105206      -0.00065454
C        4.92366112       5.61123249       3.50514614       0.01012742      -0.01045372      -0.00396327
C        3.63326523       7.86963029       3.93056025      -0.00337165       0.00464634       0.00616977
C        2.46682334      10.02223810       3.77288430       0.00262198      -0.00251897      -0.00731255
C        9.90307051       1.44286873       3.81281900       0.00293605      -0.00091608      -0.00078457
C        8.66961992       3.55707001       3.63410103       0.00331533      -0.00153497       0.00904694
C        7.40428121       5.67256857       3.61760011       0.00359641       0.00189314      -0.00570599
C        6.13836253       7.78518016       3.79902084      -0.00053382       0.00008461      -0.00054012
C        4.92746331       9.94907291       3.86899269       0.00066054      -0.00427062       0.00861119
Tl       2.34843814       5.82528213       6.48691855      -0.00600899       0.00233051      -0.00281782
