50
Lattice="12.336457 0.0 0.0 -6.168228499999997 10.683685154694365 0.0 0.0 0.0 15.0" Properties=species:S:1:pos:R:3:forces:R:3 energy=-431.1297663223944 free_energy=-431.1297663223944 stress="-0.0004742539848550296 -0.003265022665357703 -1.9983732951777456e-05 -0.003265022665357703 -0.014521427809194761 -2.6652324471119245e-05 -1.9983732951777456e-05 -2.6652324471119245e-05 -1.3329408909369136e-05" pbc="T T T"
C        0.02816411      -0.02429286       3.53618237      -0.00956617      -0.01211474       0.02760555
C       -1.21737181       2.12988534       3.36654597       0.00404580       0.00160645       0.01110898
C       -2.46829819       4.26449081       3.54948817       0.00597539       0.00115495      -0.00857760
C       -3.68788426       6.38533438       3.75883879      -0.00608625       0.00036640      -0.00383387
C       -4.90121310       8.50988937       3.73314274      -0.00145908       0.00540099       0.00769315
C        2.49487814      -0.11181509       3.67190406       0.00594653       0.00869292      -0.00408581
C        1.28659527       1.99162763       3.27381048       0.00907889      -0.01004908      -0.00701956
C       -0.03543999       4.28765893       3.22980420      -0.00542864      -0.01662236      -0.00296589
C       -1.19847447       6.38315953       3.74143098      -0.01429945      -0.01145784       0.00036154
C       -2.41445363       8.48884130       3.84465743      -0.00151852       0.00519034       0.00937893
C        4.96015000      -0.04127018       3.88571536      -0.00369785       0.00026747      -0.00423241
C        3.66525013       1.99213571       3.83167509      -0.00315050      -0.01766058      -0.02685460
S        1.62365297       6.23110845       3.93700151       0.01087922      -0.00291792      -0.00064100
C        0.05223278       8.53078559       3.94758720       0.00585983      -0.00449465      -0.00805237
C        7.41175093       0.03894535       3.87096972      -0.00848168      -0.00401290      -0.00387351
C        6.14727846       2.15598640       3.86510723      -0.00231391      -0.00167898       0.01240573
C        4.91351454       4.34339591       3.91113699      -0.00596937       0.01069682      -0.02543451
C        3.69972011       6.53822594       3.91380803       0.01402036      -0.00466963      -0.01376552
C        2.51048502       8.64403439       3.94848775       0.00236568       0.00007841      -0.01098939
C        9.89887475       0.04235532       3.68335240      -0.00755752       0.00317984       0.02534367
C        8.63312748       2.15463246       3.65664474       0.00693147       0.01205480       0.01568965
C        7.38318798       4.27878767       3.75436841       0.00099752       0.00130653      -0.01639731
C        6.16971315       6.42608930       3.80636530       0.00718562       0.00811213       0.00343077
C        4.97802323       8.58163837       3.79011790      -0.01429653      -0.00642686       0.00153024
C        0.02390274       1.39689167       3.35062534       0.01495155      -0.01203563       0.00941217
C       -1.23025976       3.54768963       3.33977274       0.00005506      -0.00299106       0.00806629
C       -2.45396612       5.67502366       3.68501978      -0.01043031      -0.00166219       0.00726159
C       -3.66731615       7.79752559       3.78864991      -0.00062976       0.00297525      -0.01080034
C       -4.91700119       9.91514757       3.63254982       0.00570289       0.00498019       0.00860828
C        2.47818894       1.28945463       3.58272038       0.01197595       0.00570445      -0.01499527
S        1.54985665       3.62841454       2.74893136      -0.01723047       0.03026768      -0.00496027
C       -0.01891215       5.63778442       3.56255917      -0.01101853      -0.00049516       0.00724846
C       -1.17507426       7.79638399       3.88227600       0.00155863      -0.00741966      -0.00641480
C       -2.42558162       9.90370461       3.82351163       0.00013224       0.00625500      -0.00613301
C        4.93135956       1.39446408       3.89293454       0.00287811      -0.01016768      -0.00341616
P        3.35334878       3.63334750       4.25233196      -0.00724430      -0.00534008       0.02788154
C        1.32048163       7.92640174       3.99665220       0.00603988      -0.00506017      -0.00562027
C        0.03345757       9.96958783       3.92471499      -0.01006655      -0.00492963       0.00604219
C        7.39223810       1.45994702       3.80199460       0.00217040       0.00267484      -0.01191338
C        6.12231139       3.58742642       3.84142399       0.00471622      -0.00271545       0.00500945
C        4.88150841       5.76411473       3.87412366       0.01725103      -0.00402034      -0.00575660
C        3.73301129       7.90116352       3.90322047      -0.00241612       0.00377972       0.00067655
C        2.49336592      10.04740012       3.85065774      -0.01103031       0.00127522      -0.00782893
C        9.88764390       1.45077259       3.55569735      -0.00237963       0.00172343       0.00056291
C        8.62156748       3.56820468       3.64661300       0.00931487       0.01404451      -0.01913881
C        7.39516235       5.69567020       3.76910249       0.00414050      -0.00063977      -0.00786442
C        6.19299899       7.83398237       3.76976529      -0.00014952       0.00818073       0.01591617
C        4.96229663       9.99289436       3.66509413      -0.01187575      -0.00549274       0.01054742
Tl       1.15768750       5.39784221       6.58026929       0.00324422       0.04920181      -0.00232511
O        2.76701760       3.87602370       5.64337904       0.01087886      -0.03409578       0.02210949
