49
Lattice="12.336457 0.0 0.0 -6.168228499999997 10.683685154694365 0.0 0.0 0.0 15.0" Properties=species:S:1:pos:R:3:forces:R:3 energy=-423.53843604140394 free_energy=-423.53843604140394 stress="-0.002616507310989604 -0.0028018743772348 -6.249020562996005e-07 -0.0028018743772348 -0.007489563673917466 -9.55162864346014e-06 -6.249020562996005e-07 -9.55162864346014e-06 -2.78547367362355e-06" pbc="T T T"
C        0.00810469       0.01219601       3.91247280      -0.00397849      -0.00034148       0.00207420
C       -1.25002732       2.13926209       3.67946347       0.00239735       0.00462380      -0.01124849
C       -2.49847430       4.28832272       3.80266865       0.00105660       0.00868601      -0.00207132
C       -3.69916078       6.42389955       3.97088623      -0.00785064      -0.00554180       0.00058788
C       -4.91076226       8.56149723       4.04403742       0.00339454      -0.00736091       0.00296496
C        2.47617060      -0.02870449       3.75208956      -0.00349124      -0.00015175       0.00449361
C        1.20184916       1.99799011       3.21985561       0.01033911       0.00761606       0.00038009
C       -0.14911176       4.28300216       3.21093394       0.00107887      -0.01193693      -0.00502288
C       -1.22346604       6.41371211       3.73555932       0.00099469       0.00618387      -0.00441299
C       -2.43378787       8.54084798       3.92137746      -0.00432093       0.00943854      -0.00524142
C        4.94093653       0.00538699       3.77348060       0.00409796      -0.00036721       0.00204182
C        3.68913812       2.05518014       3.23504429      -0.00307500      -0.00202601       0.00533140
S        1.56267410       6.29101652       3.26440673       0.00445414       0.00104621       0.00601259
C        0.02881193       8.55478712       3.82820413      -0.00017596       0.00469337       0.00782810
C        7.39166072       0.04483251       3.94017759       0.00415297      -0.00995344      -0.00043631
C        6.14369271       2.17081250       3.70123228       0.00062901      -0.00577406      -0.00462827
C        4.95456187       4.35833036       3.49990711       0.01088922       0.00612626       0.00166265
C        3.71837386       6.53869878       3.72900469       0.00131773      -0.00178916       0.01274397
C        2.48256125       8.62534044       3.96742980      -0.00127102      -0.00210238       0.00153775
C        9.87551840       0.04531735       4.02344101      -0.00090896       0.00084917      -0.00046785
C        8.61530949       2.16754414       3.89965885      -0.00245949       0.00227423      -0.01124448
C        7.37733632       4.30355121       3.87436496       0.00389325       0.00390217       0.00961265
C        6.16766372       6.45183774       3.95911973      -0.00255595       0.00719115       0.00120745
C        4.95755726       8.58860062       4.08379587      -0.00532452      -0.00724643      -0.00521206
C       -0.01461577       1.41274911       3.62662930       0.00632394       0.00611371      -0.00594042
C       -1.29097291       3.55268438       3.57087275      -0.00399787       0.00170771      -0.00718344
C       -2.47468109       5.70728806       3.85207583      -0.00154589       0.00642132       0.00104125
C       -3.68030094       7.84384091       3.99960822       0.00095032      -0.00696243      -0.00821771
C       -4.92291208       9.97576677       3.93448553      -0.00284264      -0.00512715       0.00641145
C        2.45774509       1.34644990       3.38171785       0.00231109       0.00296797       0.01195689
S        1.15062252       3.49380044       2.35035737       0.00317352      -0.00696454       0.00011161
C       -0.07562890       5.66458572       3.41435062      -0.00490168      -0.01124782      -0.00331597
C       -1.20024585       7.83422438       3.83349269      -0.00434846       0.01227864       0.00000903
C       -2.44799356       9.96200555       3.83466410      -0.00040173       0.00904810      -0.00278239
C        4.92637433       1.42905172       3.57988225      -0.00030314      -0.00545423      -0.00234630
P        3.66719986       3.66000910       2.52174788      -0.01183039      -0.00933476      -0.00617335
C        1.29305241       7.92430467       3.77169042      -0.00086465       0.00151718      -0.00057523
C        0.00842248       9.99395989       3.87400086       0.00334622      -0.00173463       0.00405065
C        7.37692232       1.46763473       3.87412918      -0.00069630      -0.00938720      -0.00586756
C        6.14259813       3.60136233       3.70436362       0.00698449       0.00072492       0.00034216
C        4.90038795       5.78462706       3.73091755       0.00227595       0.00598307       0.00410895
C        3.71396844       7.88486674       3.96550809      -0.00448426      -0.00161425      -0.00176407
C        2.46565718      10.03628528       4.03159824       0.00331446      -0.00396790       0.00399241
C        9.86516345       1.45771820       3.89933729       0.00048559       0.00474211      -0.00310092
C        8.60441919       3.58584438       3.88316490       0.00384603       0.00600878      -0.00448410
C        7.39109597       5.72502753       3.95222700      -0.00910321       0.00202285       0.01243883
C        6.18467596       7.86318271       4.06926499      -0.00034878       0.00165309      -0.00065840
C        4.94394424      10.00767342       4.05200670      -0.00609694      -0.00746041      -0.00231961
Tl       2.46536448       4.13034426       5.21801419       0.00547106       0.00002658       0.00177316
