52
Lattice="12.336457 0.0 0.0 -6.168228499999997 10.683685154694365 0.0 0.0 0.0 15.0" Properties=species:S:1:pos:R:3:forces:R:3 energy=-438.3866995733716 free_energy=-438.3866995733716 stress="0.0033453041307084457 0.002616724387672843 2.456715676381687e-05 0.002616724387672843 -0.007182418503682281 -2.0243198232709604e-05 2.456715676381687e-05 -2.0243198232709604e-05 3.393535501961741e-05" pbc="T T T"
C        0.10119541      -0.08135355       3.93553591      -0.00503264       0.00601285      -0.00279354
C       -1.09478845       2.10412431       4.00459994      -0.00093960       0.00185305      -0.00252605
C       -2.33061742       4.23195284       3.83099603       0.00350628      -0.00422329       0.00455299
C       -3.58900280       6.34272821       3.76359766       0.00462298       0.00291927       0.00511492
C       -4.85320292       8.45361425       3.85132921       0.00093465       0.00054006       0.00074066
C        2.56556532      -0.10989947       3.74974309       0.00603697       0.00087055       0.00279673
C        1.37865497       1.99135852       4.07124572       0.00138022       0.00214841      -0.00118538
C        0.10172582       4.28115781       4.18048617       0.00103277      -0.00154483      -0.01107395
C       -1.08810772       6.36287212       3.81472714      -0.00114872      -0.00374192       0.00667125
C       -2.36848454       8.46914677       3.73452937       0.00056203       0.00615942       0.00093229
C        5.03553598      -0.06672041       3.60810836       0.00788355      -0.00036536      -0.00006354
C        3.78409838       1.99182839       3.36703957      -0.00435875       0.00126459      -0.00630918
C        1.43062321       6.42731257       3.91475480      -0.00043304       0.00065400       0.00100647
C        0.09177763       8.51347654       3.73750499      -0.00811622       0.00051303       0.00656370
C        7.50151046      -0.01854650       3.69734875       0.00295105       0.00349338       0.00002657
C        6.27922069       2.08537682       3.43500074      -0.00817031      -0.00878559       0.00138441
C        5.10534471       4.23497614       3.23380720       0.00621102       0.00002076      -0.00767936
P        3.33786249       6.13049520       4.14065565       0.00132479      -0.00080243      -0.00371723
C        2.54823157       8.57475582       3.89001998       0.00059367      -0.00289000      -0.00232426
C        9.98572118      -0.02162970       3.88918692      -0.00201424      -0.00423310      -0.00647654
C        8.76081102       2.10397653       3.72531488       0.00328144      -0.00112732      -0.00110636
C        7.52973395       4.21929178       3.59403724      -0.00305419      -0.00046536       0.00469036
C        6.24406112       6.32767485       3.76589507       0.00023159      -0.00148370       0.00576248
C        5.00979297       8.47577809       3.96574124       0.00470958      -0.00468208       0.00222554
C        0.12130941       1.35654130       4.01946684      -0.00127999       0.00784747      -0.00938545
C       -1.08861224       3.52902341       4.00409099       0.00030727      -0.00165029       0.01044523
C       -2.32953043       5.64978181       3.79563695       0.00278810      -0.00406975       0.00393845
C       -3.60518452       7.75840754       3.78556374       0.00284883       0.00365137      -0.00536468
C       -4.84305197       9.87522552       3.86277379      -0.00021996       0.00284450       0.00398301
C        2.57670319       1.30809830       3.72277644      -0.00013925       0.00146042      -0.00489034
S        1.51110070       3.53487343       4.81330381      -0.01254469      -0.00123653      -0.00924151
C        0.18891204       5.68358789       3.95275913       0.00100552      -0.00028172       0.00003325
C       -1.12514043       7.77900171       3.74321931      -0.00798350      -0.00170674       0.00742793
C       -2.36246606       9.88515718       3.68262154       0.00976938       0.00489820      -0.00201654
C        5.03897348       1.35792790       3.45561791      -0.00781718      -0.00320037       0.00720468
S        3.68438539       3.50448589       2.54712156       0.00487740       0.00819248       0.00682099
C        1.33226422       7.82503471       3.82827042      -0.00517442       0.00101619       0.00259672
C        0.10326709       9.93212408       3.67330271       0.00525236       0.00065610       0.00335975
C        7.51057469       1.39649680       3.61147738      -0.00078527       0.00136118       0.00517520
C        6.30193025       3.49918428       3.38721767      -0.00278927      -0.00954764       0.00134124
C        5.01723059       5.58032230       3.63275509       0.00298954      -0.00012812      -0.00868743
C        3.73688525       7.83365068       4.02388417       0.00475708      -0.00399404      -0.00616621
C        2.56952979       9.98115317       3.82430539      -0.00078409      -0.00223723      -0.00447308
C       10.00298953       1.40342558       3.87405012       0.00121932      -0.00305212      -0.00154356
C        8.76925578       3.51936857       3.70913295       0.00149794      -0.00015645       0.00057840
C        7.50494441       5.63510079       3.70602683       0.00029043       0.00318798       0.00597620
C        6.24190332       7.74879492       3.89360484       0.00275598      -0.00225924       0.00057339
C        5.02879611       9.91024923       3.94314770      -0.00303632      -0.00171149       0.00408584
Tl       3.05864199       5.62830732       6.89018522      -0.00302508       0.00184074      -0.00079764
O        0.96523141       6.60207780       7.07886695      -0.00477562      -0.00803199       0.00022736
O        1.04680604       6.67232001       8.55123245      -0.00670258       0.01613325      -0.00174244
H        0.26100478       6.14252183       8.78462944       0.00470318      -0.00193055      -0.00667174
