51
Lattice="12.336457 0.0 0.0 -6.168228499999997 10.683685154694365 0.0 0.0 0.0 15.0" Properties=species:S:1:pos:R:3:initial_magmoms:R:1:forces:R:3 energy=-443.54964135779824 free_energy=-443.54964135779824 stress="-0.005322645505753119 -0.0018281357963840586 -9.734009348234469e-06 -0.0018281357963840586 0.002936941110677488 -8.22976924895587e-06 -9.734009348234469e-06 -8.22976924895587e-06 -1.0857411290785983e-05" pbc="T T T"
C       -0.02173689      -0.01951446       3.63941808       0.00000000      -0.00005879       0.00756049       0.00110031
C       -1.28434937       2.08982487       3.57037142       0.00000000      -0.00364218       0.00200411      -0.00027485
C       -2.50844725       4.24571998       3.53254866       0.00000000       0.00700542       0.00110706       0.00527390
C       -3.71733961       6.39774222       3.54746387       0.00000000       0.00242820      -0.00334359       0.01265524
C       -4.94077594       8.54793868       3.60943191       0.00000000       0.00191027      -0.00071527       0.00257587
C        2.43762836       0.03102728       3.70217083       0.00000000      -0.00377897       0.00319582      -0.00019709
C        1.16262890       2.11223876       3.64989115       0.00000000       0.00273548      -0.00131743       0.00450602
C       -0.08410000       4.21008503       3.59310117       0.00000000      -0.00362523       0.00248910      -0.00189005
C       -1.27109819       6.38376465       3.60306400       0.00000000      -0.00280927      -0.00653069      -0.00284823
C       -2.49318239       8.54668575       3.64306445       0.00000000       0.00688356       0.00193788      -0.00667261
C        4.90591228      -0.00908464       3.76093668       0.00000000      -0.00309213      -0.00008411       0.00480805
C        3.66970765       2.18579897       3.92492748       0.00000000       0.00356787      -0.00437514      -0.00269248
C        1.08880965       6.35392822       4.10725618       0.00000000      -0.00189955       0.00457840      -0.00163667
C       -0.03065269       8.50753019       3.78943097       0.00000000      -0.00332925      -0.00587037      -0.00158634
C        7.37671759      -0.05125800       3.75903294       0.00000000       0.00351671      -0.00216137       0.00155956
C        6.14707261       2.10800102       3.75374508       0.00000000      -0.00079124       0.00042815      -0.00066958
C        4.92410436       4.25556826       3.89687754       0.00000000      -0.00542935       0.00234772      -0.00850566
N        3.81490309       6.43186662       3.92812663       0.00000000      -0.00077343       0.00049416      -0.00922882
C        2.44957376       8.46850946       3.87244373       0.00000000       0.00264971       0.00160954      -0.00056000
C        9.83424767      -0.05657396       3.69105956       0.00000000       0.00701961       0.00267629      -0.00200111
C        8.59953437       2.09411660       3.62593512       0.00000000       0.00434682       0.00443144       0.00431682
C        7.38230445       4.24832013       3.61891468       0.00000000      -0.00024383      -0.00456064      -0.00736622
C        6.18383895       6.40833244       3.65594480       0.00000000      -0.00183707       0.00069069      -0.00252278
C        4.93602212       8.52307134       3.70529776       0.00000000      -0.00537727       0.00428362      -0.00420823
C       -0.04229259       1.40144699       3.61151197       0.00000000      -0.00288172       0.00547106       0.00283241
C       -1.28376199       3.51525207       3.53937743       0.00000000       0.00009752      -0.00133613      -0.00428811
C       -2.49336014       5.67298033       3.53335411       0.00000000       0.00059404      -0.00361506       0.00675731
C       -3.71469364       7.82818962       3.58505754       0.00000000       0.00778318      -0.00020325       0.00383044
C       -4.94942624       9.98021088       3.64355988       0.00000000      -0.00333768       0.00273778       0.00138525
C        2.41497444       1.46719750       3.77530845       0.00000000       0.00336523       0.00314365       0.00271561
O        1.10010697       3.48940370       3.53217489       0.00000000      -0.00900768      -0.00781059      -0.00213795
C       -0.03186136       5.64183186       3.71292380       0.00000000      -0.00407609      -0.00496537       0.00347970
C       -1.26336035       7.81231237       3.67415056       0.00000000      -0.00010109      -0.00903960      -0.01110726
C       -2.49812236       9.97707701       3.70827937       0.00000000      -0.00347996       0.00337930       0.00184904
C        4.90387127       1.41998694       3.81648087       0.00000000       0.00153376      -0.00108017       0.00419950
C        3.77233521       3.55655829       4.18400812       0.00000000       0.00013965      -0.00630849      -0.00485417
C        1.20098737       7.73704440       3.92844017       0.00000000       0.00149509       0.00558213       0.00156497
C       -0.02796766       9.93564745       3.77109406       0.00000000      -0.00166035      -0.00378125       0.00882618
C        7.37718495       1.37675153       3.70571042       0.00000000       0.00269773       0.00212921       0.00079964
C        6.16208549       3.53456392       3.73444608       0.00000000      -0.00523386      -0.00120504      -0.00513971
C        4.95086950       5.72257378       3.81748899       0.00000000      -0.00690548      -0.00344250      -0.00600925
C        3.71970655       7.77424633       3.83340961       0.00000000      -0.00457373      -0.00313368      -0.00087146
C        2.44040603       9.89439073       3.77397193       0.00000000       0.00854733       0.00090268      -0.00367724
C        9.83225753       1.37485289       3.61906622       0.00000000       0.00059256      -0.00025777      -0.00048411
C        8.60418733       3.52603150       3.57424656       0.00000000       0.00754843       0.00359697       0.00306936
C        7.39659595       5.67920886       3.59141725       0.00000000      -0.00066123      -0.00278798      -0.00122227
C        6.17059261       7.82916885       3.64083485       0.00000000      -0.00547936       0.00313182      -0.00305402
C        4.91030251       9.93858365       3.67347871       0.00000000       0.00379471       0.00522937       0.00020771
Tl       2.39101395       4.94575041       5.12852738       0.00000000      -0.00300889      -0.00134275       0.01356908
O        2.52230729       5.11813615       7.38541588       1.00000000       0.00976568       0.01487259      -0.00436600
O        3.57664686       5.86995741       7.07610883       1.00000000      -0.00292386      -0.01074283       0.00819033
