52
Lattice="12.336457 0.0 0.0 -6.168228499999997 10.683685154694365 0.0 0.0 0.0 15.0" Properties=species:S:1:pos:R:3:initial_magmoms:R:1:forces:R:3 energy=-450.62560812815246 free_energy=-450.62560812815246 stress="-0.001472526366921729 0.006560911004998751 -4.420608543565749e-06 0.006560911004998751 -0.0003931881461495425 -3.658378208795373e-05 -4.420608543565749e-06 -3.658378208795373e-05 1.6634292970459162e-05" pbc="T T T"
C        0.04594570       0.02158816       3.75755021       0.00000000       0.00093601       0.00917386      -0.00276915
C       -1.14714075       2.17686062       3.78985734       0.00000000      -0.00540827       0.00009986      -0.00950091
C       -2.37659280       4.29848377       3.74703141       0.00000000       0.00276204      -0.00887302      -0.00475021
C       -3.66175236       6.41941609       3.68074439       0.00000000       0.00259389       0.00059072      -0.00228983
C       -4.92476874       8.54504976       3.67991386       0.00000000      -0.00232783      -0.00327071      -0.00023788
C        2.49879154       0.00868969       3.74481114       0.00000000       0.00672045      -0.00140968      -0.00058420
C        1.31271782       2.19665935       3.70695025       0.00000000       0.00603289       0.00714412      -0.00970112
C        0.10643712       4.36298919       3.75437154       0.00000000      -0.00101179      -0.00531442       0.00566160
C       -1.20301624       6.44766820       3.76921837       0.00000000      -0.00940085       0.00017724       0.00111985
C       -2.44716826       8.56207843       3.77263136       0.00000000      -0.00826986       0.00270507      -0.00086155
C        4.97851428       0.00653890       3.81687483       0.00000000      -0.00582264       0.00287346       0.00071852
C        3.77130733       2.11478680       3.67004187       0.00000000      -0.00498189       0.00182930       0.00634344
C        2.64084790       4.26394841       3.49865556       0.00000000       0.00375726      -0.01552336       0.00905582
O        1.11378826       6.51400384       4.16910641       0.00000000       0.01198644      -0.01602373       0.00565220
C        0.01304491       8.56854103       3.89652639       0.00000000       0.00120688       0.00749822       0.00538147
C        7.45601962       0.00510023       3.90152834       0.00000000       0.00331540      -0.00340486       0.00624573
C        6.25526175       2.11609285       3.74534665       0.00000000       0.00136673      -0.01339833       0.00228287
C        5.05913125       4.20995054       3.49057933       0.00000000      -0.00053303       0.00742719       0.00120447
S        3.41605429       6.14688305       3.27875623       0.00000000       0.00128841       0.00258292       0.00107364
C        2.46624698       8.54232929       3.90427449       0.00000000       0.00386594       0.00210985       0.00688528
C        9.92693849       0.01273241       3.86147088       0.00000000      -0.00512434      -0.00217482       0.00307848
C        8.72158337       2.14622874       3.81336853       0.00000000      -0.00088753       0.01032436       0.01049973
C        7.49771877       4.26877439       3.65992776       0.00000000      -0.00507773       0.00832315      -0.00289638
C        6.20487945       6.39481438       3.52959509       0.00000000       0.00258180      -0.00377198       0.00565141
C        4.93666484       8.52800873       3.69372770       0.00000000       0.00526077      -0.01171684       0.00208938
C        0.07637959       1.46406951       3.76089071       0.00000000       0.00327174       0.01562578       0.00360356
C       -1.12153572       3.61640057       3.76195424       0.00000000       0.00022352      -0.00684370       0.00154379
C       -2.42034537       5.71573907       3.72427999       0.00000000      -0.00384747      -0.00997777       0.01399852
C       -3.68263632       7.84377258       3.70263856       0.00000000      -0.00534312      -0.00015588       0.00809981
C       -4.90501566       9.97914453       3.72678620       0.00000000       0.00258904       0.00218649       0.00228063
C        2.51760097       1.43926034       3.71277737       0.00000000       0.00120355      -0.00033806       0.00053868
C        1.37964372       3.66348840       3.66138780       0.00000000       0.00270424      -0.00028469      -0.00611521
C        0.01547683       5.76957396       3.81296884       0.00000000      -0.00249653      -0.00752533      -0.00221752
C       -1.22275039       7.86340649       3.81905762       0.00000000      -0.00921256       0.00749882       0.00302596
C       -2.43832668       9.98711645       3.78207753       0.00000000       0.00139531      -0.00153326       0.00318360
C        5.00572361       1.41703826       3.75050835       0.00000000      -0.00942967       0.00091880       0.00035540
C        3.80183193       3.53086913       3.52811192       0.00000000       0.00662753      -0.00189689      -0.00576537
C        1.20528149       7.87203139       3.95643997       0.00000000       0.00575150      -0.00692798      -0.00588644
C        0.04237295       9.99160050       3.88296515       0.00000000      -0.00141305       0.00903625      -0.00822864
C        7.48282959       1.42493675       3.83307348       0.00000000       0.01009249      -0.00544842      -0.00132189
C        6.28501817       3.52798186       3.63030882       0.00000000      -0.00107950      -0.00563462      -0.00064209
C        5.04307709       5.60056539       3.41459067       0.00000000      -0.00508651       0.00637231      -0.01404317
C        3.68578061       7.85771257       3.71758501       0.00000000       0.00230565       0.00131711       0.00045862
C        2.51210912       9.97587762       3.91843533       0.00000000      -0.00016143      -0.00080042       0.00210236
C        9.95285804       1.44714580       3.83510836       0.00000000      -0.00805995       0.00280578       0.00339139
C        8.73180071       3.56873960       3.74570666       0.00000000      -0.00432442       0.00881225      -0.00305466
C        7.45923231       5.69122786       3.61394288       0.00000000       0.00379835       0.00587631      -0.00860698
C        6.17675153       7.82113096       3.61523370       0.00000000       0.00654965      -0.01373051      -0.00202275
C        4.97635486       9.97978251       3.78422622       0.00000000      -0.00190588      -0.00534337      -0.00778174
Tl       3.80794748       5.92061868       6.38237010       0.00000000      -0.00334677       0.00603582      -0.00172913
O        1.37291175       5.88831649       6.66937020       1.00000000       0.01027719       0.01406831       0.00119438
O        1.15978824       4.70243549       6.23100709       1.00000000      -0.00591203       0.00790932      -0.01571379
