51
Lattice="12.336457 0.0 0.0 -6.168228499999997 10.683685154694365 0.0 0.0 0.0 15.0" Properties=species:S:1:pos:R:3:initial_magmoms:R:1:forces:R:3 energy=-443.67198059700456 free_energy=-443.67198059700456 stress="-0.0054434614636715605 0.0008364123068856748 -1.6717597712855751e-06 0.0008364123068856748 0.003587144872723851 3.796230226245758e-06 -1.6717597712855751e-06 3.796230226245758e-06 -1.4425789780615777e-06" pbc="T T T"
C       -0.03974699       0.03436024       3.73382946       0.00000000       0.00071636      -0.00161358       0.00553269
C       -1.29186275       2.14108505       3.78738737       0.00000000      -0.00210346      -0.00082590      -0.00174487
C       -2.53319215       4.28737406       3.70512030       0.00000000      -0.00292066       0.00009555      -0.00535188
C       -3.75336130       6.43877391       3.59619996       0.00000000      -0.00138926       0.00370391      -0.00215919
C       -4.97587757       8.58880770       3.61724703       0.00000000       0.00227595       0.00522068       0.00056757
C        2.43066552       0.07499977       3.70926919       0.00000000      -0.00208761       0.00142191       0.00587207
C        1.19271645       2.21732231       3.93412912       0.00000000       0.00107851       0.00030542      -0.00405230
C       -0.09581486       4.27504120       4.03685440       0.00000000      -0.00411675       0.00537330       0.00643046
C       -1.32738994       6.44624130       3.82640019       0.00000000      -0.00288602       0.00362268       0.00148393
C       -2.52650228       8.58970026       3.68933098       0.00000000       0.00110830      -0.00038478      -0.00089112
C        4.89123262       0.02262699       3.69507380       0.00000000      -0.01270510       0.00288227       0.00786339
C        3.69965662       2.16507819       3.64418173       0.00000000       0.01020618      -0.00025971       0.00186970
C        1.05601525       6.45270920       4.27454964       0.00000000       0.00345032      -0.00537368      -0.00346915
C       -0.06084832       8.55966297       3.85401549       0.00000000      -0.00130731       0.00379492      -0.00026131
C        7.36595255      -0.01458201       3.73743835       0.00000000      -0.00202565       0.00438512       0.00171460
C        6.14256190       2.13782528       3.59327956       0.00000000       0.00186858       0.00072955      -0.01110912
C        4.93801107       4.26919687       3.49714692       0.00000000       0.00661886      -0.00608076      -0.00650255
N        3.76045025       6.42318171       3.80963418       0.00000000      -0.00343871      -0.01538468       0.00679609
C        2.43414993       8.50984912       3.89147330       0.00000000       0.00394226      -0.00430249       0.00253990
C        9.82356704      -0.01190852       3.74204322       0.00000000       0.00497451      -0.00195962       0.00521170
C        8.59361471       2.13523121       3.65812550       0.00000000       0.00241086      -0.00487171       0.00019189
C        7.36480256       4.28945072       3.54074218       0.00000000      -0.00049101      -0.00182855       0.00800005
C        6.13409563       6.42900854       3.51315298       0.00000000      -0.00803178       0.00162671      -0.00610261
C        4.90272062       8.55277984       3.68521991       0.00000000      -0.00026671       0.00241860       0.00112161
C       -0.04299375       1.45786572       3.82163915       0.00000000      -0.00252315      -0.00210313      -0.00127679
C       -1.31812381       3.56361435       3.82785486       0.00000000      -0.00167604       0.00309897      -0.00582847
C       -2.53842594       5.72089364       3.69509485       0.00000000      -0.00239066       0.00156017       0.00501806
C       -3.75024855       7.87032702       3.62141032       0.00000000       0.00225153       0.00396370      -0.00162498
C       -4.97006834      10.02208960       3.68980504       0.00000000       0.00067690       0.00266664       0.00042782
C        2.45136663       1.51107108       3.77257327       0.00000000       0.00509117       0.00080011      -0.00793032
C        1.08859750       3.57680676       4.21212411       0.00000000       0.00482819       0.00561097      -0.00321394
C       -0.11240648       5.73514371       4.05182648       0.00000000      -0.00487106       0.00750077      -0.00268609
C       -1.30292734       7.86980480       3.78546998       0.00000000       0.00066045       0.00275216      -0.00047747
C       -2.51695202      10.02133395       3.69101280       0.00000000      -0.00861204      -0.00247598       0.00129850
C        4.90423614       1.44917167       3.63863708       0.00000000       0.00285623       0.00012786      -0.00975627
O        3.75703448       3.54075483       3.48939231       0.00000000       0.00870052       0.00069769       0.01442565
C        1.17535474       7.81731607       4.01350933       0.00000000      -0.00009488      -0.00574449      -0.00120975
C       -0.04406799       9.97592121       3.75409365       0.00000000      -0.00878283       0.00710697       0.00753195
C        7.36285197       1.41683648       3.65151649       0.00000000       0.00012537       0.00369522       0.00960823
C        6.13613191       3.56714541       3.52420563       0.00000000       0.00360646      -0.00260738      -0.00298213
C        4.90543151       5.70767298       3.55128765       0.00000000      -0.00093071      -0.00977796      -0.00496929
C        3.68710111       7.78783760       3.79060959       0.00000000       0.00469686      -0.00814429       0.00838593
C        2.42983394       9.93563380       3.78708454       0.00000000       0.00259905      -0.00119206      -0.00617114
C        9.81722813       1.41576117       3.72095385       0.00000000       0.00149758      -0.00414956       0.00602927
C        8.58698023       3.56752125       3.62030584       0.00000000      -0.00047707      -0.00591523      -0.00375636
C        7.35772844       5.71404401       3.52590476       0.00000000      -0.00453828       0.00200626      -0.00757799
C        6.13179993       7.85853761       3.59000844       0.00000000      -0.00141866       0.00566214      -0.00102236
C        4.89374538       9.97858104       3.72262451       0.00000000       0.00345700       0.00135088      -0.00883482
Tl       2.45094472       5.07795588       5.02234523       0.00000000      -0.00583684       0.00527101       0.00803506
O        3.12088931       4.84618754       7.11932679       1.00000000      -0.00631313      -0.00631775       0.00778492
O        3.95509154       4.06651428       6.35873944       1.00000000       0.01253738       0.00186113      -0.01277874
