50
Lattice="12.336457 0.0 0.0 -6.168228499999997 10.683685154694365 0.0 0.0 0.0 15.0" Properties=species:S:1:pos:R:3:forces:R:3 energy=-438.16189565761454 free_energy=-438.16189565761454 stress="-0.004561505371467446 -0.0018512495171352525 1.1412175759329034e-05 -0.0018512495171352525 0.0032275253841778954 -1.4980829018286654e-05 1.1412175759329034e-05 -1.4980829018286654e-05 1.7653763955747712e-06" pbc="T T T"
C        0.01506489       0.01128186       3.68827755       0.00403294       0.00330479      -0.00313887
C       -1.24270636       2.12435780       3.59315450      -0.00011762       0.00119779       0.01066176
C       -2.46356894       4.28007268       3.53940347       0.00098488      -0.00181421       0.00353053
C       -3.67933758       6.43129135       3.56844196       0.00395798      -0.00446398      -0.00781083
C       -4.90660803       8.57841315       3.65500387       0.00816029       0.00251736       0.01332772
C        2.47493288       0.06568614       3.69834980      -0.00451944       0.00738832      -0.00367615
C        1.19899687       2.14609762       3.63437757       0.00104098       0.00405101      -0.00475075
C       -0.02983846       4.23398083       3.53969549      -0.00972759       0.00155675      -0.00454332
C       -1.22489680       6.41534980       3.55701328      -0.00068003       0.00142878       0.00519236
C       -2.45423324       8.58067807       3.62145958      -0.00630783      -0.00251671       0.00614296
C        4.94514695       0.02859939       3.74004485      -0.01188464      -0.00717925      -0.01055604
C        3.70528280       2.22615543       3.90333787      -0.00124032      -0.00978760      -0.00106667
C        1.14376610       6.39801523       3.98780387      -0.00341748      -0.00464485       0.00390401
C        0.00769341       8.54502989       3.75100022       0.00904583      -0.00310844       0.00821617
C        7.41811159      -0.01564171       3.77006509       0.00297425      -0.00142697      -0.00283400
C        6.18754316       2.14214402       3.74864737       0.00937539       0.00709109       0.00684155
C        4.97152847       4.29056026       3.95899021      -0.00037257       0.00064496       0.00360885
N        3.87039967       6.46699370       4.23747589      -0.01457763      -0.00523464      -0.00194888
C        2.49685466       8.50702998       3.94472415       0.00703412      -0.01117354      -0.00866541
C        9.87667102      -0.01944747       3.75155882      -0.00761812       0.00938993      -0.00504181
C        8.64219663       2.12959395       3.64792939       0.00897187       0.00154484       0.00251712
C        7.42585310       4.28320245       3.64908756       0.01592095      -0.00285374      -0.00197575
C        6.21659530       6.43991177       3.75965342      -0.00336888      -0.00263111      -0.00992951
C        4.96964135       8.55170940       3.82771648      -0.00298288       0.00160707      -0.00182200
C       -0.00422414       1.43252389       3.63943396       0.00053869       0.00121820      -0.00553360
C       -1.23707524       3.54925287       3.53660373      -0.00571069      -0.00254070      -0.00440956
C       -2.45113553       5.70800652       3.52790560       0.00141555      -0.00259712      -0.01035991
C       -3.67754387       7.86193094       3.59844172      -0.00078206      -0.00456277       0.00348858
C       -4.91296582      10.01114347       3.67258383       0.00675199       0.00338089       0.00360090
C        2.45186571       1.49940083       3.75718385      -0.00156621       0.00442457       0.00171786
O        1.14111396       3.50807320       3.43518388      -0.00335552       0.00036740      -0.01049418
C        0.02326501       5.67271431       3.63236993      -0.01429570      -0.00122807       0.00122546
C       -1.22192080       7.84568797       3.62808458       0.00241194       0.00461883       0.00533969
C       -2.45861412      10.01155282       3.68963479      -0.01725700      -0.00174716      -0.00076460
C        4.94279197       1.45631411       3.79747351       0.00364841      -0.00348534       0.01686583
C        3.81573387       3.58624074       4.16684482      -0.00888324      -0.00304690       0.00983243
C        1.24415072       7.77615666       3.89791767       0.01265200      -0.00600730       0.00315414
C        0.01097781       9.97177853       3.75593826      -0.00225359      -0.00089890      -0.00756684
C        7.41847350       1.41099452       3.71386603       0.00992964       0.00428915       0.00430522
C        6.20701472       3.56827251       3.75884384       0.00724450       0.01153567       0.01401730
C        5.00365616       5.75455816       3.98124454      -0.00572800       0.00072507      -0.00128139
C        3.76009515       7.81705713       4.01330272      -0.00370709      -0.01051656      -0.00574875
C        2.48344069       9.93247609       3.82491852       0.00092734      -0.00462333      -0.00961298
C        9.87403824       1.41064032       3.65397682       0.00051274       0.00761911       0.01010266
C        8.64894982       3.56189803       3.59590743       0.00858943      -0.00664924      -0.01662834
C        7.43499886       5.71452716       3.63827452       0.00792525      -0.00644228       0.00563860
C        6.20589325       7.86095443       3.73972599       0.00183481       0.00437279      -0.00132570
C        4.94898129       9.96971883       3.75145583      -0.00419099       0.00786829      -0.00432317
Tl       2.49066457       5.10591557       5.25950543       0.00501684       0.01137623       0.01120610
O        1.60315390       4.31904929       6.78712368      -0.00635352       0.00766180      -0.00862880
