51
Lattice="12.336457 0.0 0.0 -6.168228499999997 10.683685154694365 0.0 0.0 0.0 15.0" Properties=species:S:1:pos:R:3:initial_magmoms:R:1:forces:R:3 energy=-433.9729464520085 free_energy=-433.9729464520085 stress="0.0032220703252677277 0.002738855966905846 3.15889553214112e-05 0.002738855966905846 -0.007430435904840733 -6.382356941081309e-05 3.15889553214112e-05 -6.382356941081309e-05 4.4725214127109635e-05" pbc="T T T"
C        0.00931300      -0.03918065       3.78771343       0.00000000       0.00226541      -0.00388045      -0.00130937
C       -1.18446167       2.14728475       3.86338418       0.00000000       0.00177522       0.00106534      -0.00417565
C       -2.42151644       4.27556318       3.70585311       0.00000000      -0.00744081      -0.00135411       0.00020018
C       -3.68036272       6.38609626       3.64452086       0.00000000       0.00035871      -0.00085112      -0.00847279
C       -4.94522259       8.49670969       3.71545879       0.00000000       0.00229070      -0.01058437       0.00549589
C        2.47450966      -0.06774181       3.58966017       0.00000000       0.00099498      -0.00340749      -0.00270647
C        1.28972008       2.03007008       3.89738555       0.00000000       0.00619926       0.00642573       0.00037278
C        0.01135479       4.32256248       4.05386816       0.00000000      -0.00269866      -0.00356399      -0.00488938
C       -1.17981679       6.40876795       3.71371505       0.00000000      -0.00900255      -0.00088544       0.01093390
C       -2.45931606       8.51354148       3.61608318       0.00000000      -0.00822261       0.00515700      -0.00017642
C        4.94548218      -0.02210345       3.46856087       0.00000000       0.00320958      -0.00744212      -0.00290042
C        3.69579415       2.03146938       3.18133002       0.00000000      -0.00389127      -0.00478727       0.00442018
C        1.33997274       6.47569626       3.83447177       0.00000000       0.01618114       0.00259035       0.01078164
C       -0.00002474       8.56023496       3.64837693       0.00000000      -0.00504914      -0.00018110      -0.00194721
C        7.41077036       0.02669676       3.57653253       0.00000000       0.00309901       0.00006262       0.00525031
C        6.19047888       2.12800355       3.27610746       0.00000000      -0.00512459      -0.00329350       0.00603723
C        5.02191538       4.28031257       3.04861049       0.00000000       0.00904387       0.00689893      -0.00191869
P        3.24841591       6.16585083       3.99966681       0.00000000      -0.01064396       0.00247638      -0.00293516
C        2.45737044       8.62095637       3.80550587       0.00000000      -0.00069831       0.00096477      -0.00183454
C        9.89527653       0.02228790       3.76396931       0.00000000      -0.00201680      -0.00185336       0.00178129
C        8.67077412       2.14771808       3.58661692       0.00000000       0.00295369      -0.00092293       0.00629974
C        7.43972464       4.26209916       3.44804757       0.00000000       0.01011585       0.00497897       0.00587557
C        6.15246357       6.36930654       3.61821446       0.00000000       0.00432308       0.00487585      -0.00006699
C        4.91780910       8.51669130       3.84324726       0.00000000      -0.00324228      -0.00156937       0.00731433
C        0.03033133       1.39873583       3.86131131       0.00000000       0.00654037       0.00220971      -0.00367341
C       -1.17788995       3.57241280       3.87459203       0.00000000      -0.00815401       0.00045854      -0.00679317
C       -2.42064540       5.69392848       3.68301652       0.00000000      -0.00768540      -0.00305001      -0.00849966
C       -3.69649872       7.80229780       3.66139260       0.00000000       0.00051746      -0.00537231      -0.00151359
C       -4.93460051       9.91842667       3.71487232       0.00000000       0.00331114      -0.01172082      -0.00009337
C        2.48659594       1.34885370       3.53714929       0.00000000      -0.00040468      -0.00387636       0.00414489
S        1.42859147       3.56214577       4.65919463       0.00000000       0.01039526       0.00033919       0.01605960
C        0.09775189       5.72937626       3.84827589       0.00000000       0.00004963       0.00131954       0.01576970
C       -1.21631117       7.82465827       3.64481802       0.00000000      -0.01180736       0.00236740      -0.00423192
C       -2.45251478       9.92861095       3.54457748       0.00000000       0.00053378       0.00296490      -0.01064602
C        4.94971596       1.40015150       3.29055962       0.00000000      -0.00522119      -0.00689246       0.01067825
S        3.60497973       3.54330829       2.35699885       0.00000000      -0.00900867      -0.00825522      -0.00354350
C        1.23948558       7.87380219       3.75538680       0.00000000       0.00167992       0.00441939      -0.00671212
C        0.01215630       9.97788558       3.55819901       0.00000000       0.00396346      -0.00083184       0.00665488
C        7.42035048       1.44048809       3.47210880       0.00000000       0.00010331      -0.00071703      -0.00388873
C        6.21431214       3.54239602       3.22049485       0.00000000       0.01083111       0.00047025      -0.00362225
C        4.92742221       5.62347764       3.45865040       0.00000000       0.00560984       0.00503406       0.00410899
C        3.64551513       7.87428541       3.92673177       0.00000000      -0.00166373      -0.00055891      -0.00168111
C        2.47831733      10.02559593       3.71543020       0.00000000       0.00010435      -0.00023648       0.00476447
C        9.91263376       1.44709988       3.73961025       0.00000000       0.00432612      -0.00031721      -0.00970074
C        8.67933324       3.56300658       3.57080312       0.00000000       0.00296059      -0.00041193       0.01154645
C        7.41408078       5.67750683       3.57124016       0.00000000       0.00447971       0.00673930      -0.01500103
C        6.15011872       7.79042644       3.75863115       0.00000000      -0.00251749       0.00082382      -0.00048990
C        4.93767020       9.95212499       3.81453438       0.00000000      -0.00354589       0.00034358      -0.00824744
Tl       3.18095774       5.18949539       6.61975701       0.00000000       0.00580010       0.00532292       0.00620969
O        1.99883186       5.88826849       9.53869819       1.00000000      -0.01184041       0.00825529      -0.00709894
O        1.32171788       6.07718887       8.49572406       1.00000000      -0.00413683       0.01025336      -0.01592996
