51
Lattice="12.336457 0.0 0.0 -6.168228499999997 10.683685154694365 0.0 0.0 0.0 15.0" Properties=species:S:1:pos:R:3:forces:R:3 energy=-440.0479230339282 free_energy=-440.0479230339282 stress="0.0010899165108673385 0.0010553597622729402 -1.2388364450382522e-05 0.0010553597622729402 -0.004114224930735287 2.8077979240135728e-05 -1.2388364450382522e-05 2.8077979240135728e-05 -2.0810591927273204e-05" pbc="T T T"
C       -0.00170466      -0.01306299       3.77595807      -0.00973249      -0.00031895       0.00361454
C       -1.21777981       2.13768787       3.87624720       0.00032276       0.00094967      -0.00166838
C       -2.44767133       4.26423883       3.87327025       0.01360201       0.00184203       0.01048436
C       -3.69821207       6.39004967       3.80024310       0.00068840       0.00095007      -0.00060396
C       -4.95445690       8.51574561       3.71979265       0.00251657      -0.00100688      -0.00788825
C        2.46244400      -0.02771482       3.83878106       0.00486215       0.00078793      -0.00217568
C        1.24411823       2.11115780       3.87060408      -0.00642419       0.00408586       0.00644158
C        0.05117432       4.26132120       3.70705312      -0.00401349      -0.00541555      -0.00899190
C       -1.22198120       6.38687859       3.56701313      -0.00034362      -0.00074849       0.00503043
C       -2.46779754       8.52191992       3.70646906       0.00910759      -0.00002802      -0.00341590
C        4.93402405      -0.01960171       3.82428891       0.00708768      -0.00147239       0.00223209
C        3.69403919       2.10259328       3.96837028       0.00089896      -0.00107427       0.01320468
O        2.46361382       4.11874803       4.13402719       0.00130218      -0.00797635      -0.00184446
P        1.09968611       6.41958923       2.19018859      -0.01871328      -0.00303425      -0.00133381
C       -0.00935718       8.56300483       3.43608600      -0.00910841       0.00303946      -0.00644637
C        7.39514623       0.01648295       3.73357485       0.00226461      -0.00526635       0.01026235
C        6.16535256       2.12041631       3.98323034      -0.00153928      -0.00798122      -0.00358437
C        4.90380567       4.22872600       3.93694954      -0.00303162       0.00261937      -0.00076491
S        3.58140649       6.27590621       2.82000109       0.00702439       0.00371611      -0.00327917
C        2.45247520       8.63649813       3.22666420      -0.00457627       0.01116026      -0.01523674
C        9.87251605       0.01690722       3.71238750       0.00090401       0.00554380       0.00350513
C        8.64204612       2.13559773       3.92570251       0.00208259       0.00505617      -0.01048145
C        7.40164226       4.25980611       3.95245147      -0.00253586       0.00016448       0.00451880
C        6.15097485       6.38055241       3.69687088      -0.00202544       0.00048056       0.00695617
C        4.92923396       8.55254977       3.48838076       0.00612206      -0.00260634      -0.00459238
C        0.00062354       1.41075443       3.84253421      -0.00586144       0.00123248       0.00274661
C       -1.19796512       3.55960086       3.85582312       0.00658095      -0.00339130      -0.00145570
C       -2.45735079       5.68271089       3.78089204       0.00482655       0.00073912       0.00604205
C       -3.70828870       7.81072180       3.74545592       0.00627317       0.00193603       0.00090916
C       -4.94433826       9.94350267       3.77353462      -0.00363662       0.00130218       0.00040294
C        2.46448367       1.38526618       3.90411913      -0.00228374       0.00415129       0.00367608
C        1.25558679       3.50100525       3.85774204      -0.00181940       0.00287825      -0.00278048
C       -0.00928664       5.65447855       3.36469320      -0.00988091      -0.00644748       0.00092151
C       -1.23401344       7.82081451       3.54672631       0.00032794      -0.00204714      -0.00726847
C       -2.46903091       9.94415793       3.79274305       0.01102614      -0.00067067       0.00078420
C        4.93995100       1.39996300       3.94199249      -0.00097212      -0.00416468      -0.00094000
C        3.69168346       3.48345797       3.99907901       0.00173077      -0.00039397      -0.00304817
C        1.21588904       7.93012683       3.07756730      -0.01017031       0.00167866      -0.00108531
C       -0.00243022       9.97540486       3.68297258       0.00202029      -0.00181055       0.00001909
C        7.40485340       1.42338184       3.90627420       0.00255431      -0.00576301       0.00285536
C        6.15715158       3.54187989       4.00304468      -0.00614280      -0.00446856      -0.00420782
C        4.95857416       5.62403063       3.63574328       0.00259223       0.00058854      -0.00831904
C        3.69264463       7.94814124       3.19154784      -0.00194444       0.00854344       0.00442164
C        2.46339060      10.01632265       3.57537778       0.00270176       0.00905453      -0.01273778
C        9.87721836       1.43059581       3.85883926       0.00187430       0.00498435       0.00587595
C        8.64657605       3.55538020       3.94596212       0.00848809       0.00705548       0.01108002
C        7.40095611       5.67783806       3.84797252      -0.00396342       0.00154994       0.00766978
C        6.14497237       7.80781374       3.60970073       0.00293138      -0.00503508      -0.00022706
C        4.93233141       9.97816448       3.66432831      -0.00520928      -0.00306834      -0.00441671
Tl       2.72055191       6.38306159       5.88126044       0.00951152      -0.00263634       0.00174610
O        2.49268519       6.39356857       7.92883920      -0.00829695      -0.00926389       0.00339364
