52
Lattice="12.336457 0.0 0.0 -6.168228499999997 10.683685154694365 0.0 0.0 0.0 15.0" Properties=species:S:1:pos:R:3:initial_magmoms:R:1:forces:R:3 energy=-446.6074693295564 free_energy=-446.6074693295564 stress="0.0012129141534295458 0.0008117356146176521 -9.561246415660481e-05 0.0008117356146176521 -0.0045372492365802755 -5.8291978810944075e-05 -9.561246415660481e-05 -5.8291978810944075e-05 -5.413556259254668e-05" pbc="T T T"
C        0.00869910       0.10563158       3.80602890       0.00000000      -0.01105871       0.00450946       0.03308334
C       -1.21006616       2.25669206       3.90855337       0.00000000       0.00185947      -0.01282808       0.00302419
C       -2.44297193       4.38186723       3.90657293       0.00000000       0.00044434       0.00817008       0.01951346
C       -3.69187146       6.50930866       3.83554639       0.00000000      -0.01047606       0.00586046      -0.03581573
C       -4.94483673       8.63706936       3.74357839       0.00000000      -0.00838278      -0.01352655       0.04019157
C        2.47261900       0.09302717       3.87060964       0.00000000      -0.01101494      -0.00792336      -0.01310163
C        1.25203578       2.22542978       3.86073769       0.00000000      -0.01355165       0.03207008       0.02184017
C        0.05070839       4.37520522       3.68603959       0.00000000       0.02435648       0.01130828      -0.02220025
C       -1.21839465       6.50545615       3.59042727       0.00000000       0.02569646       0.01935442       0.00041188
C       -2.45971178       8.64210633       3.73735812       0.00000000      -0.01332708      -0.00928206       0.05958211
C        4.94138311       0.09822015       3.89172678       0.00000000       0.01518590      -0.00967590      -0.00802227
C        3.70162231       2.22135430       3.97401675       0.00000000      -0.03345046      -0.00460581       0.02973760
O        2.47312309       4.24720220       3.96951209       0.00000000       0.01597454      -0.02976763       0.02506970
P        1.12226206       6.55903470       2.22998316       0.00000000      -0.01674228      -0.01925672      -0.02870014
C       -0.00299015       8.68395650       3.48958497       0.00000000       0.02242227       0.00406461       0.01807172
C        7.40180635       0.13549908       3.81875288       0.00000000       0.01567131      -0.00325582      -0.00567338
C        6.16931069       2.24274706       4.03329722       0.00000000       0.01260202      -0.00592942       0.01667962
C        4.90884785       4.35282070       3.90031482       0.00000000      -0.00905473       0.01548305      -0.00153863
S        3.61877639       6.43017888       2.76678007       0.00000000      -0.03081358      -0.03636160      -0.03260182
C        2.46291173       8.76453829       3.28653439       0.00000000      -0.00813019      -0.02192150       0.00842110
C        9.88306569       0.13844261       3.77958430       0.00000000      -0.03494955      -0.00813426      -0.00735084
C        8.64788147       2.25459731       3.99933747       0.00000000       0.01290871       0.02084098      -0.04350066
C        7.40645125       4.37909379       3.98610173       0.00000000      -0.02180060       0.02566395       0.02121047
C        6.15829191       6.50301761       3.71435429       0.00000000      -0.00522167      -0.01141797      -0.00250116
C        4.93876879       8.67649933       3.52963727       0.00000000       0.00735288      -0.01189180      -0.00172482
C        0.01071848       1.52792304       3.86367933       0.00000000       0.00401484       0.01138320      -0.01256204
C       -1.19520246       3.67728742       3.86893835       0.00000000       0.01319197      -0.00089634       0.01178052
C       -2.45245377       5.80039675       3.81066486       0.00000000       0.01078656       0.02028028       0.00271469
C       -3.69970668       7.93060863       3.76987755       0.00000000      -0.01070932      -0.00476345       0.02808050
C       -4.93379383      10.06380098       3.80452278       0.00000000      -0.02041976      -0.01178710      -0.02744620
C        2.47381419       1.50358667       3.91267503       0.00000000      -0.04014233      -0.00120467      -0.00620413
C        1.25398171       3.61252521       3.79250227       0.00000000       0.01921853       0.02094472      -0.01179497
C       -0.00803591       5.77733458       3.37494408       0.00000000       0.06521252       0.00923604       0.00518760
C       -1.22636619       7.93977909       3.58327203       0.00000000      -0.00202838       0.01252417      -0.00669119
C       -2.46006493      10.06251273       3.84438339       0.00000000       0.00658268      -0.00333031      -0.04470842
C        4.94470429       1.51876345       3.99299118       0.00000000      -0.01580947      -0.00396785      -0.04465804
C        3.70058812       3.60319080       3.93745312       0.00000000       0.00093138       0.00070548      -0.02974618
C        1.22545928       8.05769994       3.13034531       0.00000000       0.00491711      -0.00671985      -0.00946942
C        0.00440308      10.09356631       3.75567698       0.00000000       0.02676396      -0.00217681       0.00491407
C        7.40873546       1.54373343       3.98376308       0.00000000       0.03030974      -0.00833178       0.00381409
C        6.16136093       3.66525157       4.01841589       0.00000000      -0.00587710       0.00950945       0.00694447
C        4.96844745       5.75021418       3.60635671       0.00000000      -0.02394660       0.00963942       0.01329325
C        3.70070085       8.07755708       3.22975783       0.00000000       0.00908180      -0.01650087      -0.00766760
C        2.47277511      10.13929495       3.65433485       0.00000000      -0.02114785      -0.01433148      -0.01990119
C        9.88586036       1.55165108       3.92358686       0.00000000      -0.00170746      -0.00997334       0.00269460
C        8.65226329       3.67338910       3.99857998       0.00000000      -0.01545655       0.03160902      -0.00626275
C        7.40665597       5.79765172       3.87948844       0.00000000      -0.01570431       0.01721488      -0.00608941
C        6.15396076       7.93090406       3.63786322       0.00000000       0.00905235      -0.01905813      -0.01597810
C        4.94205802      10.09973767       3.70758009       0.00000000      -0.01879578       0.00126893       0.04302874
Tl       2.35441432       6.36659480       5.75683594       0.00000000       0.01403764       0.01101982       0.06286087
O        2.81690424       3.92382644       6.78952061       1.00000000       0.04570066      -0.08946563      -0.00709602
O        2.15934093       2.89539789       6.54191865       1.00000000       0.00544307       0.09562532      -0.02314334
