50
Lattice="12.336457 0.0 0.0 -6.168228499999997 10.683685154694365 0.0 0.0 0.0 15.0" Properties=species:S:1:pos:R:3:forces:R:3 energy=-424.363207763449 free_energy=-424.363207763449 stress="-0.0016159645292304534 0.004093627098487047 -2.4439427114547263e-05 0.004093627098487047 -0.004060174501822887 -8.924435642997357e-06 -2.4439427114547263e-05 -8.924435642997357e-06 -7.790294363092598e-06" pbc="T T T"
C       -0.02588212      -0.02729223       3.78028389       0.00483800       0.00151505       0.00190079
C       -1.21985450       2.14281645       3.96792679      -0.00106918      -0.00202656       0.00815887
C       -2.47922131       4.26716179       3.92218848      -0.00294813      -0.00146310       0.00844524
C       -3.73719986       6.38495013       3.75320295      -0.00103984       0.00378900      -0.00211085
C       -4.99212688       8.50344537       3.66502132      -0.00249140      -0.00282706      -0.00076858
C        2.43669011      -0.06048714       3.62196359      -0.00478908       0.00156371       0.00582011
C        1.26322113       2.06104905       3.81959442       0.00299105      -0.00632538       0.00366049
C       -0.06713532       4.36521765       4.21459152       0.00289135       0.00060313      -0.00759671
C       -1.30040103       6.42914606       4.03753286      -0.00350298      -0.00188137       0.00825856
C       -2.51104341       8.51945847       3.79640679       0.00130526       0.00512964      -0.00095523
C        4.91278857      -0.03489083       3.65188952      -0.00061238       0.00086859       0.00289278
C        3.69189310       2.00811713       3.17861538       0.00143069       0.00815547       0.00425022
O        1.08807215       6.48583504       4.32946122       0.00305192      -0.00062919       0.00601000
C       -0.04532201       8.53557427       3.95505234      -0.00090986      -0.00267501      -0.01443340
C        7.37780767      -0.01813848       3.82953141       0.00663023      -0.00505592       0.00537747
C        6.17773852       2.08938985       3.42991553      -0.00144820      -0.00165219       0.00400678
C        5.07653084       4.22490940       2.90522386      -0.00127067       0.01041907      -0.00487255
S        3.45030640       6.28813501       2.84394326      -0.00787940      -0.00757369       0.00219575
C        2.40239051       8.51919943       3.88257329      -0.00422255      -0.00436345      -0.00474159
C        9.85062581      -0.01676076       3.88199828       0.00242424       0.00662487      -0.01724446
C        8.63527498       2.11944163       3.79853131      -0.00771741       0.00338355      -0.00220417
C        7.41687952       4.23992968       3.55103688      -0.00194359      -0.00501752      -0.00155727
C        6.16097500       6.37847872       3.39481815       0.01200240      -0.00152290      -0.00361801
C        4.87897646       8.51303884       3.61529866      -0.00370160       0.00071976       0.00699243
C        0.00386819       1.41486003       3.88163989       0.00253924      -0.00180020       0.00978239
C       -1.23132605       3.57535651       4.04510260       0.00050067      -0.00226728       0.00748918
C       -2.50826561       5.68227951       3.91166734      -0.00693381      -0.00063807       0.01380151
C       -3.75029495       7.80420709       3.73923146       0.00132800       0.00507973      -0.00522338
C       -4.97765148       9.93022949       3.70024902      -0.00167738      -0.00318270      -0.00534557
C        2.45812964       1.35144341       3.51270928       0.00474938       0.00107671       0.00882273
S        1.49658499       3.68521433       4.33733755       0.00230792      -0.00842416      -0.00814816
C       -0.10213790       5.76697952       4.20959733       0.00154775       0.00019256       0.00057119
C       -1.29135231       7.83665237       3.94209866      -0.00049261      -0.00140885      -0.00409381
C       -2.49452207       9.93417955       3.67680025      -0.00388370       0.00537114       0.00414675
C        4.93271525       1.37772824       3.40644402      -0.00070391       0.00119127       0.00265250
S        3.65867966       3.45552536       2.24178793      -0.00326067       0.00188440      -0.01506655
C        1.15006467       7.84502387       4.02288229      -0.00238167      -0.00315519       0.00147511
C       -0.02396216       9.95826178       3.81571828       0.00240207      -0.00031399       0.00241459
C        7.39237415       1.40537450       3.69390658      -0.00271519      -0.00278083       0.01090055
C        6.21614119       3.50163714       3.29028846      -0.00358411       0.00038584      -0.00921899
C        5.03251811       5.62268100       3.03571729       0.00621934       0.01073817      -0.00676821
C        3.62537046       7.85513931       3.55566056      -0.00488370      -0.00350613       0.00073229
C        2.43514745       9.95038658       3.90560249       0.00716261      -0.00429404      -0.00500513
C        9.87667120       1.42088482       3.90545001      -0.00665234       0.00638129      -0.00384980
C        8.63694231       3.53929639       3.76606783      -0.00255332       0.00049826      -0.00317343
C        7.39147806       5.66251937       3.56978665       0.00682003      -0.00610754      -0.00378358
C        6.11374259       7.79584423       3.54660130      -0.00156827      -0.00304211       0.00341000
C        4.90237948       9.94735552       3.78879255       0.00372374       0.00625080       0.00023573
Tl       3.30859804       5.78441060       6.01474657       0.00211805      -0.01501321      -0.00456898
O        3.59502536       5.82119380       8.05962249       0.00785302       0.01712567      -0.00005560
