52
Lattice="12.336457 0.0 0.0 -6.168228499999997 10.683685154694365 0.0 0.0 0.0 15.0" Properties=species:S:1:pos:R:3:initial_magmoms:R:1:forces:R:3 energy=-442.60928210488373 free_energy=-442.60928210488373 stress="-0.003773421786065303 -0.0015533414300779322 -9.669598752627287e-06 -0.0015533414300779322 -0.005572798747416004 -4.046381534666247e-05 -9.669598752627287e-06 -4.046381534666247e-05 -7.487282138327619e-06" pbc="T T T"
C        0.00504504      -0.06461516       3.75903908       0.00000000       0.00089946       0.00265086       0.00434043
C       -1.24281858       2.06389307       3.73996118       0.00000000      -0.00220742      -0.00102072       0.00260001
C       -2.48149394       4.20734076       3.73541939       0.00000000      -0.01053547      -0.00605401      -0.00776680
C       -3.70202648       6.34538932       3.69054959       0.00000000       0.00499511      -0.00366255       0.00675930
C       -4.93712925       8.47704274       3.67601315       0.00000000       0.00801650      -0.00831256      -0.01166398
C        2.47250587      -0.06111903       3.64888008       0.00000000      -0.00499670      -0.00817421       0.00483847
C        1.22473763       2.05035958       3.48642357       0.00000000       0.00888455       0.00268754      -0.00886868
C       -0.02666748       4.18024332       3.59831438       0.00000000       0.01073369      -0.00119762       0.01588210
C       -1.23299239       6.33652179       3.88508451       0.00000000       0.00666120       0.00009474       0.00426729
C       -2.45534725       8.47464078       3.82212423       0.00000000      -0.00699532      -0.00339054      -0.00273724
C        4.93385360      -0.06128236       3.77082705       0.00000000       0.00055340      -0.00223070      -0.00353970
C        3.70802934       2.05409819       3.35324584       0.00000000      -0.00737006       0.00860327       0.00679373
S        2.35594633       4.06813846       2.19759375       0.00000000       0.00604991      -0.00362019       0.00076472
S        1.33147547       6.21776336       4.71942475       0.00000000      -0.00328788       0.00203560       0.00580129
C       -0.00023261       8.48826141       4.03133162       0.00000000      -0.00070313       0.00024877      -0.01611909
C        7.39190846      -0.04027437       3.92018472       0.00000000       0.00039908       0.01265390       0.00269891
C        6.16796149       2.07115942       3.62803077       0.00000000      -0.00477129       0.00207484       0.00174003
C        4.96909899       4.17554495       3.13484490       0.00000000       0.00077011      -0.00625565       0.00215723
S        3.57833349       6.45855002       2.62889001       0.00000000       0.00560949      -0.00394860      -0.01343304
C        2.46921783       8.53366220       3.94801244       0.00000000      -0.00152838       0.01016834       0.00618720
C        9.87514588      -0.04465910       3.88851844       0.00000000      -0.00413540      -0.00552535      -0.01221347
C        8.62829906       2.07967948       3.79166156       0.00000000      -0.00279173      -0.00795981       0.00456130
C        7.40120950       4.20795318       3.58846966       0.00000000      -0.00389833       0.00435112      -0.00247495
C        6.17278281       6.34713775       3.41140675       0.00000000      -0.00332860       0.00138702       0.00261680
C        4.94430666       8.49677823       3.68243957       0.00000000       0.00003035       0.00012614      -0.00540140
C       -0.00801987       1.35231374       3.70010140       0.00000000       0.00727628       0.00662732       0.00667404
C       -1.25766259       3.48172597       3.69287618       0.00000000      -0.00200797       0.00087145       0.00377509
C       -2.47514316       5.62889853       3.75625760       0.00000000       0.00471206      -0.00356441       0.00022098
C       -3.69623312       7.76695373       3.72476505       0.00000000       0.00289789      -0.00878269       0.00859921
C       -4.93193542       9.90574052       3.70526444       0.00000000      -0.00322325      -0.00914553      -0.00838175
C        2.46880322       1.35100571       3.46245933       0.00000000       0.00181714      -0.00283641       0.00845168
C        1.15370837       3.43698484       3.25962185       0.00000000       0.01335250       0.00632300       0.00597013
C       -0.04627030       5.56979126       3.92578336       0.00000000       0.01378572       0.00141776       0.00403700
C       -1.22454180       7.76143122       3.95055366       0.00000000      -0.00584101       0.00029922      -0.00176211
C       -2.46136139       9.90414878       3.74960914       0.00000000      -0.00447414      -0.00406562       0.00796206
C        4.93937919       1.35460877       3.59855723       0.00000000      -0.00667204       0.00207146      -0.00482519
C        3.76414602       3.42134589       2.99188388       0.00000000      -0.00716664       0.00782093      -0.00221529
C        1.24853270       7.83943940       4.14926566       0.00000000      -0.00240511       0.00262754      -0.01578877
C       -0.00402257       9.92247125       3.91886202       0.00000000       0.00615418       0.00371889      -0.00469506
C        7.39540147       1.37334946       3.79853558       0.00000000      -0.00460408       0.00587414       0.00379125
C        6.17977379       3.48486999       3.46390037       0.00000000      -0.00052703      -0.00080212       0.00516176
C        5.00586202       5.60583509       3.10839350       0.00000000      -0.00092794      -0.00905762       0.00005834
C        3.69200379       7.85612906       3.62014788       0.00000000      -0.00321790       0.00103714      -0.00247894
C        2.46678493       9.94824284       3.95333538       0.00000000      -0.00597333       0.00905454      -0.00138518
C        9.86261075       1.36945402       3.83136753       0.00000000      -0.00186699      -0.00945640      -0.00696612
C        8.62615984       3.49738873       3.71467483       0.00000000      -0.01151379      -0.00776981       0.00445483
C        7.40782216       5.63028057       3.56037245       0.00000000      -0.00208801       0.00732443      -0.00233089
C        6.16358786       7.76975592       3.56024841       0.00000000       0.00422496       0.00070906       0.00793277
C        4.93952597       9.92228039       3.82185530       0.00000000      -0.00123636      -0.00058593      -0.01027199
Tl       3.96116323       5.95912426       6.03122553       0.00000000       0.00662840       0.00110295       0.00437332
O        3.79986128       7.51133942       9.01819476       1.00000000      -0.00296666       0.00425879      -0.00054443
O        2.92578515       7.56758668       8.12541145       1.00000000       0.00880998       0.00919831       0.00239277
