51
Lattice="12.336457 0.0 0.0 -6.168228499999997 10.683685154694365 0.0 0.0 0.0 15.0" Properties=species:S:1:pos:R:3:initial_magmoms:R:1:forces:R:3 energy=-452.59546368339403 free_energy=-452.59546368339403 stress="-0.0021474104035072565 -0.000599160293037471 -4.681422263607993e-05 -0.000599160293037471 0.0015583548970664752 3.910246568841595e-06 -4.681422263607993e-05 3.910246568841595e-06 3.2416182597663186e-06" pbc="T T T"
C        0.00167334      -0.00876129       3.66230096       0.00000000      -0.01023098      -0.00152757       0.00443447
C       -1.24265705       2.11260938       3.62071129       0.00000000      -0.00107117      -0.00333854       0.00058016
C       -2.47535009       4.25736528       3.58238020       0.00000000       0.00872201       0.00633545      -0.00975314
C       -3.69868303       6.40159128       3.59516925       0.00000000       0.00529591       0.00044105       0.00302785
C       -4.92762544       8.54734042       3.64072371       0.00000000      -0.00664072       0.00048516      -0.00032470
C        2.46903412       0.03020434       3.68586090       0.00000000       0.00548894      -0.00049733       0.00676402
C        1.21305148       2.16309832       3.79521153       0.00000000      -0.00610083      -0.00530901       0.00050949
C       -0.03384669       4.21759396       3.77369291       0.00000000      -0.00820047      -0.00307352       0.00770468
C       -1.22945493       6.38976332       3.67410101       0.00000000       0.00138338       0.00078413       0.00270520
C       -2.46496043       8.54597306       3.63193262       0.00000000       0.00452522      -0.00709326       0.00682033
C        4.93015685       0.00288196       3.64562282       0.00000000       0.00958350       0.00659805       0.00874087
C        3.71696001       2.17281980       3.78787249       0.00000000       0.00429740       0.00895454       0.00483052
B        1.30309090       6.35676113       3.95993110       0.00000000      -0.01443248      -0.00385417      -0.00496726
C       -0.00172938       8.53818560       3.69298181       0.00000000      -0.00318144       0.00068752      -0.00075126
C        7.40313872      -0.01593651       3.62560936       0.00000000      -0.00235787      -0.00853764      -0.00003951
C        6.17163279       2.12351232       3.62047374       0.00000000       0.00240201      -0.00063623      -0.00662966
C        4.95917519       4.23820415       3.77946127       0.00000000      -0.00332573      -0.00136143      -0.00570023
C        3.70824688       6.35877827       3.92345418       0.00000000       0.00169307      -0.00154946      -0.00309694
C        2.47471423       8.53322284       3.75671566       0.00000000       0.00002830       0.01136974       0.00206472
C        9.87070478      -0.02232920       3.63630149       0.00000000       0.00377934      -0.00647604      -0.00505521
C        8.63490169       2.11983130       3.56848688       0.00000000      -0.00303297      -0.00335291      -0.00108969
C        7.40398622       4.26244914       3.58705433       0.00000000      -0.00597934       0.00811521      -0.00209382
C        6.17436379       6.39855653       3.67510002       0.00000000       0.00149348       0.00095773      -0.00745262
C        4.93536595       8.52003173       3.71194762       0.00000000       0.00092060      -0.00331650      -0.00214603
C       -0.00226176       1.41928003       3.67876479       0.00000000      -0.00607126      -0.00261307      -0.00299447
C       -1.25455510       3.52599292       3.62487183       0.00000000       0.00119085      -0.00344219      -0.00448326
C       -2.47013388       5.68498993       3.60301883       0.00000000       0.00821301       0.00407090       0.00051487
C       -3.69766675       7.83087386       3.61576646       0.00000000      -0.00254520      -0.00058635       0.00924556
C       -4.92746145       9.97762940       3.66282352       0.00000000      -0.00829671       0.00426269       0.00657588
C        2.46797543       1.47048876       3.77015035       0.00000000       0.00567304       0.00265928       0.00640542
N        1.14361762       3.53140154       3.93916062       0.00000000      -0.00905142      -0.00297959      -0.00540706
C       -0.01175107       5.63946055       3.80070566       0.00000000      -0.01202614      -0.00466551       0.00123233
C       -1.23371875       7.82238954       3.66448593       0.00000000       0.00205678      -0.00516075       0.00020300
C       -2.47116405       9.98019410       3.65251851       0.00000000       0.01262242      -0.00232078       0.00472006
C        4.93154624       1.43234788       3.66954687       0.00000000       0.00454768       0.00784671      -0.00074237
N        3.78401398       3.54665858       3.92783568       0.00000000      -0.00973824       0.01126178      -0.00751139
C        1.24175991       7.84977496       3.78738629       0.00000000      -0.00216931       0.00861613       0.00407382
C       -0.00352308       9.96627461       3.64353810       0.00000000       0.00012729      -0.00209043       0.00561738
C        7.40196843       1.40858381       3.58972132       0.00000000      -0.00328043      -0.01055445      -0.00487254
C        6.17710924       3.54185492       3.63382509       0.00000000      -0.00483254      -0.00013214      -0.00579822
C        4.92938329       5.67499747       3.79624086       0.00000000       0.00553911      -0.00272937       0.00495563
C        3.69526186       7.77878104       3.80452932       0.00000000      -0.00002616       0.00567310       0.00585118
C        2.47198220       9.95531662       3.66142163       0.00000000       0.00067773       0.00558646       0.00034478
C        9.86608664       1.40161480       3.59213417       0.00000000       0.00131112      -0.00841680      -0.00106524
C        8.63187749       3.54558140       3.55975509       0.00000000      -0.00009361       0.00817317      -0.00121903
C        7.40162304       5.68915254       3.60823341       0.00000000       0.00231359       0.00692193      -0.00609047
C        6.17473893       7.82369025       3.67375075       0.00000000      -0.00127145      -0.00356201      -0.00594210
C        4.93521736       9.94619631       3.66497595       0.00000000      -0.00072316      -0.00862297       0.00286064
V        2.45861761       4.82550576       4.61170043       0.00000000      -0.00310879       0.00220950      -0.00616871
O        2.38406987       5.23812914       7.57015293       1.00000000       0.01454320      -0.00109450      -0.00126655
O        2.44396214       5.01142835       6.27879489       1.00000000       0.01935945      -0.00311570       0.00187861
