50
Lattice="12.336457 0.0 0.0 -6.168228499999997 10.683685154694365 0.0 0.0 0.0 15.0" Properties=species:S:1:pos:R:3:forces:R:3 energy=-449.0746191824294 free_energy=-449.0746191824294 stress="-0.00503080695427314 0.0012751334815083815 -3.3580879375083924e-06 0.0012751334815083815 0.0007935365398839755 1.5167920171897999e-05 -3.3580879375083924e-06 1.5167920171897999e-05 -7.034039839465053e-07" pbc="T T T"
C        0.00072001       0.01126852       3.69476296       0.00178839      -0.00490915       0.01535434
C       -1.24206061       2.13078260       3.64453202      -0.00980516      -0.00178296       0.00283176
C       -2.47652581       4.27167209       3.60474113      -0.00360181      -0.00134188      -0.01400417
C       -3.70421384       6.41295486       3.62924445      -0.00341494       0.00616485      -0.00095803
C       -4.93879213       8.55760133       3.69346290       0.00602206      -0.00493968      -0.00161296
C        2.46864432       0.03426752       3.73387583      -0.00482007       0.00411708       0.00466911
C        1.23365216       2.17550263       3.80073199       0.00071595       0.00536389       0.00085038
C       -0.02721003       4.28436036       3.77292547       0.00425878      -0.00313710      -0.00896882
C       -1.25047168       6.42487877       3.67289523       0.00139996      -0.00727635       0.00117552
C       -2.47806765       8.56014417       3.67503140      -0.00178250      -0.00611915       0.00079221
C        4.93379791       0.00089663       3.71539246      -0.00414008      -0.01044558       0.00171171
C        3.72950662       2.17611711       3.84215796       0.00605625       0.00706349      -0.00473074
N        1.16602510       6.39145118       3.90456242       0.00695273      -0.00359145       0.00976565
C       -0.00826427       8.52260056       3.74129001      -0.00150945       0.00662886      -0.00738072
C        7.39929934      -0.02449172       3.68721563       0.01623829       0.01093707      -0.00111250
C        6.18272541       2.11329191       3.67363891      -0.00361246       0.00226257       0.00631247
C        4.97637215       4.21453101       3.83698112      -0.00609465       0.00355297       0.00081121
B        3.72936197       6.39604655       4.11076458       0.00892583      -0.00213857      -0.00223132
C        2.44421374       8.51993027       3.82915168      -0.00461772      -0.00468105      -0.00225402
C        9.86265560      -0.01725232       3.68422952       0.00216653       0.00187542      -0.00486721
C        8.63648692       2.12093753       3.60639877      -0.00477946      -0.00207243       0.00093978
C        7.41189300       4.26160088       3.62574759       0.00452962       0.00174733      -0.00092813
C        6.18073565       6.39976708       3.75010637       0.00063655       0.00414074       0.00006412
C        4.93896549       8.54906580       3.78431729      -0.00070499       0.00257929       0.00282901
C       -0.00221953       1.43330307       3.69844864      -0.00382943      -0.00141412       0.01056927
C       -1.25934428       3.55714293       3.64581552      -0.00226074      -0.00048413      -0.00113947
C       -2.47388153       5.70096788       3.62225052      -0.00744124       0.00015015      -0.00569415
C       -3.70789088       7.84232840       3.65923423       0.00257087      -0.00044745       0.00269066
C       -4.93307702       9.98925953       3.70634384       0.00223850      -0.00694392       0.00421750
C        2.47886965       1.46333156       3.80664338       0.00407357       0.00997852       0.00476516
C        1.15819237       3.57084158       3.89473319       0.00565041       0.00447187       0.01028324
C       -0.01998176       5.72685050       3.77693508       0.00743303      -0.00604963      -0.00040591
C       -1.24854047       7.84021920       3.69029986      -0.00035630      -0.00344993       0.00174418
C       -2.47339267       9.98804819       3.71074335      -0.01037990      -0.00768527      -0.00007302
C        4.94445629       1.42572482       3.73660559      -0.00059137      -0.00671995      -0.00933757
N        3.79790460       3.54124493       3.96744536      -0.00832196       0.00796851      -0.00070412
C        1.21107922       7.77271395       3.83644691      -0.00643857      -0.00311108      -0.00661230
C       -0.00177286       9.95003859       3.71256607       0.01148417       0.01085782      -0.00136678
C        7.40841455       1.40029725       3.63896967      -0.00064515       0.00783682       0.00172845
C        6.19692493       3.52549027       3.68002805      -0.00255403       0.00472368       0.00534615
C        4.98040434       5.63898478       3.88688748       0.00245499       0.00139021      -0.00396905
C        3.69274254       7.85946201       3.89803863      -0.00273327      -0.00210119      -0.00090147
C        2.45559007       9.94571674       3.72356649       0.00912726      -0.00073940      -0.00548241
C        9.86482828       1.40766299       3.62989433      -0.00949872      -0.00134317      -0.00397605
C        8.63721176       3.54926695       3.59102881       0.00052567      -0.00603350      -0.00081884
C        7.41086097       5.69135128       3.65187496       0.00024936       0.00486347      -0.00496169
C        6.16853406       7.83186223       3.74572184       0.00180824       0.00245118      -0.00097987
C        4.93622105       9.97311371       3.70913363       0.00058187       0.00177756       0.00829641
V        2.46080487       4.92811423       4.61615411      -0.00650080      -0.00122582      -0.00344386
O        2.47633600       5.05479356       6.22113407       0.00254587      -0.01271945       0.00116690
