49
Lattice="12.336457 0.0 0.0 -6.168228499999997 10.683685154694365 0.0 0.0 0.0 15.0" Properties=species:S:1:pos:R:3:forces:R:3 energy=-437.1573765387394 free_energy=-437.1573765387394 stress="-0.0047192602944895 -0.0029855518613170393 -9.659002288749938e-06 -0.0029855518613170393 -0.003661542243350922 1.6272663259555059e-06 -9.659002288749938e-06 1.6272663259555059e-06 1.8463565055595338e-09" pbc="T T T"
C       -0.00945292       0.00040462       3.80975551       0.01053007       0.00310579       0.00490036
C       -1.26191874       2.12221295       3.81325638       0.00216018      -0.00037475       0.00367594
C       -2.47864236       4.26709571       3.83371887       0.00489376      -0.00143525      -0.00512662
C       -3.68510163       6.41262678       3.83602591       0.00529655       0.00162178      -0.00069057
C       -4.92301876       8.55945099       3.84168180      -0.00528783       0.00347288      -0.01117324
C        2.45973287       0.00761405       3.76364322       0.01284546      -0.00367660       0.00381780
C        1.19310809       2.15404476       3.76675127      -0.00094621      -0.00418780       0.01329314
C       -0.03302553       4.21713614       3.92120137       0.00111433      -0.00776022       0.00512469
C       -1.21834445       6.39401235       3.90360162       0.00413572      -0.00103439       0.00580331
C       -2.45922185       8.54466994       3.84442900      -0.00490274       0.00789163      -0.00163506
C        4.92376108       0.00347147       3.70184729       0.00447206       0.00222714      -0.00007627
C        3.66785452       2.08594267       3.34935908      -0.00810273      -0.01091101       0.01139099
B        1.32467303       6.36618849       3.98621510      -0.00227838       0.00323203       0.00509734
C       -0.00217089       8.54863291       3.85815012      -0.00218923       0.00401491      -0.00239615
C        7.38707852       0.00808789       3.75356879      -0.00706607      -0.00600421      -0.00760634
C        6.14917426       2.14710643       3.54650070      -0.00017097       0.00050814       0.00129618
C        5.00067770       4.33535799       3.38062448      -0.00170428       0.00740132      -0.00669855
C        3.72127805       6.41228234       3.71528461      -0.00811817      -0.00459803      -0.01238727
C        2.46869744       8.56519667       3.84737881       0.00205403      -0.00642021       0.00548500
C        9.85790933      -0.00031625       3.80304008      -0.00925707       0.00264677      -0.00944444
C        8.61564139       2.13871267       3.74214685      -0.00415806       0.01075588       0.00289940
C        7.40573954       4.28307262       3.70505883      -0.00087236       0.00232261      -0.00757071
C        6.20541693       6.44073253       3.73604629       0.00683948      -0.00520089       0.00178882
C        4.93799584       8.55001327       3.81596155      -0.00111398      -0.00399594       0.00209468
C       -0.02419068       1.42234886       3.79533243       0.00382980       0.00307019       0.01108759
C       -1.26531609       3.53169059       3.85165335       0.00154563      -0.00470937       0.00242060
C       -2.46031522       5.69268732       3.86258154       0.00514974      -0.00335986      -0.00170836
C       -3.69099332       7.83868613       3.85072166      -0.00657645       0.00674442      -0.00291182
C       -4.93626834       9.98049574       3.82221746       0.01150163       0.00407521       0.00552421
C        2.44355459       1.44242139       3.64263032      -0.00323361      -0.01023447       0.00331406
N        1.15413529       3.51925917       3.93360497      -0.00049362      -0.00238507       0.00300252
C        0.00705468       5.64307863       3.94891669       0.00358658      -0.00625779       0.00624205
C       -1.22642166       7.82501779       3.87553209      -0.00359524       0.00404170      -0.00383833
C       -2.47311373       9.97452149       3.77335877       0.01039020       0.00421214       0.00435509
C        4.91495445       1.42796004       3.52351649      -0.00288406      -0.00376826       0.00647323
S        3.67127206       3.62914940       2.48379085      -0.00899617       0.00440701       0.00055590
C        1.24367361       7.86299483       3.89595756      -0.00088628       0.00354977       0.00233804
C       -0.00965602       9.97738239       3.77440798      -0.00431205      -0.00008961       0.00151344
C        7.37527815       1.43513160       3.68053864      -0.00061139      -0.00105106       0.00351712
C        6.17430736       3.57175715       3.54417817      -0.00469170       0.00459472      -0.00490744
C        4.96563328       5.74618692       3.60879323       0.00246983       0.00465911      -0.00160874
C        3.69436979       7.82189326       3.80867760      -0.00125097      -0.00565479      -0.00363126
C        2.45811070       9.98366665       3.80716106      -0.00865239      -0.00782130      -0.01310135
C        9.84634805       1.41919619       3.78854841      -0.00476840       0.00724681      -0.00204810
C        8.62419290       3.56097572       3.76386866       0.00028164       0.00899013       0.00041260
C        7.41848459       5.70925519       3.76203473       0.01046636      -0.00203265      -0.00823201
C        6.18248371       7.85429880       3.81286407      -0.00001487      -0.00623390      -0.01033182
C        4.92592845       9.96799949       3.81918385       0.00193461       0.00162110      -0.00150147
V        2.61604524       4.77674440       4.24940144       0.00163766       0.00278425       0.00120180
