50
Lattice="12.336457 0.0 0.0 -6.168228499999997 10.683685154694365 0.0 0.0 0.0 15.0" Properties=species:S:1:pos:R:3:forces:R:3 energy=-438.88982516888535 free_energy=-438.88982516888535 stress="-0.004917256976298583 -0.00369832674312837 -2.767635340264282e-06 -0.00369832674312837 -0.005801856269591475 9.869563995274745e-06 -2.767635340264282e-06 9.869563995274745e-06 1.1226881996030587e-05" pbc="T T T"
C       -0.01673488      -0.03240595       3.73917830      -0.00268458       0.00069840       0.01032539
C       -1.27583148       2.09884818       3.91742266       0.00515153       0.00350995      -0.00208675
C       -2.49492592       4.24814779       3.71625677       0.00484138      -0.00325042       0.00492209
C       -3.68870622       6.39464253       3.52005157       0.00434422      -0.00793408      -0.00351502
C       -4.92472008       8.53418420       3.54238179      -0.00149304      -0.00057790      -0.00405199
C        2.45860289      -0.05273502       3.76328461       0.00452626       0.00524232       0.00705552
C        1.20469167       2.01707488       4.22979050       0.00384377      -0.00363006       0.00890532
C       -0.13459658       4.25816442       4.33118428      -0.00764482      -0.00018591       0.00360832
C       -1.25862697       6.39066105       3.86062170      -0.00076535      -0.00113546       0.00256312
C       -2.45971965       8.51840588       3.65432300      -0.00158784       0.00485114       0.00082668
C        4.92246010      -0.02107126       3.65626200       0.00195884       0.00382591       0.00386917
C        3.64250789       2.05531658       3.66396930      -0.00249990       0.00943474       0.00098134
B        1.18495529       6.42844073       4.39987914      -0.00585960       0.00888102       0.00241698
C       -0.00411309       8.52941855       3.82384766      -0.00568612      -0.00163842       0.00015358
C        7.38603721      -0.01893677       3.64203555       0.00431483      -0.00679217      -0.00575784
C        6.13241456       2.13165307       3.48862758      -0.00254194       0.00004384      -0.00342497
C        4.98522948       4.34854785       3.37296801      -0.00419460       0.00592655       0.00005695
N        3.79102146       6.42308667       3.69800647      -0.00303497      -0.00002564      -0.00597446
C        2.48246786       8.51770923       3.80190624       0.00142679      -0.00386418       0.00228035
C        9.85040833      -0.02334741       3.66779219       0.00357958       0.00069146      -0.00387023
C        8.60964634       2.11716021       3.59640486       0.00626191       0.00187240       0.00559497
C        7.40152576       4.26640363       3.43093059       0.00230868      -0.00228190      -0.00473940
C        6.20692691       6.43600891       3.37791814      -0.00362298       0.00035903      -0.00659406
C        4.94126697       8.53416459       3.56425871      -0.00821699      -0.00537601      -0.00560898
C       -0.03368297       1.37719222       3.97607218       0.00174659       0.00286019       0.00632884
C       -1.29809472       3.51987712       3.98599161      -0.00032372      -0.00092288       0.00008121
C       -2.47764892       5.67505375       3.67719336       0.00524672      -0.00637987       0.00334880
C       -3.68995249       7.81579205       3.55734116       0.00216359      -0.00346194      -0.00760880
C       -4.94615881       9.94150576       3.68439494       0.00159935       0.00308170       0.00333020
C        2.44076204       1.35160160       3.93524156       0.00323409       0.00445061       0.00097985
P        1.17629989       3.48784858       5.20793816      -0.01217012      -0.00915710      -0.00576689
C       -0.08044075       5.66798413       4.19339675      -0.00006613      -0.00042167       0.00175056
C       -1.23116108       7.80838768       3.77717360      -0.00602282      -0.00032746       0.00112491
C       -2.46876861       9.93975054       3.67960074       0.00323988       0.00652873       0.00349858
C        4.90179484       1.41679026       3.58676499      -0.00385921       0.00370849       0.00128174
S        3.40768933       3.70615130       3.22634648      -0.00058193       0.00150240       0.00330790
C        1.24326831       7.84427388       3.98372685      -0.00271545       0.00646779       0.00747542
C       -0.01134817       9.95389733       3.68950995      -0.00037980      -0.00366375      -0.00290300
C        7.36794065       1.41283834       3.55412631       0.00367357      -0.00226793      -0.00277173
C        6.15347051       3.56067485       3.39844737      -0.00313514       0.00270521      -0.00682752
C        4.97998385       5.75764776       3.43252532      -0.00371023       0.00472709      -0.00005352
C        3.72789460       7.80014947       3.70211993      -0.00434772      -0.00437071       0.00089136
C        2.45894666       9.94758539       3.67894267       0.00639196      -0.00554515      -0.00196185
C        9.84154170       1.40105984       3.71144949       0.00745260       0.00303909      -0.00173939
C        8.61906995       3.54176065       3.55814245       0.00602528       0.00101262       0.00448970
C        7.41895305       5.68988279       3.41017572      -0.00092988      -0.00250044      -0.00395601
C        6.18334689       7.84469210       3.46824914      -0.00622600      -0.00129419      -0.00223279
C        4.92099367       9.95094801       3.64630695      -0.00250412      -0.00471874      -0.00120092
V        2.84561029       5.33183631       5.07000267       0.00886429       0.00115533       0.00749505
O        3.33438201       5.52270197       6.59913448       0.00460928      -0.00485205      -0.01629775
