49
Lattice="12.336457 0.0 0.0 -6.168228499999997 10.683685154694365 0.0 0.0 0.0 15.0" Properties=species:S:1:pos:R:3:forces:R:3 energy=-442.85402915408133 free_energy=-442.85402915408133 stress="-0.0025334299447017598 -0.00037733915803306295 -3.0553173653940897e-06 -0.00037733915803306295 0.0010297772063672245 -2.4325423489415795e-06 -3.0553173653940897e-06 -2.4325423489415795e-06 -2.4351595121068728e-06" pbc="T T T"
C       -0.00035165       0.00324260       3.71991882       0.00522526      -0.00398080       0.00908816
C       -1.24327795       2.12479909       3.69808091       0.00147369      -0.00247288      -0.00770948
C       -2.47520159       4.27017474       3.66957287      -0.00556564       0.00531876      -0.00571112
C       -3.69929934       6.41395628       3.66872000      -0.00866102       0.00735194       0.00540422
C       -4.93036929       8.55944572       3.69852286      -0.00100215      -0.00142126       0.00232092
C        2.46799614       0.04091017       3.74091574      -0.01361168      -0.00898264      -0.00942532
C        1.21507429       2.17522279       3.82784038       0.00210284       0.00346260       0.00160097
C       -0.03557155       4.23216170       3.81469722       0.00139745       0.00570299       0.00678723
C       -1.23014116       6.40238865       3.72312726       0.01267251      -0.00643311      -0.00227425
C       -2.46720568       8.55869794       3.68298512       0.00491718      -0.00072668       0.01033916
C        4.92751666       0.01843482       3.69244305       0.00455595       0.00265278       0.01027163
C        3.71315812       2.18534513       3.81821151       0.00560357      -0.00586575      -0.00538951
B        1.30751666       6.37778699       3.91705588      -0.01656675       0.00754704      -0.00481066
C       -0.00591327       8.55537286       3.70808273      -0.00238383       0.00632645       0.00368949
C        7.40102665      -0.00091894       3.67512455       0.00559142       0.00285545      -0.00054029
C        6.17156163       2.13641594       3.69012406       0.00311883       0.00287970      -0.01441192
C        4.96141821       4.25283556       3.81013880       0.00032128      -0.00267628       0.00150543
C        3.69132729       6.36042678       3.89353693      -0.00594249      -0.00388938      -0.00366085
C        2.47346222       8.55146288       3.76502367      -0.00799772      -0.00370612      -0.00217122
C        9.87055323      -0.00830057       3.69339073       0.00161777      -0.00688881      -0.00431036
C        8.63488288       2.13380258       3.65393577      -0.00922449      -0.00860145       0.00277550
C        7.40486632       4.27609632       3.67365732      -0.00456868      -0.00902017      -0.01665588
C        6.17210268       6.41072091       3.72502983       0.00194503       0.00369455      -0.00443407
C        4.93158257       8.52904464       3.74485283       0.00770175       0.01181412       0.00879907
C       -0.00303714       1.43071685       3.73867522       0.00443229      -0.00396151       0.00040750
C       -1.25341619       3.53950828       3.70553648       0.00234170       0.00517672      -0.00606537
C       -2.46993591       5.69742139       3.67798408      -0.00198471       0.01003731      -0.00171691
C       -3.69999184       7.84315212       3.67717758      -0.00137748       0.00738858       0.01558340
C       -4.92912621       9.99011132       3.72089434      -0.00970684      -0.01001939      -0.00190159
C        2.46742420       1.48152221       3.81146520      -0.00026414      -0.00655638      -0.00215206
N        1.16473827       3.55270926       3.92300808       0.00144233       0.00706495      -0.00655412
C       -0.01089280       5.65188049       3.81877944       0.00750336       0.00105976       0.00588044
C       -1.23687125       7.83651677       3.70149779       0.00673013      -0.00859003       0.00516556
C       -2.47270164       9.99352592       3.70226399      -0.00321925       0.00204325       0.00777539
C        4.92978048       1.44638409       3.72207811       0.01050145       0.00208026      -0.00047676
N        3.76415805       3.56965561       3.90968332      -0.00173863      -0.00230872      -0.01056491
C        1.23844221       7.86813497       3.77024299      -0.01251602      -0.00185452       0.01410098
C       -0.00626603       9.98183688       3.67897521       0.00702575       0.00953831       0.01605663
C        7.40102606       1.42311817       3.66224186      -0.00689799      -0.00038243      -0.00464347
C        6.17743612       3.55508714       3.70637012      -0.00269578      -0.00423956      -0.01073775
C        4.92890556       5.68565912       3.81342971       0.00391324       0.00009673       0.00826669
C        3.69086876       7.78833875       3.80842303       0.00241137       0.00815751      -0.00060607
C        2.47066925       9.97053326       3.70264776      -0.00004450      -0.00379938      -0.00372916
C        9.86623780       1.41568606       3.67034758      -0.00370147      -0.00926247      -0.00202084
C        8.63220319       3.55924072       3.65350748      -0.00555868      -0.00812149      -0.00384788
C        7.40116215       5.70216356       3.68315929      -0.00280599      -0.00420123      -0.01473676
C        6.17262915       7.83538697       3.72068611       0.00486326       0.00619229      -0.00332936
C        4.93298304       9.95670748       3.71411393       0.00976159       0.00659698       0.01027483
V        2.46425395       4.84402612       4.55654204       0.00886492       0.00292341       0.00849474
