50
Lattice="12.336457 0.0 0.0 -6.168228499999997 10.683685154694365 0.0 0.0 0.0 15.0" Properties=species:S:1:pos:R:3:forces:R:3 energy=-444.38973538929446 free_energy=-444.38973538929446 stress="-0.00458190491357401 -0.002283074427795328 -3.2894340063855873e-06 -0.002283074427795328 -0.003255029971374705 -1.6749568349060498e-05 -3.2894340063855873e-06 -1.6749568349060498e-05 -1.623606354456491e-05" pbc="T T T"
C       -0.01530419       0.00289625       3.80042988      -0.00468466       0.00158135       0.00317009
C       -1.26350464       2.12502773       3.79104637       0.00818229       0.00006434       0.00020020
C       -2.48337956       4.27070989       3.79418395       0.00588798      -0.00182248      -0.00944613
C       -3.69480851       6.41585252       3.79361132      -0.00371882      -0.00384411       0.00258423
C       -4.93085352       8.56140585       3.81131153      -0.00711967       0.00224771       0.00058810
C        2.45224225       0.01181415       3.75007810       0.00020830      -0.00093584      -0.00152111
C        1.18994491       2.15864043       3.77211014      -0.00053921      -0.00173739      -0.00399594
C       -0.03224171       4.22266387       3.90030506      -0.00313517       0.00724634       0.00630135
C       -1.22967673       6.40028467       3.87671827       0.00099261      -0.00496852       0.00282932
C       -2.46843814       8.55148148       3.80404320       0.00830080       0.00103860       0.01076274
C        4.91950634       0.00883764       3.67565769       0.00405996       0.00362954      -0.00288324
C        3.66266653       2.10388133       3.39712954       0.00005161      -0.00268701      -0.00401452
B        1.28505157       6.38376531       4.06454287       0.00014988       0.01121596      -0.00693438
C       -0.01167400       8.55666711       3.83660710      -0.00194498      -0.00930357      -0.00228831
C        7.38550507       0.00930029       3.71468164      -0.00141994      -0.00776707       0.01114070
C        6.15197961       2.14609207       3.54465350      -0.00420039       0.00015237      -0.00299850
C        4.96757675       4.32470032       3.50444459       0.00503130      -0.00195002      -0.01161331
C        3.72056939       6.41053612       3.77911870       0.00485971       0.00907702      -0.00377079
C        2.46171967       8.56414281       3.84226904       0.00223892      -0.00255966       0.01052715
C        9.85355750      -0.00017911       3.77468241       0.00368316       0.00151514      -0.00246649
C        8.61485448       2.13935957       3.70731191       0.00059175       0.00580843       0.00096518
C        7.39937627       4.28255628       3.68365445      -0.00584407      -0.00153251      -0.00593785
C        6.19580922       6.44141891       3.74226770      -0.01198918      -0.00698610      -0.00056551
C        4.92885187       8.54863032       3.81146199       0.00068505       0.00342714      -0.00283472
C       -0.02732999       1.42624342       3.79020832       0.00302227      -0.00333453      -0.00135492
C       -1.26567531       3.53733086       3.81766494       0.00413381       0.00025076      -0.00119416
C       -2.47024729       5.69632749       3.82022272       0.00139182      -0.00393547       0.00049273
C       -3.69983301       7.84234738       3.80842238       0.00098784       0.00241458       0.00577996
C       -4.94200753       9.98229481       3.80444215      -0.00616003       0.00396918      -0.00170823
C        2.43496357       1.43881424       3.64945287       0.00111900      -0.00330383      -0.00130116
N        1.15136074       3.53005916       3.90081242      -0.00785506      -0.00063860       0.01050706
C       -0.01036347       5.64954543       3.95450992       0.00400546       0.00765787       0.00672638
C       -1.23570398       7.83236139       3.84544693       0.00285507      -0.00901618      -0.00059913
C       -2.47895325       9.97930179       3.74530001       0.00678836       0.00374017       0.00045640
C        4.91505721       1.42931420       3.52250291      -0.00124106       0.00254040      -0.00760653
P        3.60347543       3.68784562       2.59654973       0.00463860      -0.00176664       0.00369337
C        1.23187255       7.87127004       3.90379220      -0.00017455       0.00173024       0.00260241
C       -0.01634142       9.98401259       3.74002879      -0.00264043      -0.00921493       0.00315222
C        7.38003088       1.43298002       3.64899803      -0.00294236      -0.00149553       0.00503192
C        6.17340595       3.56984904       3.55831476      -0.00326812      -0.00271652      -0.00085860
C        4.95311089       5.74655790       3.67602395      -0.00652489      -0.00547555       0.00118266
C        3.68604520       7.82047957       3.82687737       0.00470906       0.00435959       0.00979880
C        2.45384064       9.98245866       3.77369161       0.00409116      -0.00581759       0.00611311
C        9.84438929       1.42057874       3.75685952       0.00545383       0.00400932      -0.00085570
C        8.61943012       3.56393097       3.72802776       0.00020881       0.00701021      -0.01170642
C        7.40991704       5.71130713       3.73966249      -0.01064782      -0.00376549      -0.00069511
C        6.17492401       7.85301628       3.79948391      -0.00757256      -0.00487013      -0.00398984
C        4.92054766       9.96781308       3.80471779      -0.00008304       0.00111973      -0.01087120
V        2.58916745       4.79568686       4.53342616       0.00163258       0.00752689      -0.01801109
O        3.05016697       4.56582733       6.06117709       0.00374504       0.00811241       0.01741677
