50
Lattice="12.336457 0.0 0.0 -6.168228499999997 10.683685154694365 0.0 0.0 0.0 15.0" Properties=species:S:1:pos:R:3:forces:R:3 energy=-443.6552232556898 free_energy=-443.6552232556898 stress="-0.004358837735878731 -0.002624451333420445 1.1203306275231438e-05 -0.002624451333420445 -0.002935236128443641 -1.4585244165755275e-05 1.1203306275231438e-05 -1.4585244165755275e-05 -1.4314172094135255e-05" pbc="T T T"
C       -0.01519294       0.00066885       3.79049214      -0.00683712      -0.00052161       0.00091546
C       -1.26577250       2.12497424       3.77591393       0.00249810      -0.00457151       0.00353681
C       -2.48250809       4.27005995       3.78236197       0.00638083       0.00044075      -0.00382900
C       -3.69113787       6.41549123       3.78424111      -0.00274840      -0.00434148      -0.00197184
C       -4.92983563       8.55978216       3.80385296      -0.00375207       0.00325049       0.00237226
C        2.45363500       0.00965438       3.77064999      -0.00218797      -0.00533260       0.00517885
C        1.18810407       2.15934488       3.78901512       0.00064131      -0.00637731      -0.00587046
C       -0.03388163       4.21871617       3.92093571      -0.00623824       0.01032999      -0.00054893
C       -1.22735496       6.39772699       3.89762234      -0.00195741      -0.00367560       0.00435382
C       -2.46681855       8.54790257       3.82642335       0.01117013       0.00221253       0.00996310
C        4.91811276       0.00642312       3.70434441       0.00436487       0.00075139      -0.00646281
C        3.66028701       2.08588063       3.38950164       0.00186110       0.00082576      -0.00118868
B        1.28880830       6.38084843       4.11385044       0.00082765       0.01228502      -0.00160377
C       -0.01085119       8.55421537       3.87506481      -0.00441567      -0.01127947      -0.00080979
C        7.38224908       0.00761690       3.72442040       0.00115902      -0.00521814       0.01185689
C        6.14465458       2.14796728       3.52308182      -0.00777816      -0.00004410      -0.00431998
C        4.99178423       4.33356978       3.38665801       0.00569271      -0.00350411      -0.01275569
C        3.72161191       6.40505050       3.77171307       0.00185274       0.00769831       0.00182496
C        2.46051533       8.56022074       3.85970102       0.00046340      -0.00060585       0.00293260
C        9.85117473      -0.00166776       3.76241373       0.00976993      -0.00012830       0.00015643
C        8.61225312       2.13952117       3.68830465       0.00090960       0.00818295      -0.00281940
C        7.40302656       4.28496659       3.64844917      -0.00505660      -0.00102981      -0.00383275
C        6.19916885       6.44085096       3.70076550      -0.00964486      -0.00336243      -0.00549219
C        4.93085650       8.54778006       3.79448925       0.00376883       0.00699712      -0.00314925
C       -0.02765830       1.42549512       3.78378388      -0.00323541      -0.00728432       0.00045912
C       -1.26857684       3.53475315       3.81226450       0.00005373      -0.00394905      -0.00159681
C       -2.46771071       5.69523180       3.82001933       0.00225953      -0.00430933       0.00152115
C       -3.69822884       7.84084089       3.81158514       0.00575527       0.00245943      -0.00189943
C       -4.94327144       9.98009374       3.80716285      -0.00963551       0.00473018      -0.00083277
C        2.43715777       1.44231474       3.67570678       0.00247410      -0.00693685       0.00049493
N        1.14018867       3.51867664       3.95463408      -0.00268391      -0.00015879       0.00932783
C       -0.00767447       5.64597390       3.98334057      -0.00334625       0.00612426       0.00188144
C       -1.23389522       7.82939248       3.87503582       0.00038803      -0.00839723       0.00630005
C       -2.47860492       9.97781092       3.77245968       0.00621384       0.00371182       0.00404184
C        4.91061153       1.43090108       3.53037910      -0.00230372       0.00069265      -0.00663722
S        3.62141456       3.64164380       2.58140347       0.00694950       0.00232255      -0.00113323
C        1.23315775       7.86980272       3.94526618      -0.00411474       0.00107344       0.00153225
C       -0.01585879       9.98134332       3.76939314       0.00037228      -0.01130101      -0.00170726
C        7.37240325       1.43457962       3.63978249      -0.00546122       0.00280826       0.00574409
C        6.17154654       3.57156156       3.50688765      -0.00301604      -0.00558583      -0.00289666
C        4.94834918       5.73922431       3.62057776       0.00024501      -0.00695866      -0.00762681
C        3.68636669       7.81409773       3.82616309       0.00610901       0.01047458       0.00663963
C        2.45190823       9.98029755       3.77811385       0.00803388      -0.00358768       0.00697561
C        9.84204927       1.41940691       3.73861318       0.00427502       0.00152202       0.00040173
C        8.62129028       3.56256608       3.70545243       0.00380414       0.00953634      -0.01248633
C        7.41223874       5.71157328       3.70627589      -0.00864275      -0.00493030       0.00119121
C        6.17498244       7.85291881       3.77508702      -0.00369858       0.00056737       0.00023659
C        4.91943428       9.96672783       3.79010015       0.00327898       0.00313747      -0.01215351
V        2.58700879       4.80730040       4.52946877       0.00145978       0.00187861       0.01248456
O        3.02192144       4.68319994       6.08089767      -0.00627768       0.00937808       0.00130137
