51
Lattice="12.336457 0.0 0.0 -6.168228499999997 10.683685154694365 0.0 0.0 0.0 15.0" Properties=species:S:1:pos:R:3:initial_magmoms:R:1:forces:R:3 energy=-452.2501337444883 free_energy=-452.2501337444883 stress="-0.00430780787447146 0.0015403966357279558 1.2908937124933084e-05 0.0015403966357279558 0.001665901291941952 1.719885872399901e-05 1.2908937124933084e-05 1.719885872399901e-05 -6.46649994702446e-06" pbc="T T T"
C        0.00774144       0.01230394       3.66151058       0.00000000      -0.00122494       0.00331628      -0.00346623
C       -1.23391262       2.13221899       3.59825900       0.00000000       0.00269450      -0.00270759       0.00103534
C       -2.46930952       4.27252739       3.54675886       0.00000000       0.00415665      -0.00166415      -0.00676359
C       -3.69910954       6.41365326       3.56988511       0.00000000       0.00567347      -0.00293641      -0.00036159
C       -4.93257095       8.55810699       3.64662224       0.00000000      -0.00477264       0.00279192      -0.00046121
C        2.47517085       0.03588862       3.71005872       0.00000000      -0.00157541       0.00066920      -0.00458811
C        1.24350381       2.18152566       3.76804108       0.00000000      -0.00038297      -0.00041958       0.00140312
C       -0.01846378       4.28687478       3.73564183       0.00000000      -0.00028331      -0.00126108      -0.00372257
C       -1.24504531       6.42575771       3.63332165       0.00000000       0.00403637       0.00169204       0.00124203
C       -2.47249044       8.56090807       3.64154474       0.00000000       0.00059115       0.00154782      -0.00173315
C        4.94019262       0.00206931       3.68834274       0.00000000      -0.00116289       0.00059562      -0.00305397
C        3.73580893       2.17970374       3.82377908       0.00000000      -0.00141670       0.00320493       0.00154069
N        1.16885213       6.38800888       3.91791172       0.00000000      -0.00622640       0.00531375       0.00518478
C       -0.00218828       8.52179904       3.71123836       0.00000000       0.00128245      -0.00000909       0.00079022
C        7.40689442      -0.02478832       3.64526006       0.00000000       0.00116184      -0.00295251       0.00042835
C        6.18888932       2.11397290       3.63243368       0.00000000      -0.00190703      -0.00595892       0.00399340
C        4.98345051       4.21600865       3.79363879       0.00000000       0.00042878       0.00147338       0.00087811
B        3.72101667       6.38194267       4.02558823       0.00000000       0.00103450       0.00278962      -0.00057349
C        2.45051823       8.51448550       3.77931949       0.00000000       0.00045148       0.00209309      -0.00316326
C        9.86916242      -0.01754474       3.63407395       0.00000000       0.00482885      -0.00180189       0.00210329
C        8.64346492       2.12051586       3.55243228       0.00000000       0.00184683       0.00625616      -0.00044492
C        7.41815926       4.26122186       3.56061500       0.00000000      -0.00929167      -0.00019185       0.00712189
C        6.18456090       6.39885039       3.67832119       0.00000000       0.00212306       0.00025263       0.00559960
C        4.94315261       8.54681627       3.72231954       0.00000000      -0.00110079      -0.00151645      -0.00025230
C        0.00710792       1.43650148       3.66291335       0.00000000       0.00131128       0.00105865       0.00529264
C       -1.24917319       3.55959917       3.59591781       0.00000000       0.00278503      -0.00478456       0.00027790
C       -2.46840135       5.70181612       3.56765259       0.00000000       0.00833054      -0.00187949      -0.00291498
C       -3.70210634       7.84302048       3.61212799       0.00000000      -0.00155979       0.00021403       0.00458751
C       -4.92599600       9.99020911       3.67522694       0.00000000      -0.00414266       0.00432325      -0.00773751
C        2.48599366       1.46893589       3.78313594       0.00000000      -0.00109660       0.00004887       0.00488404
C        1.17965026       3.58260196       3.85451879       0.00000000      -0.00107162      -0.00231556      -0.00495645
C       -0.01725861       5.72606218       3.75237776       0.00000000      -0.00110097       0.00031696       0.00502090
C       -1.24295257       7.84083526       3.65810543       0.00000000       0.00178122       0.00086815       0.00003249
C       -2.46774316       9.98927935       3.68567665       0.00000000      -0.00025597       0.00211804      -0.00434333
C        4.95032660       1.42826981       3.70773941       0.00000000      -0.00424848       0.00035826       0.00043586
N        3.80315212       3.54734086       3.96926135       0.00000000       0.00269048       0.00142166      -0.00848075
C        1.21671936       7.76930310       3.80953974       0.00000000       0.00075909       0.00182129      -0.00105053
C        0.00504229       9.95020366       3.67940463       0.00000000      -0.00085673      -0.00062060       0.00021884
C        7.41499458       1.40044339       3.59256641       0.00000000       0.00241769      -0.00134584       0.00256441
C        6.20158074       3.52579976       3.62675161       0.00000000      -0.00593036      -0.00702584       0.00404158
C        4.98355810       5.63872612       3.82194616       0.00000000       0.00083171       0.00189855      -0.00014688
C        3.69696608       7.85035305       3.82651018       0.00000000      -0.00105456       0.00117803      -0.00339787
C        2.46237216       9.94400318       3.67453243       0.00000000       0.00335690       0.00037617      -0.00097056
C        9.87218000       1.40786082       3.57882837       0.00000000       0.00290097      -0.00035187       0.00116397
C        8.64445716       3.54908921       3.53025943       0.00000000      -0.00365785       0.00813337      -0.00135727
C        7.41623990       5.69120538       3.58282491       0.00000000       0.00157234       0.00003194       0.00305162
C        6.17383378       7.83145412       3.68240946       0.00000000      -0.00256168      -0.00035856       0.00224285
C        4.94271525       9.97309156       3.66283032       0.00000000       0.00329323      -0.00145530       0.00002499
V        2.46549181       4.91525765       4.57324567       0.00000000       0.00146643      -0.00225775      -0.00538363
O        2.24757736       4.95415798       7.55129164       1.00000000      -0.00486451      -0.00306873       0.00771675
O        2.33484201       4.91105060       6.24407289       1.00000000      -0.00206032      -0.00928004      -0.00355305
