49
Lattice="12.336457 0.0 0.0 -6.168228499999997 10.683685154694365 0.0 0.0 0.0 15.0" Properties=species:S:1:pos:R:3:forces:R:3 energy=-442.45721092109153 free_energy=-442.45721092109153 stress="-0.005434881470302038 0.00021190227358758665 5.132654365347406e-06 0.00021190227358758665 0.0028371973233166704 -7.709229600381716e-07 5.132654365347406e-06 -7.709229600381716e-07 5.010266071176857e-07" pbc="T T T"
C        0.00180917       0.01925236       3.71746218       0.00440183      -0.00469421       0.00152675
C       -1.24285054       2.12873473       3.65189356      -0.00299681      -0.00325363      -0.01198104
C       -2.46950974       4.27390456       3.57089625       0.00523044      -0.00924026       0.00410207
C       -3.69401398       6.41988523       3.59656128       0.00607545       0.00690683       0.00357242
C       -4.92962338       8.56778982       3.68749456      -0.00180459       0.00318476      -0.00024739
C        2.46101939       0.04751019       3.76358091       0.00966933       0.00202017      -0.00402160
C        1.20764305       2.19688471       3.82471974       0.00429857       0.00562748       0.00552007
C       -0.03945131       4.26580375       3.76393595      -0.00491942       0.00456134      -0.00291224
C       -1.24180917       6.41876217       3.66792574       0.00674362      -0.00332303      -0.00879083
C       -2.47117876       8.56791442       3.69079888      -0.00075317       0.00028597      -0.01006090
C        4.93526198       0.00768353       3.74842424      -0.00685295      -0.00085878      -0.00025196
C        3.70259429       2.18925782       3.86489645       0.00413358       0.00261835      -0.00891890
N        1.17915535       6.36042161       3.93049104       0.00703566      -0.00532117      -0.00173486
C       -0.00199397       8.51799974       3.76892118      -0.00334053       0.00630737      -0.00208494
C        7.40186688      -0.02670005       3.71409766       0.00431851       0.01042302      -0.01052752
C        6.18715877       2.11717155       3.69182376      -0.01115740      -0.00548830       0.00079359
C        4.99605066       4.25269305       3.82620150      -0.00358502       0.00264252       0.00501884
B        3.71001415       6.36734733       4.02308417      -0.01476935      -0.00965730       0.00124559
C        2.44637913       8.50655342       3.82949960      -0.00427161      -0.00673967       0.00420016
C        9.86210212      -0.02249497       3.69583301       0.00083223       0.01354380       0.00504462
C        8.63784003       2.11949156       3.60913410      -0.01076716      -0.00212672      -0.00610101
C        7.42514615       4.26590072       3.59848482       0.01328205      -0.00958592       0.00162964
C        6.19994502       6.41599154       3.70591565       0.00525418      -0.00167800      -0.00158538
C        4.94178778       8.54742447       3.76360673      -0.00327746      -0.00071537      -0.00179509
C       -0.00479933       1.44716603       3.72163566       0.00212171      -0.00501995       0.00554706
C       -1.24645607       3.55362801       3.63047042       0.00251919      -0.00400971      -0.00807165
C       -2.46627150       5.70126445       3.58927933       0.00396364      -0.00507036       0.00167635
C       -3.69941964       7.85070257       3.65008350       0.00014141       0.00544110       0.00304227
C       -4.93137650      10.00010569       3.72449492       0.01107998      -0.00195461      -0.00005019
C        2.45116089       1.48088352       3.83728979       0.00951118       0.00386274       0.00725418
N        1.15372092       3.58435217       3.90105612      -0.01247857       0.00312082       0.00318287
C       -0.02566666       5.70090373       3.78189049       0.00716959       0.00041452       0.00080737
C       -1.24296368       7.84116569       3.70556639       0.00038356       0.00205949      -0.00452562
C       -2.47464194       9.99845448       3.74040179       0.00000785      -0.00372350      -0.00265981
C        4.93924737       1.43087217       3.76575808      -0.00689509      -0.00465415       0.00936775
C        3.76458103       3.58467222       3.96680967      -0.01076149       0.00518958      -0.00394011
C        1.21503203       7.75883477       3.85783307      -0.00490629      -0.00902095      -0.00231863
C        0.00025214       9.94981615       3.74299275      -0.00096100       0.01143098       0.01203333
C        7.41130082       1.39948060       3.65895854      -0.00901936       0.00343963      -0.00079212
C        6.21421239       3.53653804       3.67880241       0.00190765      -0.00404804      -0.00737998
C        5.00798176       5.66982236       3.83649950      -0.00104284       0.00245997      -0.00236741
C        3.69720005       7.84313479       3.85511376      -0.00238135      -0.00494355       0.01225557
C        2.45663972       9.93788306       3.73848152       0.00517961       0.00395467       0.00086097
C        9.86674424       1.40546087       3.63835399      -0.01026636       0.01437709      -0.00394778
C        8.64506463       3.54987405       3.56807374       0.00984181      -0.01250554       0.00755989
C        7.42553546       5.69942506       3.61044231       0.00779561      -0.00268131       0.01471541
C        6.18127392       7.84446716       3.71829614      -0.00282186       0.00129388      -0.00779028
C        4.93765779       9.97292690       3.71724415      -0.00423684       0.00491720       0.00640299
V        2.39604041       4.91153135       4.61320859       0.00136826       0.00023071      -0.00250250
