49
Lattice="12.336457 0.0 0.0 -6.168228499999997 10.683685154694365 0.0 0.0 0.0 15.0" Properties=species:S:1:pos:R:3:forces:R:3 energy=-432.2857261970663 free_energy=-432.2857261970663 stress="-0.00507858812674148 -0.0040144636764621894 -5.1638804485282835e-06 -0.0040144636764621894 -0.005834622587431337 -5.467373968399333e-06 -5.1638804485282835e-06 -5.467373968399333e-06 8.477558922833409e-07" pbc="T T T"
C       -0.00696595      -0.02061243       3.76133949       0.00221988       0.00659682       0.00010631
C       -1.27089621       2.10834311       3.95303931       0.00763781      -0.00145822       0.00624653
C       -2.49240578       4.25833738       3.74886023      -0.00606140      -0.00498371      -0.00698828
C       -3.67916344       6.40587282       3.52400143       0.00234875       0.00156988      -0.00096506
C       -4.91322551       8.54793853       3.53785895      -0.00121506       0.00785734       0.00620220
C        2.46958559      -0.04127368       3.79076715      -0.00187828       0.00133963       0.00851396
C        1.21242867       2.02118449       4.26062533       0.00402920      -0.00111027      -0.00201356
C       -0.13478266       4.27198345       4.35093904       0.01092020       0.00285587       0.01203930
C       -1.25018685       6.40046817       3.86728399       0.00489417       0.00847897       0.00171794
C       -2.44907527       8.53019376       3.66481036      -0.00691796      -0.01010397      -0.00026485
C        4.93457882      -0.01059127       3.67440706      -0.01084167       0.00067942       0.00901795
C        3.64845396       2.06818001       3.66584755       0.00304593       0.00451162      -0.01434237
B        1.23540624       6.40259879       4.33816834      -0.00767107      -0.00367017       0.00125535
C        0.00921889       8.53495529       3.82044922      -0.00057920      -0.00061614       0.01460049
C        7.39668061      -0.00838269       3.64940246      -0.00902701      -0.00322892       0.00513701
C        6.13924198       2.14395901       3.49704085       0.00943823      -0.00278367      -0.00311493
C        4.97962383       4.35680448       3.33933194      -0.00247302      -0.01232754      -0.00893229
N        3.80653476       6.43838284       3.65083928       0.00286538      -0.00568221       0.00626335
C        2.49176484       8.52476397       3.77923749       0.00057231       0.00210808      -0.00689787
C        9.85956372      -0.01241474       3.67830097       0.00323479       0.00730431      -0.00173626
C        8.61581843       2.12927719       3.62180906      -0.00032112      -0.01225938       0.00306488
C        7.40520493       4.27782755       3.43640864      -0.00571876       0.00251071      -0.00243252
C        6.22140565       6.45231916       3.33646449      -0.00599043      -0.00007803      -0.00159877
C        4.95455487       8.55035820       3.54034598       0.00703431       0.00798173      -0.00157672
C       -0.02636649       1.38676543       4.01048020       0.00394458      -0.00299597       0.00451932
C       -1.29683669       3.52964938       4.02372003       0.00535140       0.00025714       0.00074641
C       -2.47113110       5.68529414       3.69736981       0.00669923       0.00239316      -0.00540202
C       -3.67888682       7.82796556       3.55898087      -0.00713956      -0.00203505       0.00174152
C       -4.93528150       9.95379844       3.70124780      -0.00054063       0.00770871       0.01005145
C        2.45035573       1.36273584       3.96443922       0.00268459       0.00266559      -0.00595637
P        1.21262860       3.51777406       5.19489688      -0.00019271      -0.00975965      -0.00849798
C       -0.06862572       5.67883439       4.18583152      -0.00061713       0.01061459       0.00485296
C       -1.22138522       7.81841741       3.77998017       0.00100187       0.00365476      -0.00297908
C       -2.45755520       9.95123646       3.69910913      -0.00815504      -0.01002636       0.00822676
C        4.91013090       1.42649905       3.60183344       0.00490203       0.00635548      -0.00991418
S        3.41066977       3.67725580       3.06792697      -0.00085440      -0.00085338       0.00170631
C        1.25722460       7.84290783       3.96182844       0.00357615      -0.00747428      -0.00213793
C        0.00103773       9.96161881       3.69821144      -0.01218926      -0.00209347      -0.00046095
C        7.37507783       1.42507853       3.56922513       0.00158190      -0.01058246       0.00040789
C        6.15431306       3.57453703       3.39676744       0.00379746      -0.00468613      -0.00001977
C        4.99451065       5.77629070       3.36865073      -0.00338564      -0.01019470       0.00420749
C        3.73816850       7.81338677       3.66309760       0.00715750      -0.00275530      -0.00218222
C        2.46911645       9.95722736       3.67909757      -0.00196585       0.00874502      -0.00705462
C        9.84815653       1.41166819       3.73990316       0.00840564       0.00293098      -0.01045462
C        8.62217970       3.55373449       3.58320574      -0.01166692      -0.00946171       0.00501354
C        7.42951726       5.70260586       3.39867495      -0.00335250       0.00541890      -0.00770498
C        6.19575962       7.86058297       3.44063491       0.00298772       0.00401612      -0.00178863
C        4.93176475       9.96333413       3.64843382       0.00297669       0.00996710       0.00473059
V        2.84948625       5.18887710       4.83359399      -0.00455311       0.01269877      -0.00495268
