50
Lattice="12.336457 0.0 0.0 -6.168228499999997 10.683685154694365 0.0 0.0 0.0 15.0" Properties=species:S:1:pos:R:3:forces:R:3 energy=-438.6022813610882 free_energy=-438.6022813610882 stress="-0.004312052612768424 -0.0029148461590786682 1.275975725066803e-05 -0.0029148461590786682 -0.007226913910674625 -5.157070421227316e-06 1.275975725066803e-05 -5.157070421227316e-06 1.2599059136120444e-06" pbc="T T T"
C       -0.02293412      -0.02822436       3.79012719       0.00465414      -0.00063986       0.00084864
C       -1.27872180       2.10632978       3.96882508      -0.01271360       0.00439856      -0.00337811
C       -2.49961513       4.25379690       3.77347787       0.00182789       0.00367495      -0.00139428
C       -3.69416398       6.39557174       3.58058186       0.00425935      -0.00047137      -0.00543960
C       -4.93222337       8.53486696       3.60302291      -0.00103262       0.00063792      -0.00354234
C        2.45252268      -0.05111509       3.81687653       0.00486086      -0.00103784      -0.00282191
C        1.20202260       2.02310329       4.26627846      -0.00368925      -0.00732753       0.00049546
C       -0.12756675       4.26711239       4.36126032       0.00106557      -0.00068304       0.00232524
C       -1.24864587       6.39096447       3.88522767      -0.00648282       0.00402325      -0.00723511
C       -2.46854331       8.51963566       3.70730139       0.00351643       0.00077721      -0.00657634
C        4.91549946      -0.01857652       3.67549222      -0.00543835      -0.00718861       0.00068385
C        3.63580464       2.04953630       3.63979865       0.00892648       0.00114455       0.00629728
B        1.27018238       6.40156257       4.26021329      -0.00324915       0.01125954      -0.00089650
C       -0.01280060       8.53505219       3.81466941       0.00081655      -0.00167898      -0.00182242
C        7.37541403      -0.00414027       3.64540991       0.00115084      -0.00472469       0.00191796
C        6.12660291       2.13236107       3.47272580       0.00334539       0.00039208       0.00327488
C        4.97641126       4.32452275       3.28832286      -0.00536146       0.00148065       0.00076999
C        3.74515736       6.42575077       3.57333565      -0.00746212      -0.00934864      -0.01179914
C        2.45803484       8.55006990       3.75758104       0.00342980       0.00311993       0.00753370
C        9.84491050      -0.00827265       3.69262481       0.01212706      -0.00012697      -0.00895542
C        8.60436666       2.12651312       3.63132731       0.00477246       0.00161778      -0.00724722
C        7.39651223       4.26805916       3.45087273       0.00573977      -0.00183676       0.00264750
C        6.20294139       6.43350030       3.38755707       0.00398115       0.00474668       0.00210794
C        4.93335164       8.54786742       3.57405896      -0.01601442      -0.00429470       0.00264416
C       -0.03877008       1.38058160       4.02125851      -0.01045584       0.00137930       0.00130716
C       -1.30180543       3.52725717       4.03782379      -0.00635140       0.00242516       0.00401512
C       -2.47857699       5.67869872       3.73503053       0.00128138       0.00194151      -0.00790058
C       -3.69940217       7.81686157       3.61988326       0.00381796      -0.00003777       0.00167081
C       -4.95285396       9.94145998       3.74450986       0.00654764      -0.00010551       0.00834940
C        2.43754984       1.35709297       3.96255915       0.00445576      -0.00217135       0.00357667
P        1.14174494       3.46507628       5.28770690       0.00321659      -0.00626319       0.00898008
C       -0.04887836       5.67063626       4.17290480      -0.00475918       0.00348090      -0.00365314
C       -1.23741254       7.81022475       3.79932987       0.00116358       0.00167157      -0.00037896
C       -2.47635961       9.94109645       3.72648417      -0.00258933      -0.00286313      -0.00483873
C        4.89607865       1.41469805       3.57678490       0.00517849      -0.00682745       0.00936474
S        3.41092074       3.65748776       3.05059408      -0.00324988      -0.00132143      -0.00459981
C        1.23438198       7.85458993       3.92343105       0.00335894       0.00730025       0.00214770
C       -0.01882691       9.96069252       3.69497961      -0.00500202      -0.00560639       0.00854685
C        7.36199671       1.42317386       3.56412692       0.00380821      -0.00057363       0.00004403
C        6.15184606       3.55470808       3.36698179      -0.00213098       0.00506378       0.00138420
C        4.95584969       5.74003376       3.37052033       0.00527378       0.00300971       0.00713081
C        3.69033949       7.82240912       3.64937476      -0.01263497      -0.01323753       0.00331738
C        2.44659465       9.97200897       3.67746881       0.01050171       0.00171056       0.00152813
C        9.83759580       1.41196909       3.75347215      -0.00176450      -0.00073002      -0.00413019
C        8.61297234       3.54894574       3.60235933       0.00705564       0.00133478       0.00029521
C        7.41253745       5.69414758       3.44638498       0.00461028      -0.00055103       0.00172448
C        6.17399510       7.84368150       3.50118031      -0.01064831       0.00546269      -0.00107804
C        4.91557036       9.95896766       3.67795522       0.00646560      -0.00444460      -0.00259902
V        2.86888891       5.17570163       4.94514980      -0.00577962       0.01320960       0.00182476
O        3.58310108       5.31948480       6.38533508      -0.00439945      -0.00117094      -0.00646727
