50
Lattice="12.336457 0.0 0.0 -6.168228499999997 10.683685154694365 0.0 0.0 0.0 15.0" Properties=species:S:1:pos:R:3:forces:R:3 energy=-446.25320941408694 free_energy=-446.25320941408694 stress="-0.004469026392995513 -1.046231247472018e-06 -6.179415103718958e-06 -1.046231247472018e-06 -0.004081200748285345 -3.64875736673702e-07 -6.179415103718958e-06 -3.64875736673702e-07 1.1438586625235728e-05" pbc="T T T"
C        0.00781034       0.01087452       3.69896870      -0.00732606      -0.00691155      -0.00858692
C       -1.23095102       2.13384685       3.66763939      -0.00489532      -0.00116613      -0.01680393
C       -2.46005410       4.26996547       3.58762704      -0.00359669       0.00033285       0.00974425
C       -3.69126087       6.40883168       3.58265123      -0.00272434       0.00441813       0.00424667
C       -4.92886334       8.54759124       3.64803371       0.00002751       0.00762371      -0.00173658
C        2.46710102      -0.00930033       3.71880522       0.00138610      -0.00038345      -0.01558886
C        1.24347283       2.16064645       3.84396295       0.00217851      -0.00580507      -0.00023168
C       -0.00355270       4.26542792       3.78874774      -0.00008542       0.00624716       0.00078363
C       -1.23744484       6.41361831       3.65169633       0.00232577      -0.00317570      -0.00799487
C       -2.46471654       8.54491801       3.63755180      -0.00711062      -0.00475736       0.00226040
C        4.94435156      -0.01527259       3.69415476      -0.00926030      -0.00091464       0.00560497
C        3.70255725       2.09164976       3.85243597       0.01234611       0.00305124       0.00695833
C        1.20816222       6.39260372       3.95269770       0.00184562       0.00533882      -0.00314663
C        0.00588295       8.53220680       3.73033435      -0.00666738       0.00697799       0.00280425
C        7.40543615      -0.00404667       3.68661221      -0.00108595      -0.00414562      -0.00496159
C        6.17765744       2.12755452       3.69314653       0.00654232      -0.00765014       0.00027890
C        4.97969442       4.27935107       3.85816265       0.00478140       0.00147516       0.00465453
B        3.66849396       6.40024026       4.06980861      -0.00120872      -0.00120402       0.01877573
C        2.46372657       8.55691785       3.81807593       0.01042789      -0.00193267       0.00281388
C        9.87292261       0.00148477       3.68036332      -0.00507987       0.00456445       0.00458575
C        8.64078077       2.13238600       3.61195760      -0.00627433      -0.00273319      -0.00521026
C        7.41978691       4.26997125       3.61211298       0.00050147      -0.00042386      -0.00413206
C        6.18729484       6.41617612       3.69979960       0.00430098       0.00456448      -0.00175601
C        4.94641075       8.55693661       3.74035167       0.00776776       0.00484577       0.01409462
C        0.00584969       1.43424793       3.73021196      -0.00641697      -0.00700459       0.00241182
C       -1.23746936       3.55285671       3.65142473       0.00282734       0.00306841      -0.00802587
C       -2.46003948       5.69652449       3.58791252      -0.00388609      -0.00029318       0.00839654
C       -3.69566656       7.83411248       3.61219795      -0.00605350       0.00244170      -0.00520802
C       -4.93099002       9.97051353       3.68656462      -0.00204273       0.00440177      -0.00498854
C        2.46369322       1.40954609       3.81769131       0.01109553       0.00213724       0.00281948
C        1.20818280       3.57380712       3.95252124       0.00119057      -0.00503257      -0.00329158
C       -0.00354804       5.70095852       3.78882985      -0.00011618      -0.00480962       0.00114696
C       -1.23094179       7.83264974       3.66792455      -0.00475530       0.00040555      -0.01711802
C       -2.46351554       9.96504228       3.68026814      -0.00524592      -0.00560211       0.00417771
C        4.94640883       1.40955305       3.73992985       0.00752347      -0.00454699       0.01435159
B        3.66840355       3.56623583       4.06940285      -0.00043061       0.00115792       0.01892863
C        1.24350910       7.80577961       3.84418972       0.00164698       0.00602479      -0.00014074
C        0.00779758       9.95557853       3.69892882      -0.00660903       0.00721895      -0.00842713
C        7.40759161       1.41888711       3.64791311      -0.00019800      -0.00750861      -0.00211291
C        6.18727074       3.55032687       3.69967867       0.00431421      -0.00470399      -0.00209336
C        4.97972906       5.68716423       3.85830100       0.00467943      -0.00218161       0.00450268
C        3.70259053       7.87481590       3.85291705       0.01204284      -0.00225974       0.00693544
C        2.46708822       9.97579352       3.71912564       0.00179704       0.00005410      -0.01636411
C        9.87173576       1.42160941       3.63733225      -0.00748496       0.00351178       0.00253218
C        8.64518263       3.55765716       3.58236761      -0.00276932      -0.00421946       0.00469334
C        7.41979501       5.69651098       3.61211726       0.00060947       0.00086594      -0.00319079
C        6.17765715       7.83893972       3.69344060       0.00691583       0.00773510      -0.00006691
C        4.94433761       9.98176527       3.69439717      -0.00927355       0.00082932       0.00544187
V        2.35313069       4.98314940       4.92951646       0.00284626      -0.00010782       0.00252308
O        2.21207559       4.98281307       6.52727595      -0.00132326       0.00018140      -0.01528984
