50
Lattice="12.336457 0.0 0.0 -6.168228499999997 10.683685154694365 0.0 0.0 0.0 15.0" Properties=species:S:1:pos:R:3:forces:R:3 energy=-446.3095393147234 free_energy=-446.3095393147234 stress="-0.004170259412058 0.0006264400397846075 -6.076381445386989e-06 0.0006264400397846075 -0.001999220237300153 1.1939254634140722e-05 -6.076381445386989e-06 1.1939254634140722e-05 -1.6635028988427577e-05" pbc="T T T"
C       -0.00568876      -0.01332007       3.70980823      -0.00130056       0.00351120      -0.00267886
C       -1.24098403       2.12629155       3.69998409      -0.00125683       0.00071733       0.00067223
C       -2.49026461       4.27040764       3.59732717      -0.00100120      -0.00527666       0.00426888
C       -3.71144589       6.41126325       3.57389513      -0.00032118       0.00085218       0.00518143
C       -4.93544652       8.54919556       3.64373262       0.00790182       0.00846793      -0.00785944
C        2.47631642       0.00876069       3.73285090       0.00358862      -0.00412267      -0.00505508
C        1.23829186       2.10144550       3.89168497       0.00678546      -0.00288923       0.00638814
C       -0.06980254       4.28442329       3.88448886      -0.00195923      -0.00488930       0.00255390
C       -1.25528508       6.41960642       3.71866386      -0.00179976       0.00665962       0.00126195
C       -2.47279348       8.55256646       3.66135709      -0.00470349       0.00735061      -0.00100376
C        4.93143929       0.01132849       3.70012661      -0.00169907       0.00834007       0.00147932
C        3.72294563       2.17915450       3.85065268      -0.00280487      -0.01100358       0.00744039
B        1.27411750       6.38762459       4.10250610       0.00139685      -0.00890993      -0.00024883
C       -0.00941202       8.55272954       3.77157459       0.00118749       0.00085030      -0.00264522
C        7.40267051      -0.00534214       3.67813753       0.00249643       0.00359165      -0.00234244
C        6.17182406       2.12888116       3.63343345      -0.00139957       0.00192854      -0.00608821
C        4.94807579       4.24000856       3.76036760      -0.00037544      -0.01141099       0.00883291
C        3.72200318       6.37756498       3.92158717      -0.00638298      -0.00244076       0.00169138
C        2.47167581       8.54758994       3.82638984       0.00048931       0.00222350      -0.00502591
C        9.86865364      -0.00974840       3.68270743       0.00365775       0.00350477      -0.00628745
C        8.63503504       2.12876892       3.58758499      -0.00185804       0.00063421      -0.00000257
C        7.39464263       4.26859214       3.55293423       0.00056961       0.00032051       0.00143949
C        6.16818966       6.40524423       3.63332287      -0.00103194       0.00340051      -0.00560383
C        4.93072285       8.52859666       3.72509717       0.00004778      -0.00894999      -0.00482028
C       -0.00850837       1.41167853       3.76458421       0.00118861       0.00598224       0.00199109
C       -1.26414928       3.54899463       3.70367616      -0.00135181      -0.00449267      -0.00036121
C       -2.48719983       5.69910270       3.60788260      -0.00130657      -0.00095262       0.00695907
C       -3.70548453       7.83781852       3.61529511       0.00105089       0.00344541       0.00458726
C       -4.93174218       9.97329849       3.69635570       0.00231284       0.00559900      -0.00442118
C        2.48946205       1.43678351       3.83865691      -0.00027261      -0.01281081       0.00259002
B        1.20106671       3.55262673       4.12944882      -0.00674091      -0.00303480       0.00388495
C       -0.04860968       5.69270867       3.88883143      -0.00191208       0.00174392       0.00241697
C       -1.24456674       7.84119513       3.71682217      -0.00469447       0.00824382      -0.00088579
C       -2.46809569       9.97803776       3.69722552       0.00238950       0.00193772      -0.00569072
C        4.93779993       1.43851484       3.71304909      -0.00400145       0.00438450       0.00693751
N        3.78163762       3.55447726       3.97431454       0.00893779      -0.01358381      -0.00299860
C        1.23317206       7.86711807       3.88800566       0.00293288      -0.00522944      -0.00138316
C       -0.00504929       9.97755950       3.70604733      -0.00121650       0.00543484       0.00202676
C        7.40365418       1.41677874       3.61410542      -0.00055346       0.00190219      -0.00303988
C        6.17036247       3.54554315       3.60870467       0.00461966      -0.00058392      -0.00252494
C        4.92910761       5.68101435       3.76460614      -0.01208444       0.00201990       0.00649205
C        3.69228088       7.79569995       3.83326324      -0.00415706      -0.00216234       0.00161847
C        2.47049248       9.96728041       3.71853528       0.00432304       0.00550511      -0.00579263
C        9.86694636       1.41405438       3.63878347      -0.00264919       0.00289548      -0.00031468
C        8.62550719       3.55476312       3.55356929      -0.00134659      -0.00107249       0.00308865
C        7.39268041       5.69482042       3.56540821      -0.00189180       0.00288254       0.00316269
C        6.16600204       7.82934819       3.66069683       0.00814908       0.00121811      -0.01329234
C        4.93050812       9.95331112       3.70115423       0.00146592      -0.00653000      -0.00020656
V        2.60680343       4.92415490       4.85165267       0.00271864       0.01270495      -0.01185508
O        2.61279993       5.07190434       6.45568100       0.00386311      -0.00790669       0.01546311
