50
Lattice="12.336457 0.0 0.0 -6.168228499999997 10.683685154694365 0.0 0.0 0.0 15.0" Properties=species:S:1:pos:R:3:forces:R:3 energy=-446.29938659780197 free_energy=-446.29938659780197 stress="-0.0042855822659728935 -0.0013959734064361816 1.3516664702603435e-05 -0.0013959734064361816 -0.002978589438710762 1.1817023166821848e-05 1.3516664702603435e-05 1.1817023166821848e-05 3.7005099671918418e-06" pbc="T T T"
C       -0.00390952       0.00118486       3.72796997       0.00059558       0.00002398      -0.00053385
C       -1.24398190       2.12156558       3.68784097      -0.00413508      -0.00070142      -0.00147054
C       -2.46741782       4.26533605       3.61952470      -0.00181588       0.00131306      -0.00021098
C       -3.69290375       6.41030512       3.62084571       0.00119698       0.00781858      -0.00909877
C       -4.92857282       8.55194876       3.67697400      -0.00137268       0.00485556       0.00124929
C        2.45545740       0.00488004       3.71796927       0.00187921      -0.00497799       0.00516367
C        1.20768998       2.17062685       3.87023171      -0.00289860       0.00124826       0.00193988
C       -0.02092355       4.22052211       3.82280594       0.00216884      -0.00397427      -0.00447465
C       -1.22861539       6.39675410       3.68407824      -0.00262974      -0.00191370      -0.00061741
C       -2.46475526       8.54704682       3.63769229      -0.00110221      -0.00840270       0.00611823
C        4.93235311      -0.00236508       3.65424477      -0.00430943      -0.00251777      -0.00700200
C        3.68678644       2.10255822       3.83028262      -0.00270160      -0.00239694       0.00295292
B        1.26561262       6.39992760       3.97030451      -0.00564002       0.00065429       0.00231600
C       -0.00526023       8.55111138       3.67663491       0.00048239       0.00598375       0.00377316
C        7.40036050      -0.00017674       3.63935985       0.00427209      -0.00179778      -0.00024034
C        6.16649045       2.13688280       3.66598757       0.00562606      -0.00303548       0.00138830
C        4.99035938       4.30240240       3.84943174       0.00435576       0.00413654      -0.00306513
C        3.71350101       6.38867518       3.98677409      -0.00810398      -0.00665398       0.00156823
C        2.47376422       8.55581878       3.78248835       0.00727802       0.00063373      -0.00213318
C        9.86802491      -0.00674735       3.68485241      -0.00057365       0.00321691       0.00071343
C        8.63278986       2.13240181       3.60672661       0.00002930      -0.00075045       0.00046348
C        7.41588621       4.27673000       3.62436239       0.00483065       0.00179358       0.00619804
C        6.18886690       6.42774862       3.72335542       0.00633502       0.00545081      -0.00665297
C        4.93407136       8.53629929       3.77054738      -0.00101464      -0.00148754       0.00233104
C       -0.00966176       1.42790708       3.75504684      -0.00249768       0.00153867      -0.00034462
C       -1.24755911       3.53308882       3.68002142      -0.00034649      -0.00180174      -0.00412186
C       -2.46587772       5.69095685       3.62608040      -0.00359555       0.00240971      -0.00312193
C       -3.69793146       7.83655708       3.63772588      -0.00423858       0.00437058       0.00134547
C       -4.93776633       9.97369311       3.70779959       0.00162942       0.00108070       0.00270787
C        2.44102595       1.43076605       3.81791573      -0.00409630      -0.00259027       0.00216858
N        1.15853430       3.54378137       3.99753829       0.00423283       0.00119623       0.00311825
C       -0.01404283       5.64780050       3.81761633      -0.00289884      -0.00393323      -0.00189623
C       -1.23161734       7.82836074       3.66003807       0.00182257      -0.00359472       0.00570195
C       -2.47286906       9.97466903       3.66379508      -0.00128736      -0.01017061       0.00171399
C        4.93473775       1.42078761       3.70620715       0.00042855      -0.00097825      -0.00320514
B        3.73761997       3.55396069       4.04732469       0.00190413       0.00331153       0.00449537
C        1.23899462       7.87456276       3.77378268       0.00292570       0.00835750       0.00444336
C       -0.00375461       9.97522771       3.63995914      -0.00175438       0.00603898      -0.00063126
C        7.39802632       1.42355472       3.61828422       0.00612062      -0.00448264       0.00205427
C        6.18623448       3.56292771       3.69229455       0.00519531      -0.00082629       0.00127202
C        4.94896895       5.72205278       3.85980652      -0.00029972       0.00622684      -0.01056599
C        3.69300721       7.80070085       3.85997145       0.00096402      -0.00532968      -0.00328187
C        2.46907397       9.97349395       3.68908590       0.00473726       0.00062205       0.00246279
C        9.86270583       1.41469520       3.64340936      -0.00324674       0.00188236      -0.00026280
C        8.63657535       3.55766845       3.59621567       0.00065613      -0.00095628       0.00204333
C        7.41076945       5.70401038       3.64428391       0.00743699       0.00390417      -0.00027933
C        6.17622810       7.84148204       3.72323737       0.00174078       0.00444352      -0.00212438
C        4.93163002       9.95980126       3.72507762      -0.00103291       0.00068316      -0.00121884
V        2.40016329       4.91824564       4.81141004      -0.01403428      -0.00243039      -0.00023277
O        2.42170270       5.03424050       6.41339471      -0.00321785      -0.00749093      -0.00291610
