52
Lattice="12.336457 0.0 0.0 -6.168228499999997 10.683685154694365 0.0 0.0 0.0 15.0" Properties=species:S:1:pos:R:3:forces:R:3 energy=-454.5889849253811 free_energy=-454.5889849253811 stress="0.0012700286286149508 -0.0007967618544506025 5.5687122635898016e-05 -0.0007967618544506025 -0.0019529366182283183 -1.9078124097999623e-07 5.5687122635898016e-05 -1.9078124097999623e-07 1.1461119451884657e-05" pbc="T T T"
C        0.00894690      -0.01703056       3.66679960      -0.00181955       0.00564232       0.00155748
C       -1.22276631       2.12702093       3.75423303       0.00725831       0.00336579      -0.00235341
C       -2.45595953       4.25530324       3.71576309      -0.00042088      -0.00930312       0.00271012
C       -3.69816419       6.38867858       3.61164996       0.00058598      -0.01814510      -0.00707554
C       -4.92859883       8.52324197       3.58534341       0.00170583       0.00127216       0.00094770
C        2.47419475      -0.05043475       3.61897158      -0.00304782       0.01106404       0.01588571
C        1.26322879       2.09089702       3.79491542       0.00370678       0.00204338      -0.00331722
C        0.04392238       4.27147950       3.89789527      -0.00745511       0.00263037      -0.00364899
C       -1.24433047       6.39737173       3.70812230      -0.00138619      -0.00115359      -0.00107729
C       -2.45905811       8.52117717       3.60108350      -0.00521252       0.00281515      -0.00099891
C        4.93950028      -0.01997359       3.67072574       0.00004949       0.00145915       0.00233321
C        3.68134929       2.08972558       3.78325600      -0.00204664       0.00505110      -0.00015694
C        1.18547126       6.42039762       3.99726045       0.00555949      -0.00097742       0.00316513
C        0.00731810       8.53147970       3.73635710       0.00451881      -0.00031931      -0.01166785
C        7.40764792      -0.01323991       3.73448738       0.00278093       0.00046035       0.00231632
C        6.15938880       2.13369688       3.73798753      -0.00565260      -0.00103327       0.00361868
C        4.87979057       4.30012123       3.86277259       0.01129773      -0.00642269       0.00540048
N        3.79715257       6.44261968       4.03967491       0.00077725       0.00619304      -0.01359620
C        2.48861900       8.52110526       3.85325737      -0.00196757       0.00322379       0.00851102
C        9.87621537      -0.01198661       3.73551714       0.00344513      -0.00490157      -0.01247195
C        8.63713603       2.12683945       3.71798417      -0.00136774       0.00276868       0.01765693
C        7.38724633       4.25960020       3.69581259       0.00327400       0.00150196       0.00214404
C        6.17701448       6.40801863       3.66356910      -0.00115714      -0.00174786       0.00237622
C        4.94834399       8.53199698       3.71371081       0.00135829      -0.00352783      -0.00559005
C        0.01553936       1.41380253       3.73557632       0.00574960       0.00781190       0.00114490
C       -1.20145229       3.55092182       3.78491638      -0.00253676      -0.00001133       0.00022930
C       -2.46648015       5.67852859       3.66771532       0.00243263      -0.01536685      -0.00136504
C       -3.69348941       7.81034262       3.58076427      -0.00134970      -0.01108071      -0.00164290
C       -4.93178187       9.94302481       3.60891090      -0.00380507       0.00968548       0.00209786
C        2.47240391       1.36359074       3.72060103       0.00196680       0.00691132       0.00259802
B        1.45687139       3.60545638       3.99434764      -0.00617259      -0.00298625      -0.00171903
C       -0.00835285       5.69241495       3.87287966       0.00068357       0.00224810      -0.00028929
C       -1.22760910       7.81661402       3.66968146      -0.00198060       0.00251362      -0.00012475
C       -2.45572000       9.94028278       3.61578482      -0.00401615       0.00725093      -0.00203148
C        4.92922844       1.41267592       3.72588523      -0.00685781       0.00067904      -0.00390580
B        3.48687387       3.60234493       3.97843377       0.00363342       0.00151517      -0.00637489
C        1.24569028       7.80688934       3.87077802       0.00276545      -0.00146150      -0.00059013
C        0.00549444       9.95462485       3.70757031       0.00550370       0.00047034      -0.00787542
C        7.39860219       1.41640441       3.72165882      -0.00496389       0.00268538       0.00515959
C        6.12848865       3.56409307       3.75683464       0.01001113      -0.00178632       0.00572400
C        4.95016252       5.72584377       3.83410524      -0.00028159      -0.00236500      -0.00193329
C        3.73431005       7.80512695       3.87029196      -0.00206303       0.00923329       0.00359849
C        2.47781557       9.94952388       3.76743454       0.00055395      -0.00079683       0.00522870
C        9.87665232       1.41573344       3.72925001       0.00539986      -0.00176366      -0.00380651
C        8.63498372       3.55134149       3.70200967      -0.00207690       0.00143168       0.00886425
C        7.40181800       5.68034702       3.64218006      -0.00260816      -0.00389212       0.00454824
C        6.17574926       7.82252780       3.63928251       0.00272061      -0.00293586      -0.00408623
C        4.94274896       9.95840092       3.69836144       0.00384250      -0.00681836      -0.00215843
V        2.51660997       5.25218004       4.88579910       0.00201377       0.00057100      -0.00470370
O        2.40833223       5.35211396       6.55844931       0.00896242      -0.00714418      -0.00193617
O        2.29681196       5.22181659       7.97130171      -0.01650515      -0.00113878       0.00159224
H        3.23789094       5.26866158       8.23302775      -0.01580622       0.00458097      -0.00291118
