52
Lattice="12.336457 0.0 0.0 -6.168228499999997 10.683685154694365 0.0 0.0 0.0 15.0" Properties=species:S:1:pos:R:3:forces:R:3 energy=-454.4104743126999 free_energy=-454.4104743126999 stress="0.0002602067623658989 8.625145551418802e-06 1.5183269768490842e-05 8.625145551418802e-06 -0.0038596281874566565 4.10809409357883e-05 1.5183269768490842e-05 4.10809409357883e-05 -4.009972336739294e-05" pbc="T T T"
C        0.00149082       0.01319433       3.70811846      -0.00326404       0.00091105      -0.00646492
C       -1.22992482       2.15210712       3.66245961      -0.00143030      -0.00062194      -0.00683338
C       -2.46310020       4.29143397       3.67128018      -0.00065295       0.00026862      -0.00282324
C       -3.69769254       6.41822382       3.72785647      -0.00053916       0.00111615      -0.00625620
C       -4.93670326       8.55185770       3.73931611       0.00304913       0.00715675       0.00110709
C        2.47052881       0.00492057       3.77665894       0.00276060       0.00404462      -0.00485932
C        1.23835199       2.15181778       3.85689473       0.00164026       0.00463384      -0.00196786
C        0.00135776       4.27190582       3.84336161      -0.00602568      -0.00214487       0.00866550
C       -1.19919256       6.41789065       3.77482392      -0.00506792      -0.00082564      -0.00365489
C       -2.45863758       8.55239380       3.73991823      -0.00112341      -0.00658927       0.00182098
C        4.94031316       0.01262091       3.71290261      -0.00389764       0.00505172       0.00180336
C        3.70310046       2.15124999       3.86248262       0.00086559       0.00337057       0.00376964
B        1.44812232       6.37275498       3.96793347       0.00961933      -0.00439479       0.00477586
C        0.01336051       8.55950759       3.72544769       0.00005266       0.00589457       0.00831209
C        7.40096882       0.03209706       3.62048148       0.00468358      -0.00717019       0.00266887
C        6.17129834       2.15157511       3.67120949       0.00632836       0.00434956      -0.00407163
C        4.94032297       4.27172093       3.85114599       0.00021414      -0.00440590       0.00313187
B        3.49314277       6.37291688       3.96787142      -0.00296978       0.00229825       0.00789193
C        2.47065898       8.61039150       3.71081679      -0.00005047       0.00150978       0.00022231
C        9.87674565       0.03186379       3.61872877      -0.00129561       0.00289017      -0.00671757
C        8.63899305       2.16184413       3.59395152      -0.00460053      -0.00266444       0.01218921
C        7.40388573       4.29128223       3.67639865       0.00911449       0.00123227      -0.00153242
C        6.14015649       6.41785122       3.77854559       0.00623186      -0.00308753      -0.01008680
C        4.92810740       8.56013983       3.72546018      -0.00173737      -0.00254718       0.00377482
C        0.00074168       1.43509388       3.72786347       0.00005847       0.00210667       0.00332208
C       -1.23857553       3.57119523       3.69176703      -0.00327656      -0.00209960       0.00289641
C       -2.45316236       5.71318796       3.72454494      -0.00442038       0.00072783      -0.00748253
C       -3.69756166       7.84185393       3.74049114      -0.00241157       0.00016425      -0.00131513
C       -4.93323430       9.97680156       3.74416636       0.00082136       0.00893025      -0.00506109
C        2.47064064       1.42589077       3.85021098       0.00206426       0.00539875      -0.00227299
C        1.20375910       3.55054234       3.96984218       0.00174886       0.00534141       0.00256334
C        0.04441237       5.69492043       3.87086491      -0.00635028      -0.00350587       0.00461937
C       -1.22088685       7.84257414       3.75091318       0.00057985      -0.00087153      -0.00096328
C       -2.46189458       9.97721692       3.74703783      -0.00165839      -0.00441285      -0.01108778
C        4.94084228       1.43429849       3.73697191       0.00139713       0.00802190      -0.01083513
C        3.73802396       3.54977114       3.97770656      -0.00350958       0.00102690       0.00388861
C        1.26132838       7.88327023       3.77308377       0.00025374       0.00322339       0.00728820
C        0.00557322       9.99052039       3.67376642      -0.00114190       0.00554173      -0.00358008
C        7.40483464       1.45034282       3.60832373       0.00024769      -0.00764003      -0.00384408
C        6.17971487       3.57070979       3.70116281       0.00689127       0.00432654      -0.00435148
C        4.89684666       5.69468651       3.87376986       0.00274687      -0.00379779       0.00673134
C        3.68019728       7.88362088       3.77398870      -0.00251419       0.00147598       0.00010151
C        2.47052057      10.02445142       3.62271767       0.00457172      -0.00221741      -0.00126848
C        9.87309516       1.45010906       3.60365819      -0.00381243       0.00195108       0.00116277
C        8.63861476       3.58381110       3.62965542       0.00284641      -0.00225519       0.00387660
C        7.39408949       5.71310557       3.72902641       0.00831477      -0.00053614      -0.01724885
C        6.16181735       7.84250164       3.75142289       0.00475110       0.00034154       0.00267423
C        4.93615256       9.99104432       3.67025073      -0.00436962      -0.00124940       0.00524939
V        2.46981465       4.76820278       4.92364754      -0.00961253      -0.01139245       0.00349258
O        2.44707245       4.53708016       6.58382857      -0.00520000      -0.00731102       0.00266128
O        2.32155156       4.44961977       7.98642106      -0.00038035      -0.01166601       0.00783528
H        3.21024165       4.74026899       8.27230559      -0.00054088       0.00010089       0.00608259
