50
Lattice="12.336457 0.0 0.0 -6.168228499999997 10.683685154694365 0.0 0.0 0.0 15.0" Properties=species:S:1:pos:R:3:forces:R:3 energy=-443.6851644179806 free_energy=-443.6851644179806 stress="0.0012348644899143394 0.0007038173463239873 2.9781816266004355e-07 0.0007038173463239873 -0.006287581327006162 -6.874433599312801e-06 2.9781816266004355e-07 -6.874433599312801e-06 -1.788172165058461e-05" pbc="T T T"
C       -0.00996028      -0.01160285       3.65784523      -0.00120885      -0.00350066       0.00087485
C       -1.23062034       2.14885165       3.66785592      -0.00327518      -0.00612689       0.00430393
C       -2.47185517       4.28497807       3.66414640       0.00049699       0.00307871       0.00418154
C       -3.71291337       6.40465853       3.68139424       0.00222222       0.00291394      -0.00047390
C       -4.95108365       8.52892012       3.67514894       0.00585732      -0.00321722      -0.00578613
C        2.46506161      -0.03245296       3.72002640       0.00136274      -0.00457297       0.00033173
C        1.23994227       2.07830659       3.81802601       0.00286420       0.00310866       0.00697280
C       -0.01035184       4.29445083       3.83926075       0.00004455       0.00183354       0.00251073
C       -1.21105970       6.41479367       3.74270885      -0.00032635       0.00139330       0.00149624
C       -2.46934557       8.53428225       3.69478593       0.00126546      -0.00586497       0.00152679
C        4.93078649       0.00153387       3.70302094       0.00064525      -0.00103757      -0.00349101
C        3.68804119       2.13365186       3.84339482      -0.00491397       0.01198635      -0.00466868
B        1.44959213       6.37808875       3.97209967       0.00111122       0.00913122       0.00190952
C        0.00280726       8.55472368       3.72483879      -0.00238013      -0.00074727      -0.00248582
C        7.39168908       0.03001768       3.63641172       0.00064357      -0.00554925      -0.00007644
C        6.15967563       2.14404010       3.68283926       0.00194740      -0.00310841      -0.00314566
C        4.91049375       4.25842938       3.81728725      -0.00233787       0.00378411       0.00222812
B        3.47699075       6.37379029       3.90189141      -0.01351423       0.00816474      -0.00394517
C        2.45957041       8.61245749       3.69927865       0.00139387       0.00501220       0.00184435
C        9.86906885       0.02927696       3.61178694      -0.00270359      -0.00068454      -0.00965264
C        8.63167655       2.15688651       3.61556886      -0.00081240      -0.00646096      -0.00321792
C        7.38763880       4.27913222       3.66688719       0.00438699      -0.00079536      -0.00675417
C        6.12060923       6.40057990       3.72252288       0.00180364       0.00152265       0.00268577
C        4.91506930       8.54785437       3.67261570       0.00080799      -0.00064680      -0.00596883
C       -0.00759575       1.41465960       3.70209106       0.00228561      -0.00302975      -0.00196419
C       -1.23212556       3.57136946       3.70172468      -0.00284812      -0.00171886       0.00360930
C       -2.46406297       5.70475099       3.69157529       0.00092950       0.00514625       0.00580609
C       -3.70980866       7.82470035       3.68199444       0.00348704      -0.00200018       0.00933850
C       -4.94494977       9.95093847       3.67935604       0.00059466      -0.00510717       0.00132319
C        2.46955820       1.38449326       3.80425087       0.00164114       0.00256256       0.00114381
B        1.28629462       3.54829683       4.03499432       0.00111932       0.00116160       0.00460767
C        0.04150204       5.70096846       3.84868792       0.00079112       0.00117352      -0.00486366
C       -1.23060370       7.83368931       3.72394266      -0.00115542      -0.00151256       0.00488229
C       -2.46802265       9.95468584       3.70695064       0.00162659      -0.00608010      -0.01060435
C        4.93086489       1.42391240       3.73502778      -0.00340654       0.00303247      -0.00672586
C        3.70583471       3.53942132       3.94686536      -0.00729753       0.00961192       0.00816357
C        1.25178121       7.88156735       3.77645017       0.00012413       0.00815148       0.00474122
C       -0.00383390       9.98496399       3.67746925       0.00146011      -0.00388922       0.00701525
C        7.39662611       1.44649327       3.63131434       0.00142052      -0.00813528      -0.01221386
C        6.16241563       3.55926856       3.69334045       0.00060291       0.00108402       0.00039797
C        4.87079978       5.67962485       3.81926107      -0.00289218      -0.00042588       0.00565490
C        3.66559577       7.88107778       3.72342006      -0.00046486       0.00133279      -0.00335999
C        2.46185560      10.02510281       3.62502984       0.00065394       0.00179491       0.00184864
C        9.87022038       1.44910314       3.61377582      -0.00323996      -0.00424983       0.00057651
C        8.62978788       3.57667515       3.63638498       0.00336365      -0.00522206      -0.00039741
C        7.37711237       5.69914340       3.68975802       0.00293745       0.00243159      -0.00705780
C        6.14490523       7.82418457       3.69100748       0.00482477       0.00220613      -0.00363415
C        4.92487880       9.97885917       3.63254855      -0.00474943      -0.00215319       0.00174887
V        2.57207331       4.83036729       5.06758263       0.00268716      -0.01084661      -0.00224654
O        2.75311878       4.81907408       6.65275813       0.00012360       0.00506490       0.01101002
