49
Lattice="12.336457 0.0 0.0 -6.168228499999997 10.683685154694365 0.0 0.0 0.0 15.0" Properties=species:S:1:pos:R:3:forces:R:3 energy=-435.04269704079263 free_energy=-435.04269704079263 stress="-0.0054577317404295176 -0.003118682698991811 -3.4603417178215755e-07 -0.003118682698991811 -0.0035650207007119823 -7.899567000916621e-06 -3.4603417178215755e-07 -7.899567000916621e-06 -2.89213050875993e-07" pbc="T T T"
C       -0.00658364      -0.01969570       3.76309705      -0.00090073      -0.00058233       0.01028133
C       -1.26246134       2.11277467       3.96603524      -0.00364835      -0.00549580      -0.00119752
C       -2.48126582       4.26003694       3.74456600       0.00589007      -0.00870122       0.00102718
C       -3.67682045       6.40633786       3.50039692       0.00136361       0.00250941      -0.00243540
C       -4.91673281       8.54995774       3.52197444       0.00748980      -0.00581678       0.01066926
C        2.46873885      -0.03641664       3.77596193      -0.00709040      -0.00140133       0.00699296
C        1.21827708       2.02921525       4.25676237      -0.00771810      -0.00631560       0.00289155
C       -0.12521345       4.29731440       4.35780206       0.00606762      -0.00483392       0.00181380
C       -1.26054863       6.40788283       3.84231106      -0.00156346       0.00982456       0.01165535
C       -2.45616975       8.53512210       3.63654937      -0.01105183       0.00527929      -0.00085431
C        4.93634319      -0.01472457       3.67863036       0.00655985      -0.00434580       0.00209214
C        3.65774064       2.06943617       3.67096321       0.00045482       0.00142269      -0.01255502
C        1.15158063       6.42687561       4.31146431      -0.00572249      -0.01114463      -0.00670142
C        0.00638422       8.52787468       3.81006542      -0.00522609       0.00446470      -0.00485559
C        7.40013044      -0.02378658       3.68962015       0.00959554       0.00646929      -0.01088778
C        6.15212952       2.13434597       3.51467008       0.00260963       0.00068047      -0.00807157
C        5.00317210       4.35183712       3.31140687       0.00547365       0.00245474      -0.00260021
N        3.81955725       6.42583470       3.62018752      -0.01212340      -0.01221870       0.00545275
C        2.48404482       8.49614182       3.80555669       0.00032272       0.00053269       0.00997005
C        9.85833656      -0.02538697       3.71327541       0.00243373       0.00989752       0.00074211
C        8.62446799       2.12159873       3.64778128      -0.00821347      -0.00419530      -0.00143610
C        7.41997124       4.27095386       3.42638821      -0.00285814       0.00120188       0.00774035
C        6.22946938       6.44684531       3.32073821       0.00101536       0.00167352      -0.01085010
C        4.95240398       8.54517511       3.54358433       0.01132338       0.00209775       0.00216272
C       -0.02164016       1.38928411       4.01367520      -0.00624567      -0.00361729       0.00160120
C       -1.28114128       3.54378575       4.02758194       0.01036374      -0.00953068      -0.00087247
C       -2.46616809       5.68699273       3.67822621       0.00278496       0.00163043       0.00959529
C       -3.68243609       7.82966261       3.53370827      -0.00092639      -0.00194997      -0.00234348
C       -4.93642248       9.95701574       3.69029091      -0.00409234      -0.00735558      -0.00059436
C        2.45453077       1.36652154       3.95582656      -0.00144043       0.00499330       0.00971161
P        1.20903177       3.51751703       5.20724645       0.00901985       0.01232591      -0.00057737
C       -0.05891012       5.71624534       4.18594327       0.00302949      -0.00959130      -0.00803600
C       -1.23174732       7.82419194       3.74494255      -0.01149703       0.01176551       0.00263435
C       -2.45931787       9.95433957       3.68386412      -0.00451748       0.00124396       0.00958713
C        4.91840096       1.42245830       3.61388574       0.00656280      -0.00268982      -0.00980680
S        3.42320828       3.69795596       3.13347488      -0.01117401      -0.00370711       0.00300092
C        1.23923961       7.78742336       3.97720727      -0.00952240      -0.00326984      -0.00080038
C        0.00344169       9.94800679       3.71332037       0.01193833       0.00321260      -0.00390338
C        7.38429136       1.41197667       3.60330338      -0.00185984       0.00054223      -0.01170721
C        6.17237645       3.56453947       3.39150784       0.00137535       0.00021697      -0.01095133
C        5.01063913       5.76302490       3.34672327       0.00081677      -0.00022872      -0.00198234
C        3.74053068       7.80423376       3.65919281       0.00629371      -0.01005254       0.00959248
C        2.46579112       9.93144994       3.72379601       0.00722128       0.00721725      -0.01227607
C        9.85565191       1.40508563       3.76705282      -0.00826414       0.00324382       0.01227258
C        8.63571507       3.54875867       3.58849061      -0.00388223      -0.00678584       0.00237866
C        7.43844746       5.69746171       3.38012633       0.00164395       0.00384919      -0.00690582
C        6.19535042       7.85775275       3.43089164       0.01038724       0.00229304      -0.00179249
C        4.93093523       9.95848112       3.66371955       0.00174552       0.00716736       0.00878885
V        2.74064278       5.29883333       4.81093308      -0.00424441       0.01562000      -0.00766007
