50
Lattice="12.336457 0.0 0.0 -6.168228499999997 10.683685154694365 0.0 0.0 0.0 15.0" Properties=species:S:1:pos:R:3:forces:R:3 energy=-451.80254922477366 free_energy=-451.80254922477366 stress="-0.005154840770590405 -0.00044148685624177664 -1.4411601328421652e-05 -0.00044148685624177664 0.004548304278402016 1.267376324076634e-05 -1.4411601328421652e-05 1.267376324076634e-05 -1.0493706245069658e-05" pbc="T T T"
C        0.00313435       0.00910997       3.72331973      -0.00422895       0.01125028       0.00577302
C       -1.24839273       2.12016998       3.69379852      -0.00393919      -0.00103928      -0.00198063
C       -2.47901000       4.26530206       3.62988744       0.00498598      -0.00564657      -0.01009127
C       -3.70179885       6.41954730       3.61217842       0.00117802      -0.00371005      -0.00024855
C       -4.92640391       8.57025926       3.66907996       0.00389285       0.00780667       0.00294366
C        2.46952962       0.05925229       3.74115645      -0.00456237      -0.00123447       0.00142385
C        1.21023275       2.19289605       3.83592175       0.00720085      -0.00152330       0.00430153
C       -0.03865352       4.23988810       3.80979307       0.00156493      -0.00256507       0.00256922
C       -1.26675891       6.41480343       3.69463332       0.00180550      -0.00089714      -0.00723192
C       -2.47439218       8.57138472       3.67253413       0.00065113       0.00111432       0.00007343
C        4.93383341       0.01328909       3.71679523      -0.00613306       0.00558872       0.00365027
C        3.72452148       2.20008257       3.83116740      -0.00098015       0.00245607       0.00306843
C        1.15372308       6.38884346       3.92881528       0.00076269       0.00375191      -0.00097362
C       -0.00627665       8.53621409       3.74700210       0.00267896      -0.00139994      -0.00581631
C        7.40926455      -0.03334600       3.71047215       0.00135192      -0.00337658      -0.00033265
C        6.18027807       2.12556350       3.67778724       0.00269061      -0.00471028       0.00111084
C        4.97028124       4.26180465       3.79223661      -0.00074596      -0.00245843       0.00089108
N        3.79796692       6.39193611       3.94317679      -0.00560677      -0.00138766      -0.00395968
C        2.48331543       8.48563493       3.82551410      -0.00104710       0.00463074      -0.00055621
C        9.86707947      -0.03438881       3.71664975       0.00407484      -0.00068662      -0.00415709
C        8.63559871       2.11565534       3.63726043      -0.00372169       0.00309115       0.00959492
C        7.41141718       4.26919210       3.61331153      -0.00386355      -0.00012142      -0.00507042
C        6.19014277       6.41912330       3.67500440      -0.00089100       0.00323455       0.00067287
C        4.94582382       8.52576160       3.74819850      -0.00193856      -0.00650843      -0.00281803
C       -0.00447782       1.43686207       3.74412428       0.00153957       0.00972597      -0.00252577
C       -1.26001779       3.53914128       3.68786387       0.00349798      -0.00446412      -0.00386831
C       -2.48000809       5.69829995       3.63161601       0.00342509      -0.00519868      -0.01006771
C       -3.69930647       7.85118300       3.64070890       0.00242495      -0.00004671       0.00990373
C       -4.92547443      10.00297730       3.71226396      -0.00674161       0.00848083      -0.00142517
C        2.46932417       1.49766166       3.81742673       0.00414911      -0.00372639       0.00564598
N        1.13614923       3.56487398       3.93634087      -0.00132715      -0.00340728      -0.00056082
C       -0.03258865       5.68234672       3.81672380       0.00485005       0.00175046       0.00477522
C       -1.24835721       7.84227817       3.69640720       0.00122603      -0.00056464      -0.00208296
C       -2.47208024      10.00340087       3.71067872      -0.00473547       0.00136693      -0.00311207
C        4.93840563       1.44274299       3.73341782      -0.00277932       0.00572436      -0.00077027
N        3.79643277       3.57510101       3.93371772      -0.00200975       0.00210448      -0.00877338
C        1.23093587       7.78095869       3.83842997       0.00373273       0.00205608       0.00583505
C       -0.00016341       9.95870171       3.71986917      -0.00314161      -0.00017042       0.00509347
C        7.40682572       1.39770060       3.66345754       0.00194911      -0.00464872       0.00178474
C        6.18804312       3.55018725       3.66636224      -0.00072555      -0.00522692       0.00327997
C        4.96925302       5.70851150       3.79760886      -0.00331509       0.00237151       0.00115166
C        3.73221201       7.76576949       3.84524835      -0.00734871      -0.00133115      -0.00043484
C        2.47381694       9.91576895       3.74641296       0.00396969       0.00266329      -0.00021331
C        9.86339804       1.39635533       3.67223095      -0.00520455      -0.00009524      -0.00259682
C        8.63489819       3.54652594       3.60795649      -0.00134460       0.00327621       0.00345770
C        7.41143268       5.69854765       3.61700914      -0.00300674       0.00076742      -0.00951803
C        6.18389225       7.84294796       3.68945794       0.00484969       0.00328174       0.00139106
C        4.93676981       9.95362820       3.72676957       0.00231196      -0.00418818       0.00325392
V        2.45181765       4.95839771       4.56406037      -0.00533263      -0.00815449      -0.00084872
O        2.39688834       4.99912961       6.17148386       0.01390688      -0.00800553       0.00838892
