50
Lattice="12.336457 0.0 0.0 -6.168228499999997 10.683685154694365 0.0 0.0 0.0 15.0" Properties=species:S:1:pos:R:3:forces:R:3 energy=-436.64607677370486 free_energy=-436.64607677370486 stress="-0.0028732481543182493 -0.003635080605283362 -2.8447884932881402e-05 -0.003635080605283362 -0.005963889107288136 -5.4650741826889725e-05 -2.8447884932881402e-05 -5.4650741826889725e-05 -0.00013606579641047676" pbc="T T T"
C       -0.03676923      -0.00988031       3.95092595      -0.00706546       0.00890188      -0.00349985
C       -1.30054182       2.12692156       4.14268562       0.00830865      -0.00060191      -0.00025363
C       -2.53292924       4.26997276       3.87053091       0.00425283      -0.00603160       0.00737110
C       -3.72786878       6.40786239       3.61126507       0.00058695      -0.00028451       0.00732249
C       -4.95374229       8.54826971       3.68315886       0.00050656      -0.00175834       0.00307066
C        2.43921416      -0.03690925       3.92429850       0.00494178       0.04450269      -0.00258796
C        1.19399785       2.04034650       4.38138612      -0.02071974      -0.00354744      -0.03195948
C       -0.14933532       4.29708817       4.36774676      -0.01510357      -0.01684326      -0.01922799
C       -1.26122939       6.39208627       3.74152734       0.03469489      -0.01124566       0.01039589
C       -2.48170299       8.52850122       3.69690648       0.00186271       0.00100723       0.00182155
C        4.90241157      -0.00999002       3.75285963       0.00287371       0.00542662      -0.00527420
C        3.62908043       2.08236912       3.74398839      -0.01494645      -0.02103261      -0.00233845
P        1.52978435       6.16526466       3.33475166      -0.01232826       0.00793301      -0.03032792
C       -0.01481892       8.53327928       3.65137687       0.01016922      -0.01064692      -0.00336588
C        7.35640593       0.01786310       3.72190281       0.00104091       0.00173315       0.00013659
C        6.10605563       2.15210918       3.58937435       0.00037981       0.00964677      -0.00520552
C        4.93430100       4.31271160       3.20772067       0.01248981       0.02876360      -0.01643225
C        3.67108282       6.46837960       3.41773842       0.03940304      -0.01759033      -0.00292452
C        2.45686194       8.60100545       3.63402850      -0.00241764      -0.02113440      -0.00436087
C        9.83420806       0.02029069       3.82949689      -0.00237331      -0.00025540       0.00076405
C        8.57971465       2.14748381       3.79291418      -0.00166958      -0.00172761       0.00361553
C        7.35579208       4.28113820       3.54526455      -0.01218506      -0.00264546      -0.00139984
C        6.15642833       6.44497146       3.38615853      -0.00428765      -0.00786830       0.00785542
C        4.92168595       8.57595488       3.62695968      -0.01079383      -0.01424778       0.00179675
C       -0.05562776       1.39915138       4.18804522      -0.00465237      -0.02840004      -0.00990593
C       -1.33259277       3.54974009       4.16202599      -0.02539486       0.01712515      -0.00020014
C       -2.50566031       5.69027219       3.73833363      -0.00717247      -0.00060489       0.00601190
C       -3.72085092       7.83010987       3.65086909       0.00329054       0.00063029       0.00492086
C       -4.96764358       9.95577941       3.86846649      -0.00387929      -0.01663314      -0.00301550
C        2.42406552       1.37733537       4.07264610       0.02325241      -0.04574394      -0.01715484
P        1.20472960       3.57701768       5.24545410       0.02815589      -0.00054278       0.01731682
C       -0.05973144       5.63613905       3.91240574      -0.04476167       0.02236695      -0.00265076
C       -1.24663867       7.81431287       3.66410131      -0.00780107       0.00653591       0.00056240
C       -2.49289847       9.95056982       3.78593468       0.00521104      -0.01249363      -0.00397952
C        4.88541722       1.42338422       3.70025368       0.00159182      -0.01039732      -0.00235005
S        3.46041769       3.49395546       2.71612009      -0.00071802      -0.00769619      -0.04692259
C        1.24580900       7.87040944       3.57859609      -0.00078005       0.03646289      -0.00730047
C       -0.02970402       9.96634281       3.70329376       0.00399976      -0.00217538      -0.00116596
C        7.34179005       1.44410202       3.70168799       0.00229223      -0.00102392       0.00099286
C        6.11856506       3.56805430       3.44430294       0.02167346      -0.01171842       0.00567994
C        4.90832026       5.75467867       3.25157279      -0.03071809      -0.00296752       0.00193371
C        3.68780737       7.87486222       3.55774000      -0.00395377       0.02619568       0.00211432
C        2.43442937      10.00868794       3.73274629      -0.00043953       0.00153676      -0.00044975
C        9.81766305       1.43481456       3.92949994      -0.00635670      -0.00416724       0.00232708
C        8.57686366       3.56666021       3.73827298       0.00834567       0.00129157       0.00644894
C        7.37081241       5.71014617       3.49610615       0.01169815       0.00295237       0.00596204
C        6.15284741       7.85677654       3.55363863       0.00792394       0.00959361       0.00531483
C        4.90416925       9.98491586       3.80587990      -0.00048917       0.00138147      -0.00074313
V        3.26328655       4.79031446       4.79374266      -0.03215135      -0.01289624       0.05570759
O        3.90525922       5.10191318       6.25452309       0.03421317       0.06093457       0.06555370
