50
Lattice="12.336457 0.0 0.0 -6.168228499999997 10.683685154694365 0.0 0.0 0.0 15.0" Properties=species:S:1:pos:R:3:forces:R:3 energy=-441.64360741407404 free_energy=-441.64360741407404 stress="-0.005337824986780759 -0.002834404365525224 -2.27548034014607e-06 -0.002834404365525224 -0.0038138863514887646 5.512681712260312e-06 -2.27548034014607e-06 5.512681712260312e-06 1.6318298590053028e-06" pbc="T T T"
C       -0.01461543      -0.03062749       3.75186968      -0.00641662       0.00280813       0.01193042
C       -1.26757278       2.10415396       3.94036245       0.00284643       0.00362690       0.00222250
C       -2.48513063       4.25108848       3.71893097       0.00363549      -0.00185708       0.00711879
C       -3.68648234       6.39625586       3.49356831       0.00352738      -0.00494182      -0.00148659
C       -4.92630292       8.53785207       3.52379485      -0.00269435       0.00290221      -0.00268501
C        2.45947353      -0.04709131       3.75660444      -0.00198194       0.00269994       0.00564648
C        1.21140680       2.02425656       4.23755968       0.00381642      -0.00162118       0.00473356
C       -0.12771524       4.28733847       4.33932682      -0.00322097      -0.00460463       0.00095274
C       -1.26947660       6.40089351       3.83022968       0.00108784      -0.00029024       0.00353619
C       -2.46626428       8.52572446       3.62195888      -0.00120608       0.00461895       0.00000012
C        4.92758986      -0.02504529       3.65873563      -0.00101372       0.00270139       0.00216822
C        3.65294188       2.05530211       3.67584665      -0.00173071       0.00106392       0.00168371
C        1.12084919       6.43810630       4.34436473      -0.00261148      -0.00016727       0.00205051
C       -0.00623077       8.52196883       3.80503603      -0.00371128       0.00133765      -0.00502799
C        7.39169032      -0.03245853       3.67682005       0.00528593      -0.00339755      -0.00156910
C        6.14490086       2.12398347       3.50423621      -0.00177487       0.00023301      -0.00244574
C        5.00306022       4.34394827       3.35391708      -0.00262454      -0.00108853      -0.00068863
N        3.80978342       6.41623373       3.68854866       0.00612492       0.00282353      -0.01199272
C        2.47511434       8.49120381       3.83529933      -0.00146647      -0.00377566       0.00122218
C        9.85062442      -0.03421793       3.71222804       0.00437067       0.00312112      -0.00604644
C        8.61808414       2.11160509       3.62632002       0.00274396       0.00423771       0.00548859
C        7.41423337       4.26155340       3.42525425       0.00252030      -0.00016328      -0.00573023
C        6.21530420       6.43408596       3.35362693      -0.00073009      -0.00061745      -0.00639596
C        4.94151288       8.53179127       3.57062736      -0.00533787      -0.00438787      -0.00257340
C       -0.02891247       1.38031155       3.99138411       0.00076685       0.00407317       0.00704584
C       -1.28316433       3.53517520       3.99764919      -0.00064248      -0.00175017       0.00169952
C       -2.47362912       5.67795142       3.66104450       0.00481060      -0.00440478       0.00360523
C       -3.69225222       7.81896163       3.52673758       0.00087709      -0.00075873      -0.00455023
C       -4.94535909       9.94562171       3.67833082      -0.00520739       0.00527392       0.00539611
C        2.44599443       1.35571431       3.94068523       0.00149277       0.00008068       0.00097201
P        1.18059001       3.50016752       5.20980137      -0.01009858      -0.00773991       0.00613842
C       -0.06819687       5.70930709       4.18595818      -0.00051330      -0.00382169       0.00285782
C       -1.24128178       7.81587473       3.73450605      -0.00267010       0.00135000      -0.00199521
C       -2.46861804       9.94469506       3.66559292      -0.00177436       0.00539115      -0.00002886
C        4.91225154       1.41183994       3.60034219      -0.00282194       0.00132275       0.00131144
S        3.42699974       3.70544781       3.25155634      -0.00265467      -0.00286049      -0.00022991
C        1.22576691       7.78701225       3.99797301      -0.00475786       0.00084549       0.00269865
C       -0.00555439       9.94051725       3.69858311       0.00022176       0.00089704      -0.00302676
C        7.37764827       1.40195822       3.58406045       0.00186767      -0.00004340       0.00121945
C        6.16875164       3.55352900       3.39692357      -0.00021136       0.00058644      -0.00886569
C        4.99396171       5.75175132       3.41127869       0.00213384      -0.00099958       0.00148099
C        3.73115823       7.79275799       3.70644789      -0.00191884      -0.00179137       0.00312809
C        2.45735664       9.92305371       3.72704533       0.00706976      -0.00347977      -0.00393182
C        9.84846817       1.39600309       3.74979486       0.00459318       0.00573136      -0.00010789
C        8.63144239       3.53876664       3.56864035       0.00368449       0.00316969       0.00591103
C        7.42718329       5.68673095       3.38891937       0.00030453      -0.00121249      -0.00526437
C        6.18426416       7.84466353       3.45370525      -0.00374494      -0.00106204      -0.00148200
C        4.92197404       9.94806972       3.67039381      -0.00273575      -0.00369611      -0.00020915
V        2.73970776       5.39764504       5.03552843       0.01003588      -0.00205518      -0.00856893
O        3.16470701       5.62595072       6.58401671       0.00245484       0.00169213      -0.00731598
