50
Lattice="12.336457 0.0 0.0 -6.168228499999997 10.683685154694365 0.0 0.0 0.0 15.0" Properties=species:S:1:pos:R:3:forces:R:3 energy=-435.09298957250724 free_energy=-435.09298957250724 stress="-0.006745282963273594 0.003008898864925728 -2.5850853544983195e-05 0.003008898864925728 -0.007451378745836672 1.2761572728038349e-05 -2.5850853544983195e-05 1.2761572728038349e-05 1.665760231132587e-06" pbc="T T T"
C        0.01887449      -0.02667727       3.71171756       0.00689969      -0.00822737       0.00286575
C       -1.19011956       2.12925749       3.54973207      -0.00259326       0.00525109      -0.00434143
C       -2.44826984       4.26152469       3.54684706      -0.01008060       0.00575034      -0.00355608
C       -3.68895828       6.39229286       3.65134760      -0.00301223       0.00287017       0.00057923
C       -4.93939534       8.51057167       3.71478376       0.00645756      -0.00149844      -0.00197819
C        2.48049785      -0.05436649       3.88461019      -0.00474968       0.00459683       0.00240706
C        1.29332650       2.04800636       3.70863609      -0.00597550      -0.00235666       0.01376249
C       -0.03947758       4.31280258       3.29011661       0.00216462      -0.00009914      -0.00868868
C       -1.27524900       6.43319490       3.37265084       0.00012879      -0.00086893       0.01601907
C       -2.47145108       8.53582851       3.63883324       0.00231351      -0.00138140       0.01217284
C        4.95396027      -0.02541189       3.87339351      -0.00033200      -0.00973321      -0.01599640
C        3.72921008       2.01674595       4.36261485       0.01204854      -0.00976114      -0.00847850
C        1.16668897       6.45044704       3.46532990       0.00457830      -0.00121436      -0.01232857
C       -0.00677631       8.55508641       3.53216301       0.00665396       0.00496645       0.01478576
C        7.42006909      -0.00705240       3.74687840       0.00244538       0.01470823      -0.00552302
C        6.21717897       2.10069988       4.12367619       0.00098525       0.00369024      -0.00832278
C        5.09692750       4.26550061       4.47282627       0.00182208       0.00361093      -0.00138114
S        3.60857631       6.16583496       3.30418840      -0.01738505       0.00261648       0.00436855
C        2.47281659       8.55861979       3.55915071      -0.01279757      -0.00402331       0.00190905
C        9.89675310      -0.00836036       3.65566769      -0.00731484      -0.00466509       0.00526107
C        8.67406770       2.12203313       3.75939407      -0.00106036      -0.00150864      -0.00103109
C        7.46096256       4.24780173       3.92520572       0.00266317      -0.00734472      -0.01171439
C        6.21111515       6.38403159       3.87308190       0.01413626       0.00417473       0.00243016
C        4.94467912       8.51715416       3.65318513      -0.00380443       0.00797555      -0.00118228
C        0.03625612       1.40791989       3.64356767      -0.00359270      -0.00740150       0.01084716
C       -1.21234365       3.54690882       3.43422853      -0.00589500       0.01037609      -0.00153212
C       -2.46769965       5.68749830       3.50468763      -0.00897934       0.00565161      -0.00386879
C       -3.69876902       7.81336600       3.66109186       0.00361599      -0.00036082      -0.00372989
C       -4.92770011       9.93632475       3.76047821       0.00602827      -0.00579210       0.00199136
C        2.49620737       1.35886643       4.03580786       0.00416316       0.00513639       0.00132407
S        1.49718518       3.60370016       2.99125528      -0.01451148      -0.01146159       0.00405140
C       -0.02916923       5.73472088       3.31787890       0.00677194      -0.00167935       0.00045820
C       -1.24618541       7.84483142       3.49132675       0.00608738       0.00260239      -0.00320415
C       -2.45094423       9.94251234       3.81084435      -0.00942768      -0.00023673      -0.00404458
C        4.97274224       1.38425420       4.13573919       0.00991413      -0.01366062      -0.00720508
S        3.76836743       3.48227385       5.29633333      -0.00397764       0.00281976      -0.00543409
C        1.23302273       7.83060418       3.49803704      -0.00562950      -0.00165398       0.00202111
C        0.01397439       9.96370992       3.71150852       0.00915729       0.00690724      -0.00261530
C        7.43197986       1.40966347       3.88022562      -0.00005389       0.01173373       0.00265373
C        6.26244316       3.51782983       4.20474320       0.00370853       0.00079179      -0.00031900
C        5.03963335       5.61486884       4.08131567       0.00877451       0.00280089      -0.00495388
C        3.69511984       7.87085462       3.54534641      -0.00870856       0.00670082       0.00773602
C        2.48630286       9.97801416       3.64773295      -0.00916485      -0.00375985       0.00521287
C        9.91189146       1.42083313       3.64725862      -0.00294914      -0.00256634       0.00559900
C        8.67892735       3.54121313       3.74415391      -0.00166402      -0.00596967      -0.00596362
C        7.44220430       5.66990701       3.83100202       0.00730443      -0.00569824      -0.00351460
C        6.16895144       7.79551179       3.71704217       0.00383578       0.00734733      -0.00141846
C        4.95040047       9.95251728       3.66583953       0.00025934       0.00411353      -0.00299279
V        2.06622156       5.12981017       4.88249683       0.01042636      -0.00751560       0.00775746
O        1.35914002       5.62446031       6.26010453       0.00031512      -0.00675379       0.00910544
