51
Lattice="12.336457 0.0 0.0 -6.168228499999997 10.683685154694365 0.0 0.0 0.0 15.0" Properties=species:S:1:pos:R:3:initial_magmoms:R:1:forces:R:3 energy=-454.9314856393127 free_energy=-454.9314856393127 stress="-0.004851821157297943 -0.00047780994977006294 -6.81607275490544e-06 -0.00047780994977006294 0.004985416344453548 -4.151729288801748e-06 -6.81607275490544e-06 -4.151729288801748e-06 -5.870801321143526e-06" pbc="T T T"
C        0.00547879       0.00318458       3.68037113       0.00000000      -0.00621349       0.00258525      -0.00083614
C       -1.24557432       2.11315331       3.66013433       0.00000000      -0.00064140       0.00386422      -0.00302970
C       -2.47661361       4.25754886       3.60684980       0.00000000      -0.00011684      -0.00063561      -0.00189520
C       -3.69992561       6.41188578       3.59561106       0.00000000       0.00784056      -0.00469462      -0.01360098
C       -4.92366532       8.56364586       3.63699716       0.00000000      -0.00543910      -0.00242639       0.00785257
C        2.47185190       0.05263041       3.68432431       0.00000000      -0.00288103       0.00230001       0.01507158
C        1.21483674       2.18681579       3.78002197       0.00000000      -0.00569565      -0.00103718       0.00502864
C       -0.03830867       4.23627523       3.77068360       0.00000000       0.00061105      -0.00654360      -0.00041170
C       -1.26350125       6.40637817       3.65752439       0.00000000       0.00469882       0.00044606      -0.00426001
C       -2.47106968       8.56384359       3.63161201       0.00000000      -0.00349216       0.00113920      -0.00247751
C        4.93570151       0.00691745       3.66676633       0.00000000       0.00536618      -0.00154636       0.00351665
C        3.72412844       2.19257151       3.77279936       0.00000000       0.00252125      -0.00364190       0.00230026
C        1.16391212       6.37747578       3.88434284       0.00000000      -0.01043568       0.00019819      -0.00305728
C       -0.00208752       8.52790832       3.69605464       0.00000000      -0.00036809       0.00081166       0.00391700
C        7.41165738      -0.04132222       3.66812724       0.00000000       0.00003162       0.00322592       0.00340481
C        6.18226893       2.11798271       3.64941791       0.00000000      -0.00478124       0.00258226       0.00725666
C        4.97521039       4.25859387       3.76461195       0.00000000       0.00773314       0.00048048      -0.01250538
N        3.79115854       6.38004062       3.89070069       0.00000000      -0.00016725      -0.00286176      -0.00582830
C        2.48540952       8.47579304       3.77383159       0.00000000       0.00289888       0.00393157       0.00202266
C        9.86943093      -0.04218725       3.67555365       0.00000000       0.00244450      -0.00090730       0.00348553
C        8.63770484       2.10849993       3.61575418       0.00000000       0.00041469      -0.00196204      -0.00414573
C        7.41300521       4.26182432       3.60166011       0.00000000      -0.00296113       0.00410139      -0.00022843
C        6.19109050       6.41227094       3.66046676       0.00000000      -0.00040169       0.00124048      -0.00470904
C        4.94690972       8.51695035       3.71251523       0.00000000      -0.00141095      -0.00062765      -0.00199269
C       -0.00035696       1.43228047       3.70040291       0.00000000      -0.00532612       0.00352377      -0.00232991
C       -1.25547106       3.53205567       3.65689934       0.00000000      -0.00094756       0.00080527       0.00140950
C       -2.47869664       5.68994362       3.60735727       0.00000000       0.00989361      -0.00271486      -0.00896206
C       -3.69647082       7.84395283       3.61313867       0.00000000      -0.00287474      -0.00365326       0.00170967
C       -4.92301067       9.99707163       3.66518446       0.00000000      -0.00659917       0.00140348       0.00968943
C        2.47167888       1.49381832       3.75603175       0.00000000      -0.00438704       0.00185416       0.00642025
N        1.14695874       3.56325602       3.88417210       0.00000000       0.00253183      -0.00173008      -0.00176250
C       -0.03171330       5.67429582       3.77504202       0.00000000      -0.00360123      -0.00744072      -0.00202492
C       -1.24508523       7.83465853       3.65309357       0.00000000      -0.00145162       0.00149945       0.00077624
C       -2.46994665       9.99666306       3.65888062       0.00000000       0.00171124       0.00290974      -0.00101233
C        4.93879907       1.43763191       3.68850897       0.00000000      -0.00014083      -0.00374000      -0.00287248
N        3.78780430       3.57234564       3.87550128       0.00000000       0.01764425      -0.00551178      -0.00170723
C        1.23457565       7.77173267       3.78739960       0.00000000      -0.00050562       0.00126696       0.00364851
C        0.00183211       9.95154110       3.67066381       0.00000000       0.00425381      -0.00051222       0.01107337
C        7.40893307       1.39021612       3.63524861       0.00000000      -0.00457331       0.00320340      -0.00546075
C        6.18773113       3.54311618       3.64999877       0.00000000       0.00154700       0.00139424      -0.00405247
C        4.97458549       5.69826946       3.77038339       0.00000000       0.00198008       0.00001218      -0.00745449
C        3.73200072       7.75785695       3.79684724       0.00000000       0.00214418      -0.00007604       0.00313360
C        2.47622846       9.90831528       3.70044198       0.00000000       0.00090797       0.00398616       0.00209088
C        9.86590169       1.38931681       3.64020421       0.00000000       0.00360891      -0.00196863       0.00304109
C        8.63690840       3.53935424       3.59233125       0.00000000      -0.00361657       0.00072688       0.00061706
C        7.41310855       5.69102217       3.60588058       0.00000000       0.00249743       0.00327491      -0.00735545
C        6.18661641       7.83654080       3.66604986       0.00000000      -0.00417741      -0.00125053      -0.00756843
C        4.93927543       9.94591175       3.68659163       0.00000000      -0.00099618      -0.00220581       0.00436932
V        2.46559981       4.94529978       4.42091465       0.00000000      -0.00168988       0.00085623       0.01100842
O        2.30777673       5.16312986       7.38566135       1.00000000       0.00520240       0.00057434       0.00499049
O        2.39155277       5.04486562       6.08350427       1.00000000      -0.00259038       0.00349046      -0.00629308
