49
Lattice="12.336457 0.0 0.0 -6.168228499999997 10.683685154694365 0.0 0.0 0.0 15.0" Properties=species:S:1:pos:R:3:forces:R:3 energy=-430.7345328177171 free_energy=-430.7345328177171 stress="-0.004459492727565703 -0.002653391820221396 -1.7005967191107342e-06 -0.002653391820221396 -0.006259477053032343 -2.534798742726515e-06 -1.7005967191107342e-06 -2.534798742726515e-06 -3.8100623193394747e-06" pbc="T T T"
C       -0.01514109       0.00169833       3.96155060      -0.00695778       0.00134373      -0.00145215
C       -1.27717157       2.13052708       4.19135711       0.00089748       0.00746162       0.00155269
C       -2.51764878       4.27424852       3.98449529       0.00042754       0.00342021       0.00765403
C       -3.71099046       6.41357198       3.71807125      -0.00150532      -0.00014316       0.01047263
C       -4.93482360       8.55636680       3.73476651       0.00066523      -0.00356120      -0.00447554
C        2.45921575      -0.02276599       3.86434682      -0.00424655       0.00806381      -0.00008139
C        1.22980110       2.06150833       4.30730978       0.00567645       0.00206643       0.00396113
C       -0.13027643       4.30809786       4.43515152      -0.00927535      -0.00219390      -0.00693051
C       -1.25860947       6.40371860       3.82384327      -0.00374357      -0.00449152      -0.00402882
C       -2.46544809       8.53583030       3.72109163      -0.00039795       0.01030159      -0.00203792
C        4.92244523      -0.00432294       3.70289620       0.00433157      -0.00654524      -0.00477327
C        3.64928098       2.07837381       3.56248726      -0.00297747      -0.00354050      -0.01103024
P        1.44001303       6.15885690       3.20927472       0.00250940       0.00987319       0.00669409
C       -0.00102479       8.53951736       3.61524551       0.00256385      -0.00303804       0.00661543
C        7.37854645       0.01809970       3.70816372       0.00912847      -0.00063252      -0.00509131
C        6.13542909       2.15284911       3.56629424      -0.00584588      -0.00077347      -0.00679754
C        4.97923917       4.31568907       3.14933743      -0.00572920       0.00059760       0.00296080
C        3.74396512       6.49372697       3.30402567       0.01202939       0.00952806      -0.00350457
C        2.46960448       8.59788577       3.57188320      -0.00178721      -0.00471959       0.01128107
C        9.85277465       0.02131127       3.84941256       0.00023664      -0.00298975      -0.00247759
C        8.60117822       2.14811951       3.84953664       0.00382927       0.00125927       0.00978108
C        7.37876906       4.28423268       3.62542994       0.01141968      -0.00024296      -0.00402183
C        6.19227128       6.45033411       3.45655842       0.00017511      -0.00284401       0.00167742
C        4.94178351       8.58294208       3.64021447      -0.00410303      -0.00632856      -0.01071925
C       -0.02672868       1.41238397       4.18532408       0.00179430       0.00875127      -0.00296184
C       -1.31155883       3.55448309       4.25018688      -0.00686547       0.00684287       0.00517936
C       -2.49542775       5.69632955       3.85423642      -0.00238830      -0.00324510      -0.00297295
C       -3.70399775       7.83654032       3.71911676       0.00319840       0.00163921       0.00500096
C       -4.94687252       9.96827165       3.86945259      -0.00454151       0.00077234       0.00568639
C        2.44488785       1.39777636       3.94128946       0.00014026       0.00482656      -0.00421819
P        1.30941128       3.59640971       5.19650651       0.00512849      -0.00642976      -0.00261643
C       -0.06671723       5.64665644       3.97567326      -0.00754619      -0.00114787       0.00476422
C       -1.23459264       7.82149478       3.68658641      -0.00385354       0.00162327       0.00019295
C       -2.47463125       9.95929111       3.75115010      -0.00223783       0.00835637      -0.00154349
C        4.90958127       1.42507481       3.61722807      -0.00600808      -0.01092048      -0.01502722
S        3.56717213       3.46559940       2.48226953      -0.00438251      -0.00698246      -0.00437832
C        1.25247410       7.88157270       3.49077148       0.00033560      -0.00325780      -0.00092376
C       -0.01052806       9.97129329       3.67060236       0.01072025      -0.00419083       0.00084105
C        7.36617788       1.44512916       3.71419700      -0.00006720       0.00285712       0.00084684
C        6.15156814       3.57127183       3.44894663       0.00230862       0.00407798       0.00098754
C        4.96864173       5.76167189       3.25787904      -0.00281613       0.00318633      -0.00227975
C        3.71012435       7.88043754       3.49779470      -0.00391950       0.00223842       0.00407058
C        2.45422740      10.00606699       3.71626196       0.00396847      -0.00616788       0.00378447
C        9.83897755       1.43542369       3.97906937       0.00404173      -0.00031432       0.00080525
C        8.59648217       3.56870409       3.83089150       0.00785849       0.00012999       0.00921494
C        7.39640194       5.71226761       3.59536761       0.00263327      -0.00030854       0.00372890
C        6.17289127       7.86396058       3.61071618      -0.00133818      -0.00634002      -0.00266388
C        4.92464789       9.99103470       3.82784643      -0.00508522      -0.00814669      -0.00932460
V        3.02159822       4.80898666       4.23261150       0.00160100       0.00027892       0.00857853
