50
Lattice="12.336457 0.0 0.0 -6.168228499999997 10.683685154694365 0.0 0.0 0.0 15.0" Properties=species:S:1:pos:R:3:forces:R:3 energy=-451.6359723964365 free_energy=-451.6359723964365 stress="-0.0063598027883676874 -0.0008301813834075344 -4.419450048999745e-06 -0.0008301813834075344 0.0027623214165486696 7.945888219377962e-07 -4.419450048999745e-06 7.945888219377962e-07 3.1670812047398893e-06" pbc="T T T"
C       -0.00041894       0.00990732       3.71941873      -0.00508192       0.00718275       0.01204273
C       -1.25100924       2.11939530       3.68930444       0.00320832       0.00264942      -0.00459003
C       -2.47928895       4.26482492       3.62204521       0.01023673       0.00032323      -0.00326083
C       -3.70115859       6.41984052       3.60953531      -0.00334602      -0.01451623      -0.00148876
C       -4.92640192       8.56974383       3.66978987      -0.00291359       0.00026860      -0.00195300
C        2.46251430       0.04719579       3.74520577       0.00082328       0.00041547      -0.01295956
C        1.20244345       2.19038582       3.84498843       0.00216037      -0.00328134      -0.00500663
C       -0.03842266       4.23683018       3.80385998      -0.00671892       0.01027437       0.00778754
C       -1.26547950       6.41325081       3.68027458      -0.00468868       0.00108117      -0.00455125
C       -2.47437333       8.56978942       3.66605599       0.00938318      -0.00463656      -0.00513572
C        4.93452232       0.00890917       3.70838571       0.00183258       0.00249985       0.01535659
C        3.70419182       2.18339631       3.83825876       0.00058389      -0.00105687      -0.00455457
C        1.15256437       6.38926608       3.93457103      -0.00319491       0.00180324       0.00064985
C       -0.00602196       8.53540302       3.73289217       0.00250708      -0.00243124       0.01591726
C        7.40785534      -0.03188478       3.70697654      -0.00536554       0.00014813      -0.00199728
C        6.18183318       2.12535030       3.68508050      -0.00818778       0.00194482      -0.00349159
C        4.96744485       4.28469777       3.81249330       0.01303568      -0.00654939       0.00455658
N        3.80288416       6.40598197       3.95191696       0.00967963       0.00292205      -0.00309792
C        2.48042420       8.49031589       3.82691366      -0.00380263       0.00296798      -0.00732816
C        9.86441991      -0.03216014       3.71293938       0.00694490      -0.00857743      -0.00212641
C        8.63359392       2.11570747       3.63967528      -0.00315975       0.00931411      -0.00116849
C        7.41397129       4.26921746       3.62248777      -0.00215218       0.00657694      -0.00233325
C        6.19473354       6.42838917       3.68303519      -0.00424180      -0.00021106      -0.00501006
C        4.94562590       8.53079968       3.74423252       0.00053820      -0.00398333       0.01239643
C       -0.01156898       1.43555046       3.74240117      -0.00046781       0.00432478       0.01093920
C       -1.26076058       3.53796603       3.67942299       0.00475806       0.00011805      -0.00268098
C       -2.47997765       5.69734443       3.62098676       0.00131385      -0.00786076      -0.00278987
C       -3.69953690       7.85077562       3.63959052       0.00310611      -0.00925078      -0.00116158
C       -4.93035799       9.99857626       3.71244857      -0.00676278       0.00839532      -0.00046467
C        2.45372754       1.47605319       3.82624253       0.00364866      -0.00226383      -0.00492810
N        1.13132531       3.56055899       3.94690870      -0.00962949      -0.00280951      -0.00187701
C       -0.03339902       5.68155301       3.80771657      -0.01253506       0.00726104       0.00282356
C       -1.24768520       7.84115594       3.68319515       0.00752274      -0.00258947      -0.00409829
C       -2.47370486       9.99830875       3.70681537       0.00513528       0.00040881      -0.00285127
C        4.94021724       1.43103004       3.73499879      -0.00313642       0.00233398       0.01365823
C        3.78180141       3.57678453       3.94066219       0.00347166      -0.00058337      -0.00253491
C        1.22998600       7.78295764       3.83571215      -0.00061210       0.00204744      -0.00506078
C       -0.00036328       9.95754139       3.70798375      -0.00200818      -0.00244366       0.01493541
C        7.40848476       1.39666747       3.66656381      -0.00949317       0.00504928      -0.00324846
C        6.19952813       3.55327040       3.68306094       0.00391949      -0.00198197      -0.00328128
C        4.97254316       5.72947261       3.80900769       0.00706529      -0.00938828       0.00720655
C        3.73169778       7.77601787       3.84768819      -0.00232420       0.00345393      -0.00538696
C        2.47160763       9.91921025       3.74602243      -0.00098905      -0.00000286      -0.01473466
C        9.86044157       1.39666197       3.66901756       0.00273712      -0.00054282      -0.00056405
C        8.63513915       3.54669161       3.61001485       0.00292952       0.01400802      -0.00389875
C        7.41324830       5.70170737       3.62326611      -0.01022140      -0.00144897      -0.00040799
C        6.18505088       7.84696477       3.69158027      -0.00332374      -0.00283086      -0.00440671
C        4.93443719       9.95644330       3.71976814       0.00569408      -0.00684317       0.01432704
V        2.46554222       4.98365130       4.58746239      -0.00191258      -0.00104333       0.00668230
O        2.45849025       4.98414448       6.20012790       0.00403400      -0.00064564      -0.00484944
