52
Lattice="12.336457 0.0 0.0 -6.168228499999997 10.683685154694365 0.0 0.0 0.0 15.0" Properties=species:S:1:pos:R:3:forces:R:3 energy=-459.42076028493955 free_energy=-459.42076028493955 stress="-0.005885577269627923 -9.763294902636414e-08 3.434751368176179e-05 -9.763294902636414e-08 0.003943905548174057 2.609797779358985e-06 3.434751368176179e-05 2.609797779358985e-06 -5.65743054089904e-06" pbc="T T T"
C        0.00832891       0.00659645       3.74410470       0.00029688      -0.00078673       0.01234334
C       -1.24364099       2.11795658       3.71989545      -0.00166662      -0.00202144      -0.00607143
C       -2.47995985       4.26341697       3.62593214       0.00520840       0.00113556      -0.00227785
C       -3.69851905       6.41796036       3.58878152       0.00497871       0.00783609       0.00529964
C       -4.92089261       8.56893004       3.66760862      -0.00049057      -0.00027681      -0.00021941
C        2.48133694       0.04912373       3.76944047      -0.00066700      -0.00082689      -0.00813475
C        1.23815802       2.18385403       3.89130117      -0.00714187       0.00455353      -0.00441768
C       -0.04510944       4.26267496       3.87169598      -0.00179339      -0.00031461       0.00421746
C       -1.26748754       6.42020777       3.71531116       0.00413101       0.00025307      -0.00076043
C       -2.46827800       8.56955970       3.68587393      -0.00228518      -0.00518684      -0.01071872
C        4.94312134       0.01122441       3.74098884       0.00292805      -0.00713905       0.00041543
C        3.73862199       2.19815397       3.86754838       0.00651277      -0.00269863      -0.00601820
C        1.15777038       6.38910862       4.01303502      -0.00666582      -0.00215933       0.00116058
C        0.00292820       8.53292800       3.78066397      -0.00747458       0.00469020       0.00117560
C        7.41773707      -0.03720415       3.72925989       0.00367455       0.00064393      -0.00020395
C        6.18884889       2.12037003       3.67783173       0.00086738      -0.00090479      -0.00775253
C        4.98127032       4.25916343       3.78373824      -0.00339488       0.00759965       0.00225501
N        3.80713236       6.38599556       3.97332066      -0.01220228      -0.00604582      -0.00036018
C        2.49037658       8.48074181       3.85996814       0.00082024      -0.00210404       0.00153322
C        9.87357534      -0.03702530       3.73330594       0.00104292       0.00836762      -0.00189192
C        8.64282990       2.11212927       3.63630227      -0.00243810      -0.00580036      -0.00294883
C        7.41492732       4.26619848       3.57631471       0.00267912      -0.00242040       0.00139687
C        6.19248499       6.41652652       3.64351154       0.00073690      -0.00171794       0.00121663
C        4.95051830       8.52193298       3.75350121       0.00796266       0.00660070       0.00581718
C        0.00289423       1.42909385       3.78084962      -0.00525333      -0.00372453       0.00658691
C       -1.26745563       3.54185673       3.71628697       0.00406401      -0.00153715      -0.00296310
C       -2.47997443       5.69828439       3.62564732       0.00519685       0.00615554      -0.00202864
C       -3.69362092       7.84989037       3.63650269      -0.00230222       0.00233365      -0.00417120
C       -4.91845532       9.99937613       3.72963414      -0.00072883      -0.00410883      -0.00236229
C        2.49041742       1.48140273       3.86015671      -0.00198193       0.00328619       0.00620543
C        1.15771060       3.57312342       4.01314003      -0.00428555       0.00200883       0.00683153
C       -0.04508804       5.69968416       3.87131736      -0.00342357      -0.00441481       0.00440742
C       -1.24362105       7.84414397       3.71904981      -0.00244579      -0.00083289      -0.00456645
C       -2.46284674       9.99903074       3.73271523       0.00072776      -0.00690075       0.00298307
C        4.95040111       1.44020845       3.75397089       0.00741879      -0.00637566       0.00561463
N        3.80690392       3.57626142       3.97499847      -0.00289949      -0.00042579      -0.00782875
C        1.23826571       7.77816144       3.89004152      -0.00882669      -0.00018625       0.00484914
C        0.00815057       9.95542356       3.74432071       0.00268618       0.00314747       0.01143904
C        7.41552451       1.39318716       3.66708187      -0.00146322      -0.00382978       0.00198666
C        6.19251383       3.54533911       3.64269382      -0.00392146       0.00259123       0.00631731
C        4.98140428       5.70239316       3.78399788      -0.00406734       0.00209836      -0.00108573
C        3.73877707       7.76418696       3.86706946       0.00508669      -0.00263488      -0.00790282
C        2.48108153       9.91298139       3.76939227       0.00479472       0.00249706      -0.00733728
C        9.86816609       1.39247782       3.68642550      -0.00180199       0.00389505      -0.01102846
C        8.63793633       3.54389406       3.58872374       0.00467293      -0.00532367       0.00629728
C        7.41485528       5.69574144       3.57622818       0.00614909       0.00192493       0.00579804
C        6.18886922       7.84161013       3.67783909       0.00321404       0.00110063      -0.00504857
C        4.94325797       9.95082640       3.74043464       0.00029720       0.01024332       0.00442497
V        2.49690334       4.98151971       4.61906542       0.01592011      -0.00197312      -0.00551424
O        2.36181038       4.98273881       6.29393353       0.01183402       0.00022329      -0.00081740
O        2.24621714       4.98822560       7.72903900      -0.01171865      -0.00037387      -0.00497218
H        3.19314258       4.98994843       7.98030075      -0.01256163      -0.00014024       0.00883063
