50
Lattice="12.336457 0.0 0.0 -6.168228499999997 10.683685154694365 0.0 0.0 0.0 15.0" Properties=species:S:1:pos:R:3:forces:R:3 energy=-451.6939528493388 free_energy=-451.6939528493388 stress="-0.006528887992375418 -3.567095913266122e-07 -1.5970194549381828e-05 -3.567095913266122e-07 0.0033438076515794556 -3.1951228234341347e-07 -1.5970194549381828e-05 -3.1951228234341347e-07 -1.2767971195951356e-05" pbc="T T T"
C        0.00301341       0.00979852       3.72175523       0.00267283      -0.00976691       0.00651849
C       -1.25001341       2.11971934       3.69464725       0.00548944       0.00249324      -0.00457124
C       -2.48562787       4.26557226       3.62303962      -0.00294596      -0.00016170      -0.01557776
C       -3.70448136       6.42015647       3.59529117       0.00154771       0.00667944       0.00022579
C       -4.92641009       8.57147254       3.65904964      -0.00230454      -0.00737790       0.00026367
C        2.47622547       0.05018401       3.74656635      -0.00156768       0.00740740      -0.00001720
C        1.23327825       2.18400544       3.84683948      -0.00936049      -0.00116223       0.00239165
C       -0.04946205       4.26435984       3.82345139      -0.00455874       0.00420940       0.00820871
C       -1.27451846       6.42427973       3.69144125      -0.00023663      -0.00546096      -0.00562663
C       -2.47470917       8.57182768       3.66902486       0.00600760      -0.00379366      -0.00623372
C        4.93855051       0.01213254       3.72144877      -0.00375788      -0.01053025       0.00616884
C        3.73495954       2.19775720       3.85006231       0.00978682       0.00648499      -0.00001310
C        1.15066207       6.39264100       3.94329579      -0.00141561      -0.00153546       0.00917624
C       -0.00395597       8.53528797       3.74906473      -0.00235082       0.01104372       0.00146192
C        7.41224417      -0.03516418       3.71038680       0.00222112       0.00732480      -0.00279072
C        6.18411581       2.12271127       3.67560486      -0.00555241       0.00285061      -0.00043773
C        4.97264574       4.25860235       3.79278979       0.00034638       0.00503794       0.00044973
N        3.80652517       6.39575958       3.96343173      -0.00197942      -0.00854971      -0.00392828
C        2.48538237       8.48659277       3.83132176       0.00151716      -0.01161071       0.00320648
C        9.86868942      -0.03378177       3.71360084      -0.00482447       0.00364455      -0.00571273
C        8.63661033       2.11447395       3.62971147       0.00265517      -0.00318935       0.00771462
C        7.40966712       4.26862461       3.59469607       0.00428849      -0.00101208      -0.00297127
C        6.18921645       6.41906927       3.65615258      -0.00125207      -0.00527724      -0.00170419
C        4.94706944       8.52663160       3.74056906       0.00321086       0.01083400       0.00282283
C       -0.00397481       1.43115766       3.74947733      -0.00247447      -0.01070133      -0.00073414
C       -1.27453510       3.54221268       3.69127062       0.00055566       0.00547374      -0.00499869
C       -2.48562658       5.70101721       3.62296390      -0.00341367      -0.00063991      -0.01532092
C       -3.69989229       7.85209868       3.62974169       0.00299712       0.00270381       0.00726581
C       -4.92427431      10.00164949       3.71055653       0.00269324      -0.00709684      -0.00384566
C        2.48541291       1.47985537       3.83110019       0.00178060       0.01202081       0.00464863
C        1.15068452       3.57377701       3.94363822      -0.00256236       0.00095515       0.00773342
C       -0.04947603       5.70202047       3.82352576      -0.00466190      -0.00303575       0.00707115
C       -1.25002429       7.84677317       3.69473926       0.00566367      -0.00255831      -0.00558601
C       -2.46771513      10.00030038       3.71370647      -0.00528114      -0.00409391      -0.00642969
C        4.94719597       1.43983001       3.74096040       0.00256497      -0.01048978       0.00070291
N        3.80658521       3.57068783       3.96342038      -0.00239519       0.00864389      -0.00393758
C        1.23325513       7.78241550       3.84663166      -0.00904664       0.00109293       0.00247405
C        0.00309895       9.95664919       3.72152775       0.00193436       0.01036668       0.00702400
C        7.41012863       1.39504710       3.65891770      -0.00281443       0.00722616       0.00081271
C        6.18926769       3.54746505       3.65607389      -0.00166461       0.00494909      -0.00090647
C        4.97261380       5.70789774       3.79285241       0.00072349      -0.00549103       0.00008026
C        3.73489362       7.76868185       3.85007959       0.00976755      -0.00615882      -0.00054900
C        2.47622525       9.91628554       3.74681874      -0.00172239      -0.00708568      -0.00220100
C        9.86175693       1.39470764       3.66885231       0.00583625       0.00319356      -0.00574928
C        8.63199552       3.54643662       3.59564999       0.00146133      -0.00704477      -0.00192603
C        7.40964180       5.69795751       3.59458722       0.00461992       0.00081875      -0.00271827
C        6.18402190       7.84380658       3.67553569      -0.00507996      -0.00299227      -0.00054159
C        4.93843987       9.95433417       3.72126829      -0.00269412       0.01085756       0.00670794
V        2.46077045       4.98320489       4.62482010      -0.01314692       0.00059633       0.00850352
O        2.34711941       4.98336253       6.23696099       0.01872280      -0.00009199       0.00339553
