49
Lattice="12.336457 0.0 0.0 -6.168228499999997 10.683685154694365 0.0 0.0 0.0 15.0" Properties=species:S:1:pos:R:3:forces:R:3 energy=-445.28854090209273 free_energy=-445.28854090209273 stress="-0.004341451150217939 -4.291580793178675e-06 -8.233985866159957e-07 -4.291580793178675e-06 0.0037282181623865106 -2.9699668986115196e-06 -8.233985866159957e-07 -2.9699668986115196e-06 -3.4203387844614633e-06" pbc="T T T"
C       -0.00250847       0.00773131       3.71487715      -0.00340880      -0.00648436       0.01528009
C       -1.24721538       2.12432195       3.70060845       0.00666889      -0.00024802       0.00221072
C       -2.47617665       4.26689800       3.66231042       0.00550937       0.00079032      -0.01154088
C       -3.70140481       6.41479428       3.65175229       0.00038574       0.01097406      -0.00382089
C       -4.93167887       8.56225281       3.68274180       0.00123661       0.00028910       0.00103811
C        2.46715218       0.03120404       3.73236987      -0.00373660       0.00384522      -0.00711628
C        1.22966697       2.18070199       3.80405050      -0.00591097      -0.00088286       0.00857835
C       -0.02384408       4.28088586       3.79583041       0.00190236      -0.00521355       0.00816045
C       -1.25239382       6.42122185       3.69923009       0.00065413      -0.00525291      -0.00712749
C       -2.47100185       8.56212551       3.67900039       0.00172411       0.00233655       0.00344563
C        4.93639484       0.00778869       3.71468214       0.00327235      -0.00681396       0.01271320
C        3.70385798       2.18103595       3.80796828       0.00879163      -0.00463997      -0.00140385
N        1.16354056       6.38919032       3.90375174       0.00726698      -0.00205904      -0.01030304
C       -0.00085431       8.52502301       3.73893278      -0.00454261       0.00789084      -0.00785269
C        7.40841123      -0.03448045       3.71784655       0.00348499      -0.00286811      -0.00431700
C        6.18103911       2.12428568       3.70749028      -0.00599397       0.00066209      -0.00029341
C        4.95787054       4.28060964       3.80778941      -0.00433909       0.00170045      -0.01098953
N        3.77053066       6.38918459       3.90874249      -0.01592876      -0.00083019      -0.00120596
C        2.46701597       8.47126407       3.81362973      -0.00041582       0.00882590      -0.00265326
C        9.86170388      -0.03457837       3.71653464      -0.00061679       0.00123125       0.00248340
C        8.63522850       2.11633657       3.66987464      -0.00386725      -0.00408531       0.00813242
C        7.40988199       4.26699981       3.66924830      -0.00483849      -0.00195014      -0.01071430
C        6.18625946       6.42132562       3.70884495       0.00246460      -0.00614923      -0.00747838
C        4.93480015       8.52532980       3.74345363       0.00337152       0.00197826       0.00335539
C       -0.00736006       1.43164469       3.73449421      -0.00129627      -0.00752597       0.00493175
C       -1.25585904       3.55209294       3.70179279       0.00674787      -0.00142680      -0.00484689
C       -2.47654882       5.69701908       3.66057053      -0.00422174       0.00598003      -0.00749127
C       -3.70139777       7.84464571       3.66359793       0.00115146       0.00805616       0.00474440
C       -4.93213688       9.99082854       3.70834600      -0.00526330      -0.00164671       0.00216589
C        2.46692168       1.45528274       3.79462577      -0.00108080       0.00439537      -0.00156340
C        1.19802357       3.59355772       3.87929740      -0.00420451      -0.00606075      -0.01200570
C       -0.03787085       5.71738301       3.79775680       0.00189296      -0.00612074       0.00364235
C       -1.24487170       7.84132867       3.69874296      -0.00254427      -0.00338259      -0.00416015
C       -2.47017026       9.99068137       3.70630205      -0.00051943       0.00136051       0.00727300
C        4.94097336       1.43180291       3.73817908       0.00463415      -0.00846424       0.01006395
C        3.73502319       3.59402720       3.88321655       0.01013946      -0.01334359       0.00020137
C        1.21572325       7.77412617       3.82145744      -0.00299552       0.00782015       0.00883632
C        0.00237707       9.95387716       3.71787270       0.00348264       0.00732410       0.01620172
C        7.40890853       1.39733384       3.69003516      -0.00790600      -0.00406223       0.00166226
C        6.18982976       3.55198641       3.71222671      -0.00786943      -0.00038851      -0.00321226
C        4.97201347       5.71710283       3.80747232      -0.00519594       0.00055987       0.00888885
C        3.71846952       7.77431692       3.82785953      -0.00074385       0.00461743      -0.01198582
C        2.46681400       9.91272290       3.74525021       0.00286520       0.00625234      -0.00166408
C        9.86148872       1.39721752       3.68631440       0.00413786      -0.00164909       0.00440984
C        8.63504966       3.54832084       3.65508454       0.00063784      -0.00012108      -0.00188234
C        7.41020082       5.69717055       3.66823830       0.00799513       0.00180197      -0.01720400
C        6.17869327       7.84143577       3.70519865       0.00399365      -0.00182251      -0.00401152
C        4.93139410       9.95406775       3.71980572      -0.00131633       0.00284579       0.00771275
V        2.46542900       5.03712334       4.47942091       0.00434506       0.01195472       0.01071220
