52
Lattice="12.336457 0.0 0.0 -6.168228499999997 10.683685154694365 0.0 0.0 0.0 15.0" Properties=species:S:1:pos:R:3:forces:R:3 energy=-459.37853532460474 free_energy=-459.37853532460474 stress="-0.005970313746947729 -0.000710246611840427 1.2102396386486457e-05 -0.000710246611840427 0.0032660090198699606 1.0882709488482179e-05 1.2102396386486457e-05 1.0882709488482179e-05 7.148359244125207e-06" pbc="T T T"
C        0.00213178       0.00938912       3.74053531       0.00068030      -0.00549102      -0.01243048
C       -1.24729338       2.11758265       3.70255566       0.00124606      -0.00253380      -0.00013624
C       -2.47538082       4.26201467       3.62789210      -0.00205118       0.00590430       0.00309235
C       -3.69916626       6.41693166       3.61393111       0.00198874       0.00666004      -0.00593280
C       -4.92443702       8.56794348       3.67579312      -0.00125213      -0.00418857       0.00606905
C        2.46518095       0.04594808       3.74996789      -0.00342535       0.00133790       0.00858124
C        1.20773634       2.19232759       3.86251985      -0.00460581       0.00176412      -0.00368814
C       -0.03861785       4.23847725       3.83253471       0.00388803      -0.00050101      -0.00930233
C       -1.26290793       6.41022434       3.69639930       0.00666329      -0.00076695      -0.00103977
C       -2.47146233       8.56760804       3.67015186      -0.00265011      -0.00449791       0.01279779
C        4.93704513       0.00625754       3.72975831       0.00147374       0.00027563      -0.00613129
C        3.70705430       2.18195039       3.86585676       0.00774980       0.00221410      -0.00480307
C        1.15599408       6.38756781       3.97715681       0.00005054      -0.00496269      -0.00208460
C       -0.00254804       8.53287782       3.75599662      -0.00597781       0.00399154      -0.00717133
C        7.41077014      -0.03500584       3.71615574       0.00257164       0.00681538       0.00513326
C        6.18470849       2.12238922       3.70189768      -0.00069358      -0.00008577       0.00334447
C        4.97456200       4.28122475       3.84547708      -0.00419326       0.01143212      -0.01093502
N        3.79840474       6.39495503       3.97551762      -0.00742088      -0.00659524       0.00157440
C        2.48305803       8.48461309       3.83805190      -0.00058661      -0.00323892       0.01171093
C        9.86754800      -0.03601564       3.72026998       0.00064247       0.00578200       0.00779513
C        8.63667183       2.11328697       3.64293730       0.00148036      -0.00368174      -0.00173340
C        7.41785629       4.26777902       3.63140339      -0.00699952      -0.00724738      -0.00295126
C        6.19493569       6.42543803       3.69781102       0.00395954      -0.00270325       0.00233605
C        4.94636676       8.52514041       3.76449942       0.00674641       0.00552196       0.00184656
C       -0.00685400       1.43688555       3.76261272      -0.00185762      -0.00885487       0.00148858
C       -1.25550952       3.53627649       3.69427327       0.00140761       0.00186265       0.00032546
C       -2.47820333       5.69385325       3.62771232       0.00318577       0.01038746       0.00064165
C       -3.69719148       7.84848227       3.64237462      -0.00197596      -0.00067535      -0.00200781
C       -4.92797183       9.99797019       3.72068587      -0.00019646      -0.00970001       0.00976804
C        2.45698090       1.47714558       3.83963815      -0.00181356       0.00551964       0.01375088
N        1.14191203       3.56726788       3.97111900       0.00016078      -0.00106392      -0.00122077
C       -0.03454702       5.68042403       3.83959058       0.00235326      -0.00469913      -0.00402369
C       -1.24511079       7.83928007       3.69742003      -0.00117194      -0.00156654       0.00390462
C       -2.47137140       9.99649195       3.71500763      -0.00071371      -0.00164840       0.00502572
C        4.94178745       1.42877885       3.75893061       0.00570981       0.00003558       0.00081785
C        3.78365249       3.57463209       3.98655160       0.00582524      -0.00011678       0.00320847
C        1.23252907       7.78001080       3.86025655      -0.00735591      -0.00161518       0.00314302
C        0.00218616       9.95527962       3.72958927       0.00096063       0.00591098      -0.00811419
C        7.41099022       1.39405960       3.67384376       0.00094519       0.00131254       0.00351909
C        6.20267100       3.55147704       3.70142575      -0.01100445      -0.00044666      -0.00006513
C        4.97894486       5.72265134       3.83628966      -0.00202428       0.00397769      -0.01175522
C        3.73211668       7.77001187       3.86378349       0.00513145      -0.00586546      -0.00730552
C        2.47446895       9.91570693       3.74947628       0.00267750       0.00322452       0.01098357
C        9.86395524       1.39386745       3.67394516       0.00103682       0.00356896       0.00938153
C        8.63868332       3.54466771       3.61364870      -0.00170291      -0.00334122      -0.00306046
C        7.41489845       5.69964961       3.63158809       0.00288418      -0.00364536      -0.00218495
C        6.18685643       7.84425819       3.70590791       0.00133166      -0.00044797      -0.00387353
C        4.93746255       9.95257871       3.74075463      -0.00127415       0.00892705      -0.01221053
V        2.47040334       4.98366977       4.57400866       0.00412106       0.00081165      -0.00279417
O        2.46263198       4.99279949       6.25183798       0.00250773      -0.00497955      -0.00243476
O        2.30589177       4.97171071       7.68376781      -0.00687750      -0.00504113      -0.00411414
H        3.24503257       4.99854444       7.95922956      -0.00155490       0.00296398       0.00326489
