50
Lattice="12.336457 0.0 0.0 -6.168228499999997 10.683685154694365 0.0 0.0 0.0 15.0" Properties=species:S:1:pos:R:3:forces:R:3 energy=-445.0072649020052 free_energy=-445.0072649020052 stress="-0.00033190053477184914 -0.00036965954867985306 1.6900072825041363e-06 -0.00036965954867985306 -0.004971369780800323 -3.339350031794677e-06 1.6900072825041363e-06 -3.339350031794677e-06 -5.700925400183374e-07" pbc="T T T"
C        0.01463773      -0.01968047       3.87557205      -0.00192434       0.00287675       0.00453853
C       -1.21305123       2.12517373       3.94886905      -0.00101208      -0.00275743       0.00162740
C       -2.44657591       4.26150016       3.91750036       0.00402868       0.00115195      -0.00547713
C       -3.67891596       6.39355688       3.84780162       0.00185219      -0.00095983       0.00340084
C       -4.93300409       8.51927573       3.78591338       0.00548360      -0.00531579       0.00617500
C        2.47912931      -0.03381804       3.95137202       0.00112354       0.00134450      -0.00810900
C        1.25324948       2.09056813       3.98608648      -0.00091089       0.00447964      -0.00165306
C        0.03467760       4.22594777       3.80314374      -0.00941190      -0.00526432       0.00018485
C       -1.20776473       6.39642481       3.68630092      -0.00170871      -0.00073949       0.00927450
C       -2.45120242       8.52480976       3.81905965       0.00129791       0.00515491       0.00287060
C        4.94491651      -0.01535909       3.91614147       0.00419313      -0.00072029      -0.00002181
C        3.70005763       2.11437636       4.02136591      -0.00522803       0.00920302      -0.00224721
N        2.45207817       4.19297630       4.06502457      -0.00405773      -0.01655473      -0.00538405
P        1.06162188       6.46056564       2.10999825       0.00191118      -0.00159075      -0.01140415
C        0.00058624       8.55832046       3.57648624      -0.00381957       0.00266687      -0.00195520
C        7.40896848       0.01546136       3.80670182       0.00477849      -0.00461482       0.00290531
C        6.17236707       2.13044265       4.00076109      -0.00335256      -0.00944567       0.00072123
C        4.91830192       4.25568221       3.86757079       0.00383937       0.00848893      -0.00409008
S        3.70067553       6.34226102       2.56502741       0.00493509      -0.01094531       0.01300718
C        2.49371329       8.63796747       3.32390737       0.00137613       0.00629778      -0.01031013
C        9.88771736       0.01284542       3.78791278      -0.00628639       0.00259800      -0.00944959
C        8.64859180       2.13542959       3.96253860       0.00676440      -0.00315124      -0.00521547
C        7.40910539       4.26392086       3.94328405       0.00445661      -0.00649877       0.00621214
C        6.18039163       6.38845633       3.66882535      -0.00068067       0.00445849      -0.00372575
C        4.95952271       8.56013223       3.52903505      -0.00556452       0.00273607       0.00511497
C        0.01479261       1.40106407       3.94884479       0.00081869       0.00357628       0.00319442
C       -1.20744682       3.54417237       3.91229049      -0.00477246      -0.00468199       0.00529312
C       -2.43490317       5.68787941       3.84486854       0.00267355       0.00255711       0.00379495
C       -3.68632580       7.81405244       3.82278082       0.00585904      -0.00153936      -0.00184793
C       -4.92565788       9.94431097       3.87290247       0.00037086      -0.00336283       0.00343484
C        2.47879863       1.38549476       4.00987662      -0.00237302       0.00382406      -0.01195339
C        1.25926021       3.50280091       3.94908107      -0.00522793      -0.00126368       0.00064508
C        0.03060401       5.64882558       3.48574519      -0.00733147      -0.01160072       0.01251207
C       -1.20851289       7.81783974       3.68652807      -0.00585290       0.00310018       0.00354974
C       -2.45247340       9.94474986       3.90291654       0.00416960       0.00470141       0.00227551
C        4.94121699       1.41003905       3.99523292      -0.00835366      -0.00182306      -0.00587746
C        3.66935434       3.53655426       3.98619507       0.00452609       0.00850706       0.00008079
C        1.24448124       7.90486802       3.20591097       0.00089978       0.00923120       0.00787416
C        0.00841263       9.96695840       3.78144048       0.00410734      -0.00110022      -0.00511063
C        7.40983033       1.42567714       3.94604052       0.00469014      -0.00570798       0.00703678
C        6.16840548       3.55193896       3.97504828      -0.00225464      -0.00305364       0.00552079
C        4.98993420       5.62988355       3.52107915      -0.00401613       0.00739672       0.00311259
C        3.72096755       7.95837972       3.20703128       0.00209768      -0.00073429      -0.01205525
C        2.48178326      10.01601883       3.65181411       0.00018147      -0.00358694      -0.00009977
C        9.88638040       1.42553459       3.92293764       0.00161927      -0.00272908       0.00046542
C        8.65175635       3.55690973       3.96826205       0.01046004      -0.00302395      -0.00421748
C        7.41835268       5.68303880       3.84790828      -0.00260928      -0.00253013      -0.00086955
C        6.17346397       7.81706318       3.63094303       0.00084134       0.00312199       0.00233554
C        4.95140621       9.97360150       3.74341011      -0.00668077       0.00637184      -0.00897577
V        1.94460264       6.08981284       4.12537078       0.00407441       0.01145152       0.00289150
