50
Lattice="12.336457 0.0 0.0 -6.168228499999997 10.683685154694365 0.0 0.0 0.0 15.0" Properties=species:S:1:pos:R:3:forces:R:3 energy=-440.0469421654845 free_energy=-440.0469421654845 stress="0.0006236565626772173 0.0030798335981324894 1.1126084173198745e-05 0.0030798335981324894 0.0018518956106198417 -6.0576872425305405e-06 1.1126084173198745e-05 -6.0576872425305405e-06 -4.471169854389127e-06" pbc="T T T"
C        0.04367863       0.02151778       3.81027616       0.00278026       0.00665953       0.00347461
C       -1.17935821       2.16887615       3.63776972      -0.00242413       0.00437308      -0.00609277
C       -2.45773463       4.29975328       3.66186828       0.00283023      -0.00297024       0.01683212
C       -3.71411820       6.43299322       3.83421208      -0.00114091      -0.00601875       0.00249132
C       -4.91662038       8.55971301       3.91429415      -0.00588733      -0.00251153       0.00066764
C        2.51546931       0.02692436       3.87861828       0.00373029       0.00165351      -0.00202765
C        1.31240705       2.11001786       3.46250279       0.00005694       0.00343154      -0.00958534
C       -0.04038082       4.36187919       3.35009373      -0.00275421      -0.00531033      -0.00032849
C       -1.28893362       6.47408633       3.54265879       0.01271030      -0.00398064       0.01141655
C       -2.44418420       8.56011780       3.89668713      -0.00540416       0.01006504      -0.00467823
C        4.98494473      -0.00920977       3.91735025       0.00634919      -0.00282045       0.00790556
C        3.79921251       2.12288640       3.81721080      -0.00111583      -0.00481393      -0.00619962
O        0.24334596       6.09968507       1.70197579      -0.00079903       0.00031942       0.00170532
C        0.06161925       8.52560040       3.92840984      -0.00858815       0.00108624       0.00170277
C        7.45012354       0.00672209       3.91811190      -0.00331120       0.00079725       0.00192970
C        6.22112168       2.14135686       3.90719107      -0.01049282       0.00225634      -0.00647236
C        4.97092094       4.24004832       3.93002212       0.00593260      -0.00040232       0.00516101
C        3.67595697       6.41116869       4.01387366       0.01135045       0.00206140       0.00147442
C        2.50144368       8.55524187       3.99601264       0.00061617       0.00359414      -0.00141327
C        9.91482330       0.01985566       3.85385495       0.00551023       0.00136771      -0.00808830
C        8.68327780       2.15648646       3.81409328      -0.00181215      -0.00362387       0.00044887
C        7.41719261       4.29078193       3.86296549       0.00393432      -0.00059425      -0.00115688
C        6.14504405       6.40100251       3.92819552      -0.00805531       0.00202340       0.00720417
C        4.96543898       8.55561728       3.92878713      -0.00282106       0.00007176      -0.00749384
C        0.06654873       1.45647557       3.63732862      -0.00190385       0.00912960      -0.00478240
C       -1.22083779       3.59035529       3.56636773      -0.00285149       0.00165367       0.00429945
C       -2.48429922       5.73170592       3.68011201       0.00686518      -0.00364132      -0.00030689
C       -3.68678928       7.85199787       3.88918747      -0.00389131      -0.00101711      -0.00713359
C       -4.89755180       9.99113765       3.87966265       0.00199295       0.00026092      -0.00898369
C        2.54337134       1.45517527       3.74710017      -0.00166057      -0.00210830      -0.00780479
S        1.39190219       3.67027975       2.67797345       0.00653715      -0.00272914      -0.01281050
C       -0.20524366       5.76152498       2.82775665       0.00747109      -0.00875914       0.00342575
C       -1.20940483       7.84889438       3.80576713      -0.00879391       0.00399580      -0.00873344
C       -2.42705226       9.98353686       3.92538736       0.00560563       0.00838420       0.00248804
C        4.99270500       1.42486534       3.89722894      -0.00463378      -0.00637235       0.00775039
O        3.82123015       3.49258233       3.90218970       0.01229595      -0.00493572       0.00174304
C        1.29063540       7.83776327       4.05118400      -0.00204394       0.00886847       0.00478859
C        0.05299723       9.96644511       3.93298960       0.00048090      -0.00400464       0.00136609
C        7.44825003       1.43902246       3.88646108      -0.00959929       0.00250213       0.00232518
C        6.19567139       3.56181498       3.91253553       0.00347659       0.00235695      -0.01155227
C        4.88498894       5.66951333       3.96224300       0.00229740      -0.00112869       0.00277628
C        3.72653076       7.82137401       3.98260145       0.00354433      -0.00187205       0.01222936
C        2.51284619       9.99239137       3.92358913       0.00131590       0.00514786      -0.01028355
C        9.92706351       1.45128502       3.77097297       0.00307267       0.00145506       0.00447261
C        8.65905584       3.58179810       3.78406498       0.00423682      -0.00458724       0.00886873
C        7.38582058       5.71050897       3.87919710      -0.00911543      -0.00015570      -0.00219940
C        6.18009662       7.83270328       3.92602015      -0.00888641      -0.00063238       0.00122704
C        4.97486720       9.98567269       3.86755440       0.00445285       0.00067538       0.00589290
W        1.63906256       5.70666901       4.37003529      -0.01127113      -0.01034793       0.00293924
O        2.02100896       4.56580105       5.62452635      -0.00018902       0.00114759      -0.00087944
