51
Lattice="12.336457 0.0 0.0 -6.168228499999997 10.683685154694365 0.0 0.0 0.0 15.0" Properties=species:S:1:pos:R:3:initial_magmoms:R:1:forces:R:3 energy=-446.03087337309705 free_energy=-446.03087337309705 stress="0.0010240943707514303 0.0030197404069371753 2.2023378662014775e-05 0.0030197404069371753 0.002590978487043952 4.027535741058332e-06 2.2023378662014775e-05 4.027535741058332e-06 1.1083948503299166e-05" pbc="T T T"
C        0.05074295       0.01752259       3.79117784       0.00000000      -0.00330975      -0.00472965       0.00294933
C       -1.17126712       2.17367138       3.69154733       0.00000000       0.00903491      -0.00421952      -0.00586218
C       -2.44101855       4.29709959       3.72439793       0.00000000       0.00234812      -0.00503989      -0.00320111
C       -3.71015079       6.43328908       3.81657522       0.00000000      -0.00012853       0.00204879      -0.00607780
C       -4.90719309       8.56127502       3.86739895       0.00000000      -0.00210722       0.00258712      -0.00877503
C        2.52777465       0.03043965       3.76225359       0.00000000      -0.00742226       0.00543573       0.01106368
C        1.30133970       2.09905272       3.37604042       0.00000000      -0.00376385       0.00491609      -0.00927478
C       -0.00068237       4.36284218       3.47955317       0.00000000       0.00043739      -0.00132597       0.00279862
C       -1.29395727       6.47113073       3.50831916       0.00000000       0.00688295      -0.00207210       0.00106469
C       -2.43138980       8.56062127       3.83415364       0.00000000      -0.00007670      -0.00442718      -0.00155382
C        4.99604913      -0.00906237       3.84454127       0.00000000      -0.00052856       0.00377440      -0.00919611
C        3.81677975       2.12770548       3.58212617       0.00000000      -0.00204796      -0.00736584       0.00234421
O        0.43296991       6.08860110       1.87622644       0.00000000       0.00692449       0.01016152       0.01073579
C        0.08263315       8.51363632       3.92282833       0.00000000       0.00498683       0.00479956      -0.00021109
C        7.45893986       0.00665986       3.92260188       0.00000000      -0.00169812      -0.00118842       0.00552786
C        6.22801640       2.14093609       3.85613170       0.00000000       0.00175559       0.00548260      -0.00280347
C        4.98208344       4.24008318       3.77705791       0.00000000      -0.00406970       0.00080540      -0.00368059
C        3.69221683       6.41136903       4.10838258       0.00000000      -0.00278128      -0.00470609       0.00416155
C        2.49903611       8.54611456       4.04896422       0.00000000      -0.00117399      -0.00135196       0.00978984
C        9.92334540       0.01845072       3.89543800       0.00000000      -0.00468809       0.00381338      -0.01233224
C        8.69183295       2.15630341       3.85981084       0.00000000      -0.00668704      -0.00084353      -0.00090185
C        7.42829058       4.29075611       3.86998453       0.00000000       0.00160935       0.00152305       0.00125422
C        6.14677210       6.39910690       3.90187942       0.00000000       0.00658410      -0.00195714       0.00731519
C        4.97106983       8.55163530       3.94717421       0.00000000       0.00459587      -0.00672019       0.00918955
C        0.06764770       1.45122165       3.63175416       0.00000000       0.00563931      -0.00612756      -0.00434076
C       -1.20193593       3.59216971       3.66114162       0.00000000       0.00729001      -0.00624310      -0.00137852
C       -2.47773217       5.73167404       3.68328846       0.00000000       0.00426723       0.00090438       0.01442558
C       -3.67961180       7.85351889       3.84027457       0.00000000      -0.00459480       0.00081360      -0.00174653
C       -4.88600455       9.99190230       3.81223696       0.00000000      -0.00564390       0.00063053       0.00898518
C        2.55760785       1.45486521       3.57874915       0.00000000      -0.00725260       0.00383207      -0.00575833
S        1.30751930       3.64940536       2.62577077       0.00000000      -0.00998889       0.00122786       0.00191514
C       -0.16678007       5.73053415       2.91062143       0.00000000       0.00843886       0.00120555       0.00801430
C       -1.20138997       7.84521663       3.76596294       0.00000000       0.00566692      -0.00254540       0.00238569
C       -2.41665919       9.98595805       3.83391129       0.00000000      -0.00399264       0.00182615       0.00267334
C        4.99967658       1.42464323       3.78578648       0.00000000       0.00136193       0.00416510      -0.00187551
O        3.89147198       3.49101913       3.41022968       0.00000000       0.00845874      -0.01061193       0.00287048
C        1.30261107       7.83774053       4.09971435       0.00000000      -0.00190782       0.00408953       0.00046076
C        0.06298869       9.96047054       3.90765521       0.00000000       0.00096362       0.00597866      -0.00204837
C        7.45449301       1.44008101       3.89230457       0.00000000      -0.00433462      -0.00362403      -0.00452057
C        6.20431367       3.56475250       3.86708318       0.00000000      -0.00120066       0.00478116       0.00921599
C        4.88013872       5.66961347       3.92741069       0.00000000       0.00183083       0.00306975      -0.00026084
C        3.73700144       7.80591297       4.04806652       0.00000000      -0.00021765      -0.00564497      -0.00492262
C        2.52159523       9.99100576       3.95807456       0.00000000      -0.00171560      -0.00127998      -0.00995685
C        9.93495334       1.45150398       3.82578913       0.00000000      -0.00119593       0.00618741      -0.00736535
C        8.67157214       3.58138177       3.83072186       0.00000000      -0.00137805      -0.00089675       0.00152357
C        7.39083180       5.71098891       3.86618810       0.00000000       0.00433399      -0.00034812      -0.00721788
C        6.18777189       7.83232653       3.90831083       0.00000000       0.00745387      -0.00284946       0.00070236
C        4.98285941       9.98199191       3.88749752       0.00000000      -0.00447877      -0.00376593      -0.00671540
W        1.61705495       5.65715881       4.73338645       0.00000000       0.00237545       0.00384600      -0.00513496
O        0.49451493       6.11010479       5.99203652       1.00000000      -0.01135743       0.00397754       0.00237030
O        2.46675632       4.25961729       5.38199636       1.00000000      -0.00349793      -0.00199823       0.00337534
