52
Lattice="12.336457 0.0 0.0 -6.168228499999997 10.683685154694365 0.0 0.0 0.0 15.0" Properties=species:S:1:pos:R:3:initial_magmoms:R:1:forces:R:3 energy=-467.39825744528025 free_energy=-467.39825744528025 stress="-0.0015202022912364137 -0.0012830207083761671 1.560609903805905e-05 -0.0012830207083761671 -6.419896084315826e-05 7.941672707569453e-06 1.560609903805905e-05 7.941672707569453e-06 -7.939888778712468e-06" pbc="T T T"
C       -0.01888553      -0.01103149       3.54582845       0.00000000       0.00033266      -0.00078997      -0.00416772
C       -1.25900889       2.12033150       3.64436559       0.00000000      -0.00198166       0.00267154       0.00343457
C       -2.49268888       4.25554887       3.64498916       0.00000000       0.00638552       0.00411117       0.00138436
C       -3.71895111       6.39614363       3.54787626       0.00000000       0.00983798      -0.00186610      -0.01368356
C       -4.94961337       8.53652248       3.50075111       0.00000000      -0.00118504      -0.00623803      -0.00585776
C        2.44951011      -0.01250441       3.52031337       0.00000000       0.00922062       0.00253292       0.00096586
C        1.21138654       2.11122216       3.69360348       0.00000000      -0.00759105       0.00207191      -0.00168129
C       -0.03164589       4.25297672       3.89683600       0.00000000      -0.00409662      -0.00787184       0.00104676
C       -1.26635463       6.39938975       3.70301046       0.00000000       0.00245399       0.00460145      -0.00075373
C       -2.48548322       8.53453775       3.52629755       0.00000000       0.00510022       0.00071690       0.00107983
C        4.91625647      -0.01310399       3.57411412       0.00000000       0.00539584      -0.00220976       0.00454131
C        3.67536848       2.12686914       3.69139145       0.00000000      -0.00309902      -0.00034859      -0.00940463
C        2.42922585       4.15330469       4.24075084       0.00000000      -0.00410408      -0.00522137       0.00795509
C        1.11250244       6.43230163       4.24957524       0.00000000      -0.01006495      -0.00232323      -0.00394707
C       -0.02017921       8.52524211       3.70076401       0.00000000       0.00063453       0.00101919      -0.00154950
C        7.38339047      -0.02459302       3.65966261       0.00000000      -0.00630498      -0.00173283      -0.00421143
C        6.14054686       2.12893620       3.65359924       0.00000000      -0.00247210      -0.00464094      -0.00524102
C        4.90172160       4.28955278       3.86760877       0.00000000      -0.00846725      -0.00432715      -0.00553565
N        3.86531601       6.50217226       4.31435515       0.00000000       0.00131956      -0.00468524      -0.00049479
C        2.46602435       8.50584953       3.87700505       0.00000000       0.00337835       0.00707716      -0.00029367
C        9.84625775      -0.02303445       3.64314081       0.00000000       0.00071362       0.00235106      -0.01181489
C        8.60884351       2.11844299       3.62551612       0.00000000       0.00455916       0.00089494      -0.00131758
C        7.37282635       4.26102053       3.63142659       0.00000000      -0.00030244       0.00410335       0.00691518
C        6.15954647       6.40789640       3.65907280       0.00000000       0.00141208       0.00346682      -0.00353848
C        4.93059855       8.53730606       3.66319769       0.00000000      -0.00394053       0.00213162       0.00480859
C       -0.02096322       1.41082635       3.61204922       0.00000000      -0.00761302       0.00118854       0.00039371
C       -1.25645231       3.54575498       3.71327896       0.00000000      -0.00064242      -0.00147034       0.00939759
C       -2.48904352       5.68257030       3.61702826       0.00000000       0.00826533       0.00258617      -0.00356710
C       -3.71558903       7.82081824       3.50709304       0.00000000       0.00380349      -0.00281561      -0.00548384
C       -4.95220390       9.96313394       3.50272324       0.00000000       0.00652937      -0.00234179       0.00283040
C        2.44650594       1.41170051       3.61881619       0.00000000      -0.00321807       0.00620505       0.00195329
C        1.21329087       3.53415236       3.93814936       0.00000000      -0.00157792      -0.00388018      -0.00106697
C       -0.03230254       5.69006775       3.94556362       0.00000000      -0.00725244      -0.00389613      -0.00437158
C       -1.25425654       7.81890844       3.62920223       0.00000000       0.00495350       0.00308737      -0.00571602
C       -2.48431230       9.95944852       3.52213180       0.00000000       0.00963228      -0.00012436       0.00319993
C        4.90946250       1.41555001       3.62505669       0.00000000      -0.00077016      -0.00616210       0.00385294
C        3.65308513       3.55898759       3.91682016       0.00000000      -0.00957666      -0.00220348       0.00356038
C        1.20886651       7.78937574       3.92722162       0.00000000      -0.00027715       0.00527303       0.00445811
C       -0.01855082       9.94980420       3.63108952       0.00000000      -0.00202270      -0.00290334       0.00031375
C        7.37490863       1.40594455       3.63372863       0.00000000       0.00031247      -0.00109662       0.00047321
C        6.12880100       3.56350200       3.70240211       0.00000000      -0.00600588      -0.00186370       0.00265350
C        4.94445437       5.72638012       3.93282036       0.00000000       0.00389204      -0.00198315      -0.00455046
C        3.73260809       7.82565193       3.93795918       0.00000000       0.00190772      -0.00241798       0.00015739
C        2.45145383       9.93163637       3.71312341       0.00000000      -0.00205224       0.00572773       0.00010181
C        9.84410218       1.40481004       3.62223173       0.00000000       0.00417870      -0.00018889       0.00312063
C        8.60804605       3.54499241       3.61759466       0.00000000       0.00558773       0.00494775       0.00223373
C        7.38298467       5.68410901       3.59032627       0.00000000       0.00566784       0.00550446       0.01110127
C        6.15957731       7.82744081       3.58500791       0.00000000      -0.00467512       0.00263667       0.01639653
C        4.91588568       9.95885667       3.59852308       0.00000000      -0.00178269      -0.00013974      -0.00610379
W        2.60015024       5.76488152       5.78778289       0.00000000      -0.00327099       0.00843885       0.00394565
O        3.63549929       4.72582836       6.76145930       1.00000000       0.00293482      -0.01391199       0.01146251
O        2.20477393       7.16554476       6.77896091       1.00000000      -0.00406223       0.00630877      -0.00938535
