51
Lattice="12.336457 0.0 0.0 -6.168228499999997 10.683685154694365 0.0 0.0 0.0 15.0" Properties=species:S:1:pos:R:3:initial_magmoms:R:1:forces:R:3 energy=-454.92016008453584 free_energy=-454.92016008453584 stress="0.00021440403640216813 -0.0010943840973142265 -7.808835899247065e-08 -0.0010943840973142265 0.007540180146307608 2.357572063810462e-05 -7.808835899247065e-08 2.357572063810462e-05 7.218519796561493e-06" pbc="T T T"
C       -0.01719961      -0.00104846       3.68367247       0.00000000      -0.00521731      -0.00150700       0.00424934
C       -1.27059321       2.10916834       3.67229353       0.00000000      -0.00295881      -0.00148646      -0.00187139
C       -2.50382002       4.25020189       3.61363877       0.00000000       0.01134367       0.00762815      -0.00414908
C       -3.71849239       6.39897398       3.57924852       0.00000000       0.00155731       0.00199735      -0.00745888
C       -4.94721886       8.54957527       3.60315666       0.00000000      -0.00679521      -0.00424785       0.00249798
C        2.45486430       0.02231322       3.80678477       0.00000000       0.00289389      -0.00970440      -0.00416409
C        1.20338794       2.16177635       3.91241142       0.00000000       0.00476036       0.00515040      -0.01013656
C       -0.04781992       4.25577276       3.88966349       0.00000000      -0.00017399       0.00295062       0.00429496
C       -1.26558611       6.40140199       3.75728654       0.00000000       0.00699810       0.00480586      -0.00521892
C       -2.48144353       8.54524199       3.72307064       0.00000000      -0.00480127      -0.00074505       0.00594270
C        4.92196262      -0.00832696       3.81458107       0.00000000       0.01213545       0.00574798      -0.00072191
C        3.69273315       2.18445776       3.98628517       0.00000000       0.00301422       0.00367055      -0.00267655
N        1.11584115       6.36511604       4.23315191       0.00000000      -0.01451810       0.00464154       0.01142633
C       -0.00062497       8.49564885       3.83910367       0.00000000      -0.00371795      -0.00441026      -0.00717928
C        7.39249288      -0.05284475       3.73664675       0.00000000      -0.00488472       0.00133289      -0.00656556
C        6.14889668       2.12419406       3.71355846       0.00000000       0.00187191      -0.00052628       0.00280426
C        4.88986215       4.29758412       3.71814736       0.00000000       0.00086397       0.00073780       0.00005122
O        3.79607406       6.44982793       3.27526548       0.00000000      -0.00409033      -0.00428904       0.00682959
C        2.46594607       8.42911513       3.74413195       0.00000000       0.00397221       0.00547697      -0.01324973
C        9.83926072      -0.05187464       3.64881494       0.00000000      -0.00343854      -0.00207041       0.00697668
C        8.60569686       2.10195201       3.61768311       0.00000000      -0.00217222      -0.00067117      -0.00232902
C        7.37016632       4.25423747       3.55302798       0.00000000      -0.00117367       0.00181788      -0.00089978
C        6.16126799       6.40598082       3.47159753       0.00000000      -0.00356927       0.00893225      -0.00210771
C        4.92529535       8.52669022       3.54848213       0.00000000       0.00379628      -0.00002364      -0.00492866
C       -0.03023466       1.41816153       3.74688261       0.00000000      -0.00010302       0.00178066      -0.00772775
C       -1.28311160       3.53571068       3.69065454       0.00000000       0.00555621       0.00113081       0.01264959
C       -2.49160664       5.68096232       3.63451547       0.00000000       0.01134400       0.00904075       0.01186079
C       -3.71188367       7.83074141       3.62764342       0.00000000      -0.00743859      -0.00336179       0.00126201
C       -4.94307598       9.98244166       3.69713869       0.00000000      -0.00681567      -0.00775460       0.00871079
C        2.45439465       1.44999360       3.93523963       0.00000000       0.00419198      -0.00593055       0.00369054
C        1.13594889       3.55905380       4.05523949       0.00000000       0.00509659       0.00033907      -0.00951939
C       -0.04473341       5.70244183       3.94840428       0.00000000      -0.00612801      -0.00167970       0.00385693
C       -1.25277035       7.81913575       3.77491228       0.00000000      -0.00517226       0.00062713      -0.00125808
C       -2.48349971       9.97561325       3.79099194       0.00000000       0.01158230       0.00132303      -0.00705060
C        4.92014772       1.42306062       3.83722807       0.00000000       0.00417911       0.00586704      -0.00360342
C        3.74385814       3.59722167       4.13399621       0.00000000      -0.00344451      -0.00578849       0.00122554
C        1.21019447       7.73153482       3.95301325       0.00000000      -0.00273425      -0.00598468      -0.00368275
C       -0.00938552       9.93175700       3.79350516       0.00000000       0.00255534      -0.00226482       0.00654718
C        7.38097826       1.38605318       3.67800957       0.00000000      -0.00308995      -0.00286947      -0.00129952
C        6.13548931       3.55729785       3.62926870       0.00000000      -0.00135984      -0.00470158      -0.00224959
C        4.94341612       5.71884113       3.46469766       0.00000000      -0.00238070       0.00549844       0.00873473
C        3.72550673       7.80215182       3.52630993       0.00000000       0.01001768      -0.00515763      -0.00148806
C        2.45092452       9.88035211       3.70487651       0.00000000      -0.00289342       0.00653423       0.00875831
C        9.83496857       1.38330180       3.63492347       0.00000000      -0.00424426      -0.00300004       0.00039394
C        8.60285916       3.53350383       3.57758292       0.00000000       0.00597141       0.00480691      -0.00407582
C        7.38753630       5.68071783       3.52513398       0.00000000      -0.00508710       0.00694560      -0.00181630
C        6.16759431       7.83267434       3.51260706       0.00000000      -0.00232701       0.00439282       0.00734804
C        4.91575520       9.95226370       3.62675019       0.00000000      -0.00501645      -0.00261233      -0.00281224
W        2.40549197       4.90716994       5.26957156       0.00000000       0.00456849      -0.01614953       0.00841430
O        3.55521702       6.07633259       5.92130564       1.00000000      -0.00290485      -0.00091759      -0.00295050
O        1.72850791       4.11435251       6.66873176       1.00000000       0.00038078      -0.00532236      -0.00533464
