50
Lattice="12.336457 0.0 0.0 -6.168228499999997 10.683685154694365 0.0 0.0 0.0 15.0" Properties=species:S:1:pos:R:3:forces:R:3 energy=-444.6077970072287 free_energy=-444.6077970072287 stress="-0.003018385216920983 -9.769195744933905e-05 3.8850680341917235e-06 -9.769195744933905e-05 0.0007274137982218692 -6.260452852537519e-06 3.8850680341917235e-06 -6.260452852537519e-06 1.1470894626343003e-05" pbc="T T T"
C       -0.01221038      -0.00461116       3.72630419       0.01245499      -0.00393378       0.00093715
C       -1.25184224       2.12125888       3.64599100      -0.00029657      -0.00545010       0.01025823
C       -2.48266564       4.26418813       3.63636836       0.00124462      -0.00716616       0.00825861
C       -3.71000159       6.40112336       3.71495618      -0.00278514      -0.00043578      -0.00059680
C       -4.94807829       8.54178593       3.75608194      -0.00480863      -0.00392075      -0.01101876
C        2.45823054       0.00623001       3.79903029      -0.00445439      -0.00692267       0.00317672
C        1.21837677       2.14943379       3.85401511       0.00312200      -0.00032479      -0.00166710
C       -0.03315447       4.27270429       3.76439405      -0.00506862       0.00962256       0.01043109
C       -1.24403602       6.40504164       3.73870343       0.00010952       0.00645156       0.00407561
C       -2.47080625       8.54097047       3.74099034      -0.00232818       0.00670866       0.00661285
C        4.92824356      -0.00482178       3.75356684      -0.01150720       0.00374103      -0.00124045
C        3.69470666       2.14960698       3.89644065       0.01267937       0.00246900      -0.00576092
O        1.15217319       6.41711728       3.59580825       0.00364479      -0.00418474       0.00131319
C       -0.00399531       8.52179521       3.73581099      -0.00068731       0.01000520       0.00661425
C        7.39775741      -0.02969127       3.68059093      -0.00448240       0.00937010      -0.00444362
C        6.16651455       2.12221665       3.71607438       0.00538941      -0.01009556      -0.00576122
C        4.94872213       4.27436568       3.85686684       0.00583042      -0.00160950      -0.01742781
O        3.76923548       6.41501460       3.64180673      -0.00020772      -0.00946632      -0.00521737
C        2.45916454       8.48021052       3.74612639      -0.00379161      -0.00573043      -0.01131267
C        9.85436702      -0.02967890       3.65847839       0.00274512      -0.00052095       0.00609676
C        8.62474266       2.11879919       3.62186509       0.00087499      -0.00033562       0.00158038
C        7.39703857       4.26496690       3.68631300      -0.00223508      -0.01414212       0.00568535
C        6.16123320       6.40655388       3.80264408      -0.00224361       0.00462117      -0.00065749
C        4.92136380       8.52257287       3.74736291       0.00102768       0.01023477      -0.00504806
C       -0.01982862       1.41530294       3.72711830       0.00339072      -0.00514215       0.00463342
C       -1.26629161       3.54612480       3.64119922       0.00048983      -0.00291739       0.01546961
C       -2.48005174       5.68632445       3.69149353       0.00039119      -0.00398806       0.00699246
C       -3.70951561       7.82870239       3.74229549      -0.00218896       0.00445691      -0.01516359
C       -4.94238346       9.97286106       3.76305400       0.00163983      -0.01095731      -0.00203042
C        2.45666175       1.43181785       3.87118779       0.00940967      -0.00391412      -0.01183942
C        1.15597166       3.54765431       3.94121008      -0.00661678       0.00177653       0.00785568
C       -0.05333295       5.68223061       3.79493006       0.00182166       0.00949587       0.00371044
C       -1.24882206       7.82682789       3.73262036      -0.00027997       0.00874147       0.01496101
C       -2.47739371       9.97197643       3.76874295      -0.00836390       0.00193178      -0.00083848
C        4.93447166       1.41545086       3.78190474       0.00645208      -0.00256909       0.00094657
C        3.75607944       3.54719477       4.00204022       0.00410623       0.00719953       0.00402039
C        1.20266539       7.84329526       3.77183118      -0.00413512      -0.00417681      -0.00847360
C       -0.00562090       9.95485375       3.71971689      -0.00968247       0.01379774      -0.00331154
C        7.39642267       1.40333151       3.66083431       0.00374739       0.00355605      -0.00647104
C        6.18145764       3.54737594       3.72944388      -0.00024312      -0.01516316      -0.00919054
C        4.97054468       5.68437034       3.87366446       0.00282740      -0.00107517      -0.01014223
C        3.71540753       7.84427529       3.77724933       0.00115442       0.00479227       0.01407353
C        2.45821851       9.93415434       3.68275189      -0.00361209       0.00045800       0.00419914
C        9.85389835       1.40301309       3.62363364      -0.00206813      -0.00161468       0.00487183
C        8.62475732       3.54751820       3.63138071       0.00082879      -0.00738176      -0.00360788
C        7.39590478       5.68716028       3.73421729      -0.00429448      -0.00726785       0.00120692
C        6.16635020       7.82781502       3.76839053      -0.00555402       0.00451689      -0.00364816
C        4.92180954       9.95513248       3.70168964       0.01045021       0.00751020       0.00338599
W        2.44170124       5.11295442       4.57287567       0.00018719       0.00983342      -0.00048844
O        2.40995023       5.10759535       6.27515031      -0.00408399      -0.00088389      -0.00600956
