52
Lattice="12.336457 0.0 0.0 -6.168228499999997 10.683685154694365 0.0 0.0 0.0 15.0" Properties=species:S:1:pos:R:3:forces:R:3 energy=-452.5037019897497 free_energy=-452.5037019897497 stress="-0.004365779648306893 1.6215309532153706e-05 -5.5745106855079465e-06 1.6215309532153706e-05 0.0006117815000915367 -4.1663386221168014e-05 -5.5745106855079465e-06 -4.1663386221168014e-05 -2.3342887479719062e-05" pbc="T T T"
C       -0.00390772      -0.00565898       3.74342684       0.00337690       0.00136954      -0.00485744
C       -1.24533937       2.11764870       3.68319953       0.00886733       0.00289304      -0.00376881
C       -2.47578876       4.26087740       3.63359910       0.00584013       0.00416565      -0.00504115
C       -3.70261840       6.40116610       3.66689268      -0.00598277      -0.00064491      -0.00413349
C       -4.93809072       8.54435152       3.72256405      -0.00723213      -0.00485208      -0.00505346
C        2.46579743       0.00887547       3.80736821       0.00159114      -0.00082911       0.00064853
C        1.22486509       2.14956763       3.90222349       0.00062773       0.00438318      -0.00285479
C       -0.03062113       4.27206696       3.82117020       0.00105300       0.00304590       0.00130486
C       -1.24612052       6.40749439       3.72524235      -0.00330714      -0.00092253      -0.00229317
C       -2.46608404       8.54424910       3.72228640      -0.00191504      -0.00427924       0.00305106
C        4.93495816      -0.00534563       3.75494326       0.00131671       0.00362233       0.00513456
C        3.70625808       2.15042483       3.92636892      -0.00151611      -0.00076339      -0.00143351
O        1.13993467       6.41345456       3.74161918      -0.00444212      -0.00442375      -0.00200163
C        0.00150369       8.52037208       3.74037603      -0.00249970       0.00446631       0.00778798
C        7.40658044      -0.03511106       3.69027210      -0.00126145      -0.00615544       0.00315236
C        6.17606847       2.11827114       3.70944131      -0.00199840       0.00168633       0.00303325
C        4.96138685       4.27299540       3.86052725       0.00308744      -0.00363734       0.00191282
O        3.79253756       6.41359498       3.79467420       0.00973185       0.00294855       0.00601204
C        2.46612071       8.46683932       3.77093203      -0.00151323      -0.00182113      -0.00502383
C        9.86097053      -0.03556028       3.68185232      -0.00175056      -0.00269892       0.00142951
C        8.63333222       2.11376735       3.62465736      -0.00189698      -0.00100904       0.00591265
C        7.40534057       4.26155619       3.64868824      -0.00059480      -0.00104423       0.00312340
C        6.17673638       6.40832515       3.73393426       0.00363934      -0.00718725       0.00679747
C        4.93007608       8.52056425       3.74093551       0.00006125      -0.00026096      -0.00138363
C       -0.01031068       1.41542487       3.76543903       0.00543641       0.00286237       0.00240208
C       -1.25736752       3.54464735       3.67746974       0.00533292       0.00346520       0.01247439
C       -2.47677123       5.68397218       3.66462471      -0.00424840       0.00372186       0.01148955
C       -3.70196280       7.82980072       3.70272040      -0.00775747      -0.00105858      -0.00435898
C       -4.93352581       9.97451775       3.76159395      -0.00158125      -0.00128725      -0.00640409
C        2.46576617       1.43416711       3.90219915      -0.00076659       0.00212294      -0.00203754
C        1.16227950       3.54919985       4.01047914      -0.00292102       0.00062077      -0.00469970
C       -0.06590750       5.68265540       3.81670103      -0.00444313      -0.00127344      -0.00989569
C       -1.24599917       7.82960372       3.72357671      -0.00034095      -0.00246281      -0.00247769
C       -2.47130552       9.97444502       3.76541033       0.00252944      -0.00125845      -0.00175090
C        4.94121154       1.41591949       3.78894872      -0.00146360       0.00205684       0.00024406
C        3.76923495       3.54936565       4.05347265       0.00550083      -0.00199761      -0.00691068
C        1.20313432       7.83820477       3.79315222      -0.00282617       0.00187870       0.00178248
C        0.00064466       9.95440426       3.72321623      -0.00129102       0.00313139      -0.00403896
C        7.40575795       1.39818075       3.66058201      -0.00529602      -0.00479109      -0.00602380
C        6.18800313       3.54521007       3.71039163      -0.00067200      -0.00000868      -0.00800794
C        4.99824947       5.68273862       3.84193968       0.00436884      -0.00320182      -0.00680938
C        3.72861949       7.83923089       3.80230429       0.00211866       0.00298256       0.00411831
C        2.46575309       9.92273640       3.70324455      -0.00234340      -0.00437491      -0.00543572
C        9.86126136       1.39777667       3.64622880       0.00358863      -0.00192251       0.00491443
C        8.63290517       3.54265413       3.61646572       0.00219484       0.00275685      -0.00342274
C        7.40704329       5.68458269       3.67422430       0.00126942      -0.00307591      -0.00188677
C        6.17780714       7.83024461       3.72485828      -0.00414146      -0.00684521       0.00540379
C        4.93039189       9.95414401       3.71352675       0.00249426       0.00040748       0.00654004
W        2.44554627       5.07173079       4.72085100      -0.00222788       0.00347783      -0.00133744
O        2.29371812       4.98659858       6.44602346       0.00444794      -0.00400428       0.00590883
O        1.74759887       4.97721550       8.09006416      -0.00089489       0.01439055       0.01092389
H        2.67508547       4.90773996       8.41807960       0.00065065       0.00563571      -0.00215939
