51
Lattice="12.336457 0.0 0.0 -6.168228499999997 10.683685154694365 0.0 0.0 0.0 15.0" Properties=species:S:1:pos:R:3:initial_magmoms:R:1:forces:R:3 energy=-443.23735669748163 free_energy=-443.23735669748163 stress="-0.001079447627386641 0.0006656576031771035 2.1179366262608704e-05 0.0006656576031771035 -0.007646964000653232 4.026661746651949e-05 2.1179366262608704e-05 4.026661746651949e-05 -8.773480397463545e-05" pbc="T T T"
C       -0.00533946       0.01727447       3.76650622       0.00000000      -0.00269755       0.00921921      -0.00127339
C       -1.24455757       2.15256076       3.49074337       0.00000000      -0.00317881       0.00973543      -0.04117082
C       -2.52050225       4.29180366       3.45937790       0.00000000      -0.00036186      -0.00571921       0.01932907
C       -3.74825321       6.41469389       3.64043639       0.00000000       0.00605552       0.00954381       0.01177652
C       -4.96256158       8.53738976       3.80190586       0.00000000      -0.00561632       0.00882885       0.00960909
C        2.45999269      -0.01332916       3.82887272       0.00000000       0.00007030      -0.01276730       0.01482257
C        1.25005440       2.06764514       3.41332402       0.00000000       0.00040746       0.00828795      -0.00578472
C       -0.13418659       4.29163177       3.01991960       0.00000000      -0.00437430       0.04685337      -0.00968633
C       -1.25627002       6.42231689       3.44621478       0.00000000      -0.00001768       0.00733366       0.01490735
C       -2.47187760       8.53363646       3.74997483       0.00000000      -0.00884544      -0.00953711      -0.00885204
C        4.92346384      -0.00322110       3.84186981       0.00000000      -0.00994944      -0.00123173      -0.00768944
C        3.71306191       2.13756254       3.89141577       0.00000000      -0.00113802       0.00038865       0.01858993
S        1.61890811       6.33646684       3.06055459       0.00000000       0.01771923      -0.04162955       0.00126944
C        0.00172352       8.55413537       3.69201481       0.00000000      -0.00659192      -0.01908412       0.00158460
C        7.38148376       0.04387912       3.84065052       0.00000000      -0.02932920       0.02231218       0.05043936
C        6.14744093       2.15307756       3.81500951       0.00000000       0.00433492       0.00451368      -0.01296577
C        4.88257188       4.23335199       3.85582133       0.00000000      -0.00135388       0.00464923       0.01034003
B        3.56144695       6.48261476       3.67661948       0.00000000      -0.05022858       0.00634446       0.00378102
C        2.46191906       8.65437548       3.83679673       0.00000000      -0.01094475      -0.00592918      -0.01532769
C        9.87085889       0.06171562       3.83276977       0.00000000      -0.00487654      -0.00630170      -0.00730526
C        8.61422071       2.17254098       3.69534044       0.00000000       0.00305207      -0.01834340       0.00769715
C        7.35081583       4.28956682       3.66891224       0.00000000       0.01915895      -0.01928373       0.02709677
C        6.08841967       6.40105208       3.73637504       0.00000000       0.01572943      -0.01342939       0.01163589
C        4.91543791       8.58425725       3.85229023       0.00000000       0.03211448      -0.01366955      -0.00236909
C       -0.00719149       1.43421771       3.55596924       0.00000000      -0.00425295       0.02075525       0.04076568
C       -1.29841580       3.55644276       3.29926606       0.00000000       0.01446024       0.03068914       0.02327811
C       -2.50986078       5.71180544       3.50326481       0.00000000       0.00441503       0.00059863       0.02539161
C       -3.72531804       7.83047827       3.74126348       0.00000000      -0.01207551       0.01384119      -0.04490176
C       -4.94894234       9.96751578       3.81593250       0.00000000      -0.00539315       0.00096314      -0.02374584
C        2.46915045       1.41268058       3.75880298       0.00000000       0.00202173      -0.01008648      -0.00207300
S        1.34381936       3.53000455       2.48462923       0.00000000       0.01853132       0.00808954       0.03350301
C       -0.08369029       5.67311122       3.20012378       0.00000000       0.01672800       0.03883107      -0.01459501
C       -1.23763181       7.83453270       3.63293809       0.00000000      -0.01128795       0.00108135      -0.04467425
C       -2.47387432       9.95871494       3.83238456       0.00000000       0.00051930      -0.02071785       0.01297041
C        4.92850337       1.42304118       3.85815139       0.00000000       0.00420258       0.00906897      -0.01092976
N        3.74679319       3.49307893       4.08237671       0.00000000      -0.01625585       0.00958727      -0.04302083
C        1.26707529       7.94344462       3.63201965       0.00000000      -0.00095820      -0.02805094      -0.02661849
C       -0.00619598       9.98682875       3.81513582       0.00000000      -0.02008633      -0.00522092      -0.02470371
C        7.38416400       1.46078522       3.79704174       0.00000000      -0.00649993       0.00750253      -0.01737014
C        6.13500534       3.55997738       3.76628417       0.00000000       0.00576733      -0.00200499      -0.01607596
C        4.84202802       5.66588397       3.75109836       0.00000000      -0.00239592       0.01109939       0.00276296
C        3.66673912       7.93942878       3.82119475       0.00000000       0.00924054       0.00893374      -0.02035483
C        2.45774449      10.06255206       3.88379757       0.00000000      -0.02856569       0.01382876       0.02513081
C        9.86551795       1.47129472       3.68710393       0.00000000       0.00599806       0.00088193      -0.00478586
C        8.59117920       3.58520268       3.60481164       0.00000000       0.00767134      -0.03049694       0.00364431
C        7.34309156       5.70786868       3.67266361       0.00000000       0.01625069      -0.01379087       0.02214499
C        6.12877277       7.83240844       3.79709480       0.00000000       0.02286518      -0.01071766       0.00268531
C        4.92660075      10.01781718       3.83889053       0.00000000       0.00805155      -0.00660907       0.02210184
Y        2.09842230       4.55055829       5.36902632       0.00000000       0.01005896      -0.02223270      -0.14686909
O        1.82198047       4.21485040       7.40963379       1.00000000      -0.02818638      -0.03149901       0.01580621
O        3.12578408       4.77803679       7.16299616       1.00000000       0.03003796       0.03459102       0.12007902
