50
Lattice="12.336457 0.0 0.0 -6.168228499999997 10.683685154694365 0.0 0.0 0.0 15.0" Properties=species:S:1:pos:R:3:forces:R:3 energy=-436.357464043495 free_energy=-436.357464043495 stress="0.001005375238414888 -0.001538123068089607 -9.071207674012649e-07 -0.001538123068089607 -0.015160899459496236 -2.9834234812193316e-05 -9.071207674012649e-07 -2.9834234812193316e-05 3.334074176705538e-06" pbc="T T T"
C       -0.01707094      -0.00522836       3.75118228       0.00664895      -0.00494718      -0.00588143
C       -1.23904426       2.15887615       3.54303925       0.00171233       0.00164722       0.00592512
C       -2.48958325       4.29175391       3.55158925      -0.00661537      -0.00294224       0.00883345
C       -3.72547431       6.40806271       3.66178562      -0.00676674       0.00210733       0.00059451
C       -4.95537107       8.52349572       3.74781219       0.00105261      -0.00662744      -0.00177692
C        2.44132466      -0.09383083       3.99674036      -0.00086372       0.00275170       0.00023967
C        1.25197729       2.01739045       3.63580830      -0.00694344      -0.00178173      -0.00222608
C       -0.04515229       4.30159951       3.31818723       0.01153109      -0.00663494       0.00444179
C       -1.22412988       6.40733932       3.74008828       0.00449478      -0.00275936      -0.00499702
C       -2.46851155       8.50763683       3.93347956      -0.00449778       0.00208131      -0.00070292
C        4.91836072      -0.01943775       4.07745626       0.00145779       0.00235173      -0.00208153
C        3.63914353       2.00779476       4.16124453      -0.00085538      -0.00521402       0.00425700
P        1.64566043       6.26719314       3.96969381       0.00329965      -0.00718442      -0.01280765
C       -0.00083365       8.56776213       4.00046560      -0.00294573       0.00723757      -0.00431848
C        7.37160733       0.06978929       3.95244389      -0.00233114       0.00923552      -0.00204802
C        6.11906254       2.17564305       3.93249420       0.00132076       0.00217115       0.00487994
C        4.89269437       4.33633010       3.65677134       0.00641786      -0.00034394       0.01712150
B        3.47038091       6.49485937       3.27210647      -0.00109863      -0.00764686      -0.00952887
C        2.46357371       8.69269329       3.82649458      -0.00741303       0.00231968      -0.01148164
C        9.86290657       0.07465142       3.75822697      -0.00088530       0.00038509      -0.00021657
C        8.60449301       2.18450365       3.72501103      -0.00293413      -0.00546290      -0.00252811
C        7.35496798       4.29938403       3.62932626      -0.00019085       0.00286761       0.00674214
C        6.11838931       6.43655010       3.48520653       0.00124773      -0.00078732      -0.00722236
C        4.92182655       8.59687683       3.63980192       0.00596405       0.00322755      -0.00090532
C       -0.01014627       1.42035885       3.63630723      -0.00270670      -0.00457941       0.00412292
C       -1.24381965       3.57027289       3.43865098       0.00207611       0.00186238       0.00197274
C       -2.47721040       5.70667040       3.64555741      -0.00611325      -0.00041660      -0.00352900
C       -3.71643042       7.81630896       3.78650248      -0.00384439      -0.00278266       0.00204580
C       -4.96581093       9.92942779       3.84470664       0.00333757      -0.00774655       0.00232046
C        2.43333404       1.31328805       3.98956004      -0.00542596       0.00439895      -0.00125517
S        1.50520898       3.56524994       2.88520275      -0.00655579      -0.00851913       0.00575530
C        0.00087192       5.66465991       3.60313883       0.01302523      -0.00354920       0.01214715
C       -1.22364862       7.81897869       3.92090406      -0.00193304       0.00103616      -0.00582582
C       -2.47323721       9.91890596       4.04073161      -0.00091361       0.00200124      -0.00034260
C        4.90235315       1.41586086       4.09009248       0.00229213      -0.00163434       0.00510452
P        3.38903062       3.68415529       4.29589159       0.00272586       0.01783066       0.00128643
C        1.27220560       7.96162358       3.96744217      -0.00730523      -0.00027510      -0.01300073
C       -0.01118202       9.99653053       4.03001170       0.00358126       0.00834449       0.00179103
C        7.36071886       1.48567884       3.88219027      -0.00255215       0.00517474       0.00664294
C        6.10785443       3.59372335       3.73677718       0.00849546      -0.00076590      -0.00134100
C        4.83744717       5.74132238       3.39355745       0.00665760      -0.01059701       0.00008698
C        3.66486142       7.95418886       3.62679090       0.00105458       0.00114505      -0.00048218
C        2.45185178      10.09005085       3.86119521      -0.00632822       0.00491823      -0.00952423
C        9.85871437       1.48444389       3.67934999      -0.00000289       0.00034976       0.00517514
C        8.59923588       3.59432812       3.62960247      -0.00581979      -0.00712365       0.00534939
C        7.35946937       5.71405443       3.56107104      -0.00399641       0.00360510       0.00273278
C        6.13733760       7.84978532       3.60190129       0.00289029      -0.00432609      -0.00281070
C        4.91548193      10.01672952       3.71420055       0.00351311       0.00304402      -0.00554245
Y        3.96891853       6.12076549       5.55297882       0.00128500       0.00561049      -0.00397373
O        3.20647176       4.16433344       5.78676213       0.00175688       0.00694323       0.00678186
