52
Lattice="12.336457 0.0 0.0 -6.168228499999997 10.683685154694365 0.0 0.0 0.0 15.0" Properties=species:S:1:pos:R:3:forces:R:3 energy=-447.0564151805167 free_energy=-447.0564151805167 stress="-0.003625267025041956 0.0015840000512451179 2.5812378438109164e-05 0.0015840000512451179 -0.008005125195987202 2.3766424102706684e-05 2.5812378438109164e-05 2.3766424102706684e-05 1.6842471328022908e-05" pbc="T T T"
C        0.01752000       0.00878941       3.81141038       0.00751779       0.00345165       0.01097770
C       -1.21915494       2.14222011       3.56391721      -0.01239239       0.00220804       0.00581283
C       -2.48780950       4.28261939       3.59056617       0.00035501       0.00023772      -0.00630163
C       -3.71462083       6.40932513       3.76617651       0.00802834       0.00889930      -0.01386972
C       -4.93444535       8.53782987       3.88049380      -0.00539492      -0.01074652       0.00228880
C        2.48252061      -0.01264029       3.85651828      -0.00293705      -0.00992376       0.00166956
C        1.27172336       2.07162540       3.45302800       0.00235588      -0.00003684       0.00559191
C       -0.13163958       4.28237057       3.00937874       0.00618040       0.00317333      -0.00072531
C       -1.26155229       6.42911741       3.40468000       0.00383817      -0.00025264      -0.00763671
C       -2.45538294       8.53664660       3.74568967       0.00406172       0.01020933       0.00683895
C        4.94565297      -0.00752210       3.84665705      -0.00371791       0.00432123      -0.00911721
C        3.74270992       2.12586759       3.92183894       0.00253547       0.00037227       0.00084969
S        1.47958336       6.39194965       2.73130468      -0.01488653      -0.00060768      -0.00291223
C        0.00875364       8.55894830       3.59184568      -0.00164961      -0.00642524      -0.00473261
C        7.40676031       0.02373903       3.83576426      -0.00953877       0.01298666       0.00510904
C        6.18285223       2.13437784       3.91384120       0.00554312      -0.00560123      -0.00558881
C        4.94293574       4.20834387       4.02280281      -0.00211253       0.00088478      -0.00119778
B        3.68373663       6.46753211       4.00832295       0.00170498      -0.00623904      -0.00295374
C        2.47009064       8.61766951       3.77659131       0.00398292       0.00130889       0.00570691
C        9.89103956       0.03490651       3.85139495       0.00340642      -0.00174493      -0.00703153
C        8.64724909       2.15322062       3.80357346       0.00857512      -0.00452099      -0.01051753
C        7.39890670       4.27417404       3.86053941       0.00356598      -0.00322861       0.00797601
C        6.15032774       6.39575212       3.93564064      -0.00420132       0.00245059       0.00926015
C        4.94286525       8.56751623       3.92090495       0.00194685       0.00637418       0.00938145
C        0.01683789       1.42811036       3.61391285      -0.00658913       0.00122941      -0.00108314
C       -1.27323785       3.55089901       3.38392017      -0.00099863       0.00491879      -0.00611177
C       -2.48768250       5.70494597       3.59275935       0.00481891      -0.00046976      -0.01570917
C       -3.70226020       7.82956957       3.80318534       0.00683905       0.00662102      -0.00148670
C       -4.92527076       9.96628768       3.85892960       0.00262539      -0.01620914       0.00153357
C        2.49545942       1.41390584       3.78289788       0.00094891      -0.00865357       0.00159670
S        1.33656391       3.49485991       2.43729577       0.00327513       0.00449551       0.01182478
C       -0.10827701       5.68901519       3.06916646       0.00430907       0.00289456      -0.00808811
C       -1.22868527       7.84151725       3.56491960      -0.00111646       0.00049676       0.00005682
C       -2.45337098       9.95948093       3.83936626      -0.00012656       0.00662376      -0.00548761
C        4.95801980       1.41523445       3.90667271       0.00286311      -0.00042438      -0.00675449
N        3.78050319       3.47948064       4.11892359      -0.00715646       0.00458184       0.00550969
C        1.26785268       7.93648731       3.47378079       0.00314042      -0.00655487       0.00745053
C        0.01233205       9.97966564       3.77765581      -0.00841392      -0.00252241       0.00183356
C        7.41613893       1.44030267       3.86847861       0.00869248       0.00772158      -0.00673748
C        6.18349338       3.53927214       3.93347831      -0.00049626      -0.00506513       0.00443435
C        4.91861494       5.64917080       4.00106803      -0.00302908       0.00044196       0.00653459
C        3.68769911       7.90512854       3.89290629       0.00611666      -0.00544860       0.01000870
C        2.47600087      10.02897239       3.84852137      -0.00577421       0.00862126       0.00530902
C        9.89281796       1.45040858       3.75594810      -0.00403354      -0.00421782      -0.00688971
C        8.63186775       3.57007122       3.76551955       0.00522235      -0.00737105      -0.00748140
C        7.39103906       5.69623902       3.86376645      -0.00166720       0.00457505      -0.00430631
C        6.16082568       7.82509894       3.92307620      -0.00912628      -0.00015034       0.00877651
C        4.95126492       9.99706873       3.87325778       0.00662370       0.00695577       0.00204088
Y        2.05636217       4.71026169       4.93205965       0.00092649      -0.00170430       0.01885738
O        2.08552209       4.65802545       6.91024100      -0.00997405      -0.00354968      -0.00410715
O        1.81013858       4.63725414       8.28022474      -0.00115024      -0.00531847      -0.00919725
H        2.69975823       4.66694793       8.68536193      -0.00351677      -0.00006825      -0.00120495
