51
Lattice="12.336457 0.0 0.0 -6.168228499999997 10.683685154694365 0.0 0.0 0.0 15.0" Properties=species:S:1:pos:R:3:initial_magmoms:R:1:forces:R:3 energy=-439.87934477572423 free_energy=-439.87934477572423 stress="0.0004686964558603406 -0.0004525509548408705 -8.195724773825746e-07 -0.0004525509548408705 -0.01066453673637835 -1.3531543700609745e-05 -8.195724773825746e-07 -1.3531543700609745e-05 -4.56209902783884e-05" pbc="T T T"
C        0.04291907       0.04839581       3.41856594       0.00000000      -0.00093575       0.00506175       0.00448091
C       -1.18588474       2.20745022       3.24971365       0.00000000       0.00200619      -0.00283146       0.00293628
C       -2.43610868       4.33872672       3.44697085       0.00000000       0.00109965      -0.00221079       0.00199308
C       -3.66779087       6.45813483       3.64710778       0.00000000      -0.00197513      -0.00212833      -0.00834537
C       -4.90062357       8.57960555       3.60117415       0.00000000       0.00145135       0.00230722      -0.00738507
C        2.50825779      -0.00079248       3.58078526       0.00000000      -0.00574443       0.00117086      -0.00120728
C        1.30617035       2.09394209       3.18056833       0.00000000      -0.00489154      -0.00114650       0.00028418
C       -0.01718237       4.37135261       3.10659326       0.00000000      -0.00231200       0.00049237      -0.00324779
C       -1.17728094       6.45570292       3.64700254       0.00000000       0.00344704       0.00241296       0.00306949
C       -2.41412771       8.57422309       3.71907527       0.00000000       0.00182115      -0.00170913      -0.00311117
C        4.97520887       0.04158432       3.76990141       0.00000000      -0.00118527      -0.00340308       0.00027698
C        3.70031931       2.11272467       3.88623140       0.00000000       0.00141777      -0.00068266       0.00353704
P        1.63348493       6.28605624       4.13795232       0.00000000      -0.00575693      -0.00208807       0.00304604
C        0.05287287       8.61207455       3.83858182       0.00000000      -0.00625319      -0.00019497       0.00138932
C        7.43313515       0.10070871       3.70681060       0.00000000       0.00048791       0.00174955      -0.00524580
C        6.19664002       2.20568242       3.84167670       0.00000000      -0.00116640       0.00548858       0.00217758
C        5.00175977       4.36200671       4.07193285       0.00000000       0.00324739       0.00112534      -0.00164737
B        3.58340091       6.49505982       3.86014432       0.00000000       0.00423390      -0.01435150       0.00302883
C        2.52212190       8.71350658       3.76826078       0.00000000      -0.00244685       0.00036220       0.00552681
C        9.91916131       0.10505050       3.50837811       0.00000000       0.00801964       0.00388292       0.00226465
C        8.66941985       2.21972073       3.54677958       0.00000000       0.00213514       0.00020178      -0.00053682
C        7.43202044       4.33924016       3.70922078       0.00000000      -0.00440633       0.00048671       0.00017807
C        6.17674910       6.46843830       3.72559807       0.00000000      -0.00067143       0.00047923      -0.00082925
C        4.97570365       8.62893162       3.61198767       0.00000000       0.00163512       0.00243318       0.00024245
C        0.04888087       1.47428388       3.25555918       0.00000000      -0.00354089      -0.00070255       0.00276544
C       -1.20495902       3.62482202       3.22816581       0.00000000       0.00176931      -0.00328664      -0.00034568
C       -2.42478970       5.75345674       3.57914987       0.00000000       0.00251803       0.00007217       0.00747124
C       -3.66016258       7.87416904       3.66091523       0.00000000       0.00182911      -0.00138252      -0.00392229
C       -4.89964258       9.99676017       3.51670713       0.00000000      -0.00543659       0.00371070       0.00269790
C        2.50492960       1.41300857       3.54490900       0.00000000      -0.00420741       0.00214474       0.00178743
S        1.46673996       3.67736769       2.51990664       0.00000000       0.00047413      -0.01133149      -0.00862521
C        0.04243749       5.71289252       3.51976380       0.00000000       0.00299298       0.00243522      -0.00072364
C       -1.17575176       7.87392098       3.77312914       0.00000000      -0.00044441      -0.00155623       0.00822519
C       -2.41880810       9.99249110       3.70749374       0.00000000      -0.00364614      -0.00192574       0.00114704
C        4.96265678       1.47046676       3.85042043       0.00000000       0.00192309       0.00069181      -0.00311809
P        3.54094306       3.63285995       4.71037378       0.00000000       0.00934233       0.00314082      -0.00138223
C        1.31413318       7.98959810       3.92537603       0.00000000      -0.00725913       0.00102713       0.00601926
C        0.04381932      10.04286864       3.78025397       0.00000000      -0.00168742      -0.00167544      -0.00069501
C        7.43106423       1.51600556       3.69373620       0.00000000      -0.00134618       0.00357280      -0.00613391
C        6.20410416       3.62524327       3.88218668       0.00000000      -0.00393059       0.00433245      -0.00442967
C        4.93409611       5.75935050       3.87458909       0.00000000       0.01013952      -0.00258863      -0.00330812
C        3.73295586       7.98482270       3.72753406       0.00000000       0.00132920      -0.00621232      -0.00301322
C        2.51033275      10.11303140       3.64988293       0.00000000       0.00506592       0.00289681      -0.00442606
C        9.91781466       1.51960758       3.41834218       0.00000000       0.00501280       0.00130718       0.00191647
C        8.66422386       3.63443127       3.55830831       0.00000000      -0.00123594      -0.00052367       0.00153244
C        7.42348104       5.75835021       3.68765664       0.00000000      -0.00455705      -0.00119030      -0.00257797
C        6.19774409       7.88616923       3.63276890       0.00000000       0.00207379       0.00337478      -0.00405033
C        4.97636665      10.05349418       3.49843420       0.00000000       0.00433291       0.00425656       0.00529279
Y        1.90949791       4.67252324       6.71356817       0.00000000      -0.01178578      -0.00429086      -0.05385262
O        2.91136356       4.04733072       8.27449926       1.00000000       0.00161386      -0.00317450       0.00002025
O        3.31951209       5.38710312       7.86680542       1.00000000       0.00540353       0.00996955       0.05885279
