50
Lattice="12.336457 0.0 0.0 -6.168228499999997 10.683685154694365 0.0 0.0 0.0 15.0" Properties=species:S:1:pos:R:3:forces:R:3 energy=-446.3742280351618 free_energy=-446.3742280351618 stress="0.010607942131217497 -0.000584435541117893 1.1566795337837904e-05 -0.000584435541117893 -0.0031868895227718224 1.569942439348634e-05 1.1566795337837904e-05 1.569942439348634e-05 -5.087177763973694e-06" pbc="T T T"
C       -0.01458612       0.00781591       3.71257748       0.00669599      -0.00273241       0.00019574
C       -1.23296429       2.16740273       3.71202339       0.00263560       0.01054534      -0.01204590
C       -2.45550733       4.29918242       3.67651946      -0.00091319       0.00699600      -0.00773261
C       -3.71034190       6.41254595       3.66500974      -0.00185600      -0.01094500       0.00312387
C       -4.95423258       8.53833477       3.67991204       0.00275733      -0.00230301       0.00083217
C        2.46026378      -0.01846680       3.76455630       0.00906754       0.01157507      -0.00765606
C        1.22775127       2.13654556       3.89757079      -0.00329676      -0.00648094       0.00548862
C        0.06605296       4.26983895       3.81320802       0.00606120       0.00183830       0.00608317
C       -1.14784085       6.40496246       3.68323744      -0.00871616       0.00039013      -0.00802164
C       -2.45594147       8.53563064       3.67687220       0.00142159      -0.00703102      -0.00596136
C        4.93240412       0.01061346       3.68688688      -0.00428202      -0.00120270       0.00141960
C        3.68739978       2.13503786       3.86394816      -0.00814894      -0.00070494       0.00291290
B        1.57590310       6.43102678       3.68327938      -0.00450161       0.01516658       0.00265495
C        0.02101061       8.56521560       3.62889977       0.00765121      -0.00201784      -0.00623845
C        7.38664920       0.06039514       3.60494094      -0.00292601      -0.00744748       0.00040958
C        6.14397529       2.17556023       3.67523573      -0.01033924       0.00538007      -0.00781241
C        4.83926982       4.28287766       3.77665704      -0.00171368      -0.00060640       0.00783863
C        3.45073690       6.45451521       3.72177586       0.01172576       0.00830057       0.00558370
C        2.46447391       8.65036894       3.60283740       0.00214859      -0.00141296       0.00595047
C        9.86683665       0.05606672       3.61983037       0.00144482      -0.00308289       0.00662959
C        8.62472534       2.18628678       3.63155356      -0.00163671      -0.00159433       0.00061699
C        7.36224178       4.30467380       3.65501766       0.00802690       0.00248769       0.00521972
C        6.06689806       6.41593400       3.66832858       0.00365581       0.00001805       0.00411457
C        4.90480124       8.56170609       3.64693092      -0.00987058       0.00059964       0.00455623
C       -0.01765789       1.42755642       3.77067821      -0.00041237      -0.00086279      -0.00635465
C       -1.22021603       3.58329423       3.72145205       0.00097239       0.01184080       0.00021766
C       -2.43666249       5.71746341       3.67713542      -0.00645869       0.00068441      -0.00590622
C       -3.70694947       7.83165356       3.67331825       0.00057075      -0.01332617       0.00758168
C       -4.95072681       9.95789037       3.72118198       0.01416035       0.00336993      -0.00429038
C        2.45911444       1.38949584       3.86847539      -0.00235407       0.00679067       0.00083220
C        1.22244946       3.51463658       4.03743051       0.00595880      -0.00626078      -0.00834852
C        0.14584256       5.71160444       3.73196312      -0.00800495       0.00280187      -0.00860783
C       -1.20452218       7.83015844       3.66067145       0.00606571      -0.00059059      -0.00402575
C       -2.46556974       9.95828894       3.70876013      -0.00005546      -0.00239188      -0.00115023
C        4.93211411       1.43220803       3.73185122      -0.01183211       0.00218575       0.00125117
C        3.69666009       3.51656841       3.99148311      -0.00034154      -0.00496590       0.00000998
C        1.27629327       7.90785508       3.61807578       0.00407423       0.00184123       0.00250921
C        0.00107002      10.00034697       3.62970654      -0.00267064      -0.00478649      -0.01010443
C        7.38740649       1.47708046       3.62642083      -0.00852407      -0.00318805      -0.00589489
C        6.12519664       3.59430747       3.68336851       0.00294437       0.00693075       0.00660038
C        4.75540051       5.73785248       3.71367003       0.00466657      -0.00037248      -0.00555959
C        3.65296012       7.87577714       3.64732790      -0.00280959       0.00088366       0.00551549
C        2.45974784      10.05785872       3.58754651       0.00101267      -0.00756498       0.01401241
C        9.86223754       1.47152606       3.64481678       0.00372545       0.00060695       0.00070614
C        8.62132245       3.60503981       3.64955494       0.00478069       0.00186754      -0.00337992
C        7.34502601       5.72388670       3.66202885       0.00364245      -0.00254497       0.00948078
C        6.12830528       7.83360530       3.66301172      -0.00717434       0.00238677       0.00162498
C        4.91731308       9.99151106       3.65173558       0.00137794      -0.00181864      -0.00507504
Y        2.52886252       4.77259148       5.69301651      -0.00431100      -0.00155795       0.01442318
O        2.84063608       4.04756881       7.38998641      -0.00409501      -0.00769417      -0.00422990
