49
Lattice="12.336457 0.0 0.0 -6.168228499999997 10.683685154694365 0.0 0.0 0.0 15.0" Properties=species:S:1:pos:R:3:forces:R:3 energy=-433.62649555260214 free_energy=-433.62649555260214 stress="-0.002836126092643647 -0.002681528375065136 4.523255625449508e-06 -0.002681528375065136 -0.007426620686396683 5.1326183273031504e-06 4.523255625449508e-06 5.1326183273031504e-06 -5.562362737168306e-06" pbc="T T T"
C       -0.01948446       0.00793020       3.72351054      -0.00045331      -0.00778094       0.01024497
C       -1.26315072       2.14089834       3.71700184       0.00401693       0.01462046      -0.00982521
C       -2.48400620       4.28557341       3.78043310      -0.00107781       0.00748881      -0.00267313
C       -3.70821699       6.41903276       3.83451932      -0.00865539       0.00157593      -0.00120891
C       -4.94497757       8.55227281       3.82399451      -0.00251767      -0.00825904      -0.00021562
C        2.44632602       0.00381139       3.76719619       0.00367400       0.00181548      -0.00946594
C        1.17123335       2.12923518       3.79605144      -0.00266547       0.00449410      -0.00187230
C       -0.03745257       4.19850727       3.98336117       0.00226693      -0.00379046      -0.00063635
C       -1.21564140       6.39902391       3.98236945      -0.00387778      -0.00759497       0.00260272
C       -2.46475057       8.55124580       3.89105635      -0.00303412      -0.00335557       0.00063807
C        4.91463288       0.02389552       3.71037915      -0.00148905      -0.00497430      -0.00519799
C        3.64864191       2.13235901       3.38046913       0.00267979       0.00890000       0.00195895
P        1.61450510       6.25868935       4.33226730      -0.00259285       0.00250689       0.00229990
C       -0.00542990       8.57905968       3.96733494       0.00185589       0.01248504      -0.00691586
C        7.37101491       0.04859665       3.68829791       0.00460755      -0.00467478      -0.00346227
C        6.14184800       2.16070647       3.45481257      -0.00141745      -0.00815378      -0.00551776
C        4.97073525       4.32869113       3.21861468      -0.00448963       0.01052576      -0.00219581
B        3.54592637       6.44651856       3.87265013       0.01114627       0.01145534       0.00122318
C        2.46379818       8.65288352       3.83140120       0.00873839      -0.00158558       0.01169995
C        9.85490206       0.04267567       3.65377528      -0.00359723      -0.00592106      -0.00091481
C        8.60910594       2.16611876       3.60764404       0.00579375      -0.00195543       0.00878402
C        7.39023585       4.29677749       3.60178204      -0.00197178       0.00140467       0.00481254
C        6.14333102       6.42426145       3.75167444      -0.00284880       0.00500770      -0.00986892
C        4.92590958       8.58153542       3.73976481       0.00092006      -0.00581700       0.00607283
C       -0.04218632       1.42462105       3.72579712      -0.00165695       0.00228904       0.00441816
C       -1.26678445       3.54504040       3.80881236       0.00275857       0.01422716      -0.00599885
C       -2.46887279       5.70613736       3.86849879      -0.00831904       0.00115227       0.00385596
C       -3.70465348       7.84202989       3.86677421      -0.00465513      -0.00182444      -0.00859158
C       -4.95191586       9.97506028       3.78968650       0.00481786      -0.00786199      -0.00565498
C        2.42009258       1.42002153       3.66750105       0.00207615       0.00683865       0.00321208
N        1.13423783       3.47506357       4.06343875       0.00477742       0.00341580      -0.00423532
C       -0.01008871       5.62024860       4.06995589      -0.00526736      -0.01232015       0.00259817
C       -1.22700716       7.83677673       3.96732071      -0.00072357      -0.00031658       0.00623295
C       -2.47877147       9.97913817       3.80124765      -0.00023239      -0.00404117      -0.00656668
C        4.91130408       1.43956878       3.49825384      -0.00266076      -0.01007931      -0.00229366
P        3.60825067       3.59760714       2.34784064       0.00072587      -0.00259176      -0.00476584
C        1.25842480       7.94481970       4.06014119       0.00229745       0.00669930      -0.00520023
C       -0.02047375      10.00642594       3.79325292       0.00273841       0.00677025      -0.00031659
C        7.37444036       1.45922868       3.57163481       0.00416176      -0.00476844       0.01425495
C        6.17744784       3.57947094       3.40017549      -0.00878215       0.00142085       0.00119304
C        4.89534508       5.71401041       3.65403352       0.00191053       0.01023557       0.00298812
C        3.67893146       7.93514924       3.77529376       0.00852638       0.00128614       0.00640529
C        2.44547034      10.05047511       3.70379535       0.00103617      -0.00998795       0.00834117
C        9.84233318       1.45314521       3.64359723       0.00698519      -0.00050683      -0.00338330
C        8.61742366       3.58527768       3.65675216       0.00248048       0.00117975       0.00064781
C        7.38331116       5.71813809       3.73269625      -0.00414502       0.00361518      -0.00408693
C        6.15764145       7.84666901       3.79182329      -0.00204019      -0.00229911      -0.01012178
C        4.91816545      10.00194493       3.69312712      -0.00332854      -0.01014012       0.00904709
Y        3.15629133       4.19218092       4.89290743      -0.00849236      -0.01080936       0.00765471
