50
Lattice="12.336457 0.0 0.0 -6.168228499999997 10.683685154694365 0.0 0.0 0.0 15.0" Properties=species:S:1:pos:R:3:forces:R:3 energy=-442.12960566418644 free_energy=-442.12960566418644 stress="-0.005083997598517373 0.002634055238894494 1.425230680863715e-05 0.002634055238894494 -0.0017994559213506463 -1.2033461325092013e-05 1.425230680863715e-05 -1.2033461325092013e-05 2.2885904461203273e-07" pbc="T T T"
C        0.01911967       0.02420816       3.64109090       0.00422142      -0.00147928      -0.00090360
C       -1.21812809       2.15003025       3.58880625       0.00071684      -0.00092264       0.01009744
C       -2.44865111       4.28444350       3.55430801       0.00625340       0.00024018       0.00028191
C       -3.68582014       6.42089490       3.57354973      -0.00292648       0.00585370       0.00082349
C       -4.92561327       8.56447697       3.62914132      -0.00015517      -0.00563707      -0.00124643
C        2.48778004       0.03907029       3.72106245      -0.00229046       0.00314367      -0.00181690
C        1.25092325       2.19840098       3.80625682      -0.00671071       0.00741002      -0.00554933
C        0.01536189       4.30537615       3.79189549      -0.00665122      -0.00128714      -0.01420329
C       -1.23460956       6.43610391       3.69074413       0.00125263      -0.00943208       0.00053856
C       -2.46243980       8.56215407       3.64558448       0.01082169       0.00426213      -0.00040927
C        4.94578752       0.00385490       3.68539428      -0.00384994       0.00159440      -0.00495333
C        3.76818908       2.11316654       3.93277837       0.00318090       0.00166699      -0.00789865
O        1.12875538       6.49005501       4.11521106      -0.00058796      -0.00000944       0.00932384
C       -0.00302919       8.54995420       3.72852892      -0.00644729      -0.00001390       0.00154740
C        7.41506564      -0.00706127       3.63023518      -0.00844402       0.00153638      -0.00603282
C        6.20412181       2.11899858       3.64374932       0.00165556      -0.00013047       0.01642845
C        5.03098907       4.20394097       3.89466087       0.00009091      -0.00162383       0.00014499
B        3.84978269       6.47781062       3.96614650      -0.00117840      -0.00779438       0.01281000
C        2.43896236       8.54428052       3.78115151       0.00174808       0.00239199       0.00851244
C        9.87855176       0.00057466       3.60705612       0.00038785       0.00794558      -0.01119925
C        8.65621960       2.13739561       3.53815616       0.00375662      -0.00590231      -0.00367154
C        7.43327534       4.27613893       3.56600492       0.00997863      -0.01117683      -0.00473400
C        6.19717435       6.40358692       3.67966903      -0.00417679      -0.00427644      -0.00094671
C        4.95143377       8.56373884       3.68368985      -0.00086385       0.00880058       0.00376176
C        0.01730389       1.44528225       3.66040336      -0.00302321      -0.00185224       0.00017938
C       -1.23289732       3.57365797       3.61154986       0.00147965      -0.00261386      -0.00909949
C       -2.45867665       5.70821529       3.58861764      -0.00287533       0.00136410      -0.01333189
C       -3.69706391       7.84895232       3.61060992       0.00803311       0.00780048      -0.00476978
C       -4.91608751       9.99502439       3.66214027       0.00148865      -0.00657679      -0.00670944
C        2.51428532       1.46909581       3.84230983      -0.00087969       0.00739207      -0.00419721
C        1.16238859       3.55861385       3.92709677      -0.00977213       0.00666662      -0.00443757
C       -0.04036239       5.74230398       3.86845993       0.00138670      -0.00581192       0.00712850
C       -1.24151628       7.85497825       3.68422844       0.00257894      -0.00903091       0.00660322
C       -2.46061280       9.99493427       3.68738404      -0.00075022       0.00467901       0.00016964
C        4.96517272       1.42538742       3.73344323       0.00336213      -0.00134504      -0.00135267
O        3.88874168       3.47502562       4.23082899      -0.00327574       0.00246914       0.00757030
C        1.20202858       7.86413811       3.87067590      -0.00292405       0.00273446      -0.00055297
C        0.01388666       9.97384169       3.66900556      -0.00954963       0.00008107       0.00186629
C        7.42212280       1.42031796       3.57961238      -0.00123659       0.00025537       0.00456025
C        6.21696076       3.53105288       3.66004403       0.00162444      -0.00164878       0.00776554
C        5.00026715       5.62390373       3.85204140      -0.00160692      -0.00514217      -0.00738856
C        3.69782629       7.87224370       3.78902220       0.00506168      -0.00281371       0.00384998
C        2.46662100       9.96648188       3.65705999      -0.00255300       0.00643178      -0.00084367
C        9.88259588       1.42387069       3.55829990       0.00392678       0.00295882      -0.00416620
C        8.65579165       3.56425665       3.52515268       0.01486055      -0.00893372       0.00599566
C        7.42335265       5.70063518       3.58353910      -0.00051811      -0.00570330       0.00558609
C        6.17345318       7.83220672       3.65921926      -0.00494387      -0.00137471       0.00849592
C        4.95391948       9.98711710       3.62797359       0.00107009       0.01048890       0.00011076
Y        2.35418505       4.90641432       5.43473511       0.00938783      -0.00403191      -0.00237356
O        1.45895570       4.37264752       7.00086908      -0.01013433       0.00839747      -0.00136369
