50
Lattice="12.336457 0.0 0.0 -6.168228499999997 10.683685154694365 0.0 0.0 0.0 15.0" Properties=species:S:1:pos:R:3:forces:R:3 energy=-440.9326199358031 free_energy=-440.9326199358031 stress="-0.004305061810730196 -0.0011790118825929592 6.104959601773729e-06 -0.0011790118825929592 -0.00733227093095527 2.342581649031231e-06 6.104959601773729e-06 2.342581649031231e-06 1.3522248106134994e-05" pbc="T T T"
C       -0.02465728       0.00880629       3.66372682      -0.00594632       0.00798526      -0.00156199
C       -1.27056179       2.14191169       3.73739216       0.00447297      -0.00091543      -0.00604014
C       -2.52049815       4.28040348       3.45615553      -0.00041925      -0.00392250      -0.00425743
C       -3.74143081       6.42218293       3.29784151      -0.00431903       0.00217914       0.00227361
C       -4.95927933       8.56225646       3.39659122      -0.00402353       0.00743768       0.00808152
C        2.44292223      -0.03457062       3.70809422       0.00815600      -0.00351285       0.00907579
C        1.20937297       2.05268028       4.16717993       0.01424286       0.00567719       0.00719688
C       -0.11367616       4.31286379       3.82248032       0.00031915      -0.00416691      -0.01183005
C       -1.29506123       6.43434814       3.44265708       0.00199656      -0.00607357      -0.00101966
C       -2.48797157       8.55548405       3.41768231      -0.00189597      -0.00918296       0.00801843
C        4.91455141      -0.01187702       3.70013743       0.00204591       0.00514169      -0.00008483
C        3.68826315       1.97416403       4.29540867      -0.00181995       0.00763443       0.00421642
B        1.09189723       6.44501225       4.11941671       0.00146041      -0.00190735      -0.00384709
C       -0.02157307       8.55579500       3.65541677      -0.01001062       0.00337563      -0.00235879
C        7.37726512       0.01384221       3.70194783       0.00885560      -0.00513738      -0.00722720
C        6.13067201       2.15386194       3.79487624      -0.00299224       0.00078401       0.00138116
C        4.95079688       4.37154041       3.92962708      -0.00152678       0.00978592       0.00570628
N        3.83897847       6.52501572       4.21388350      -0.01017252      -0.00658829      -0.00377478
C        2.46870651       8.56673566       3.86067749       0.00189149      -0.00230712      -0.01360966
C        9.84232982       0.01795253       3.68174630      -0.00067074       0.01241023      -0.00409095
C        8.59654156       2.15200410       3.60646383      -0.00197448      -0.00075225      -0.00982926
C        7.35412123       4.29271735       3.48654620       0.00193023      -0.00514285      -0.00349928
C        6.14206576       6.45186212       3.46699362       0.00255881      -0.00751340      -0.00103538
C        4.92420568       8.57171229       3.60975534       0.00268416      -0.00116224      -0.00886067
C       -0.03112581       1.42352034       3.86068349       0.00984444       0.00691577      -0.00710628
C       -1.29486573       3.55959545       3.65269520      -0.00374392      -0.00453866       0.00632676
C       -2.51956787       5.70623862       3.34936062      -0.00332296      -0.00106324       0.00027651
C       -3.72636823       7.84803802       3.32930856      -0.00652032       0.00384986       0.01011453
C       -4.96304130       9.97204415       3.56532917      -0.00480837       0.00616392       0.00502332
C        2.44473616       1.33330623       4.07638543       0.01036677       0.00319263      -0.00289889
P        1.32785018       3.73737941       4.60859326      -0.00702817      -0.00477753      -0.01011677
C       -0.10873029       5.72442377       3.69694803       0.00406275      -0.00119597       0.00844368
C       -1.25477339       7.85043980       3.48325868      -0.00471989      -0.00769541       0.00414990
C       -2.48683011       9.96332576       3.58829770       0.00774535      -0.01066995       0.01374637
C        4.91668602       1.39953006       3.93258768      -0.00212642       0.00559577       0.00932347
P        3.62495936       3.62531730       4.81956742      -0.00709341      -0.01407450       0.00115114
C        1.22011527       7.87758398       3.87897609      -0.00798673       0.00414763      -0.00877264
C       -0.02119844       9.97712959       3.65995967       0.00044519       0.00478802       0.00124606
C        7.36148753       1.44349680       3.68526427      -0.00007919      -0.00596432      -0.00733592
C        6.12172480       3.59552249       3.72238974      -0.00401153       0.00656953       0.00246699
C        4.94676589       5.79123525       3.82962379       0.00286191       0.00634417       0.01594138
C        3.72913436       7.86009230       3.88551668       0.00332959       0.00005422       0.00652006
C        2.45019679       9.98899318       3.73200753       0.00903661      -0.00120319      -0.01210001
C        9.83480363       1.44000140       3.65915155      -0.00073874       0.00898154      -0.00707808
C        8.58591393       3.57417577       3.48935563       0.00177489      -0.00275157       0.00175673
C        7.35838222       5.71385023       3.37221194       0.00230363      -0.00745841       0.00132600
C        6.14307917       7.86329535       3.45324627       0.00457384      -0.00418972       0.00257705
C        4.91042884       9.99133700       3.62879517      -0.00565471       0.00557846       0.00662301
Y        2.61898962       5.74174762       6.00382220      -0.00016175       0.00300192      -0.00698012
O        3.83034038       4.00623570       6.34215635      -0.00319160      -0.00372704       0.00235283
