51
Lattice="12.336457 0.0 0.0 -6.168228499999997 10.683685154694365 0.0 0.0 0.0 15.0" Properties=species:S:1:pos:R:3:initial_magmoms:R:1:forces:R:3 energy=-439.6242209852466 free_energy=-439.6242209852466 stress="0.001965417752540234 0.0009651922795675153 -5.079453026188409e-05 0.0009651922795675153 -0.01096852124138391 4.785490377616037e-05 -5.079453026188409e-05 4.785490377616037e-05 5.1862137018671744e-05" pbc="T T T"
C        0.01170631      -0.15514775       3.66385616       0.00000000      -0.01792740       0.01171044       0.02370372
C       -1.19958413       2.02203985       3.57494282       0.00000000      -0.00044543       0.00758600       0.00233231
C       -2.43152553       4.15184291       3.57243500       0.00000000      -0.00606531       0.00828377      -0.00614443
C       -3.67996585       6.26817167       3.57445010       0.00000000      -0.00919369       0.00241188       0.00356933
C       -4.94328261       8.37732077       3.60282434       0.00000000      -0.00944028      -0.00992591       0.01457127
C        2.47099476      -0.21832275       3.90713958       0.00000000      -0.00718386      -0.00020091       0.01439593
C        1.28579107       1.89400154       3.59350582       0.00000000       0.00114281       0.00594129       0.01262570
C        0.02063112       4.16854659       3.24756836       0.00000000      -0.01074345       0.00818863      -0.01559482
C       -1.18868790       6.28765684       3.48153395       0.00000000       0.00382108       0.00007117       0.02303568
C       -2.44924400       8.38565551       3.75371801       0.00000000       0.01194645       0.00438590       0.01142159
C        4.93902879      -0.14472917       4.05391232       0.00000000       0.00891173      -0.00602439      -0.01308032
C        3.67050532       1.90227319       4.24388520       0.00000000       0.00678693      -0.00204057      -0.00528307
B        1.35460714       6.40024952       3.22230786       0.00000000       0.02071302      -0.00067599       0.00204690
C        0.00798284       8.45351582       3.76964526       0.00000000      -0.00253754       0.00240607       0.00573012
C        7.40529002      -0.07230713       3.96349566       0.00000000       0.00241289      -0.01059977       0.00401177
C        6.17177950       2.03154317       4.09003707       0.00000000      -0.00802006      -0.01075914       0.00750002
C        4.95856282       4.19256423       3.88385662       0.00000000       0.01702238      -0.01302079      -0.01381198
S        3.32431963       6.18551008       2.89362661       0.00000000      -0.00819913       0.01136698      -0.00840615
C        2.47151558       8.54609544       3.64200313       0.00000000       0.00308911      -0.00849618      -0.01496459
C        9.89649087      -0.07742909       3.75274586       0.00000000       0.00158477      -0.01423083       0.00117289
C        8.65795056       2.04181514       3.83832380       0.00000000       0.00803943      -0.00628404       0.01227874
C        7.41755920       4.15313405       3.75637609       0.00000000      -0.00683907       0.01489876      -0.00680357
C        6.15484411       6.26764291       3.45141846       0.00000000      -0.01507138      -0.00303228      -0.00424852
C        4.92500686       8.42682554       3.48432493       0.00000000       0.01114376      -0.00021369      -0.00677294
C        0.02327512       1.27251474       3.60001764       0.00000000      -0.00618378       0.01089497       0.01082480
C       -1.18990573       3.44001929       3.45983666       0.00000000      -0.01033147       0.00636048      -0.00444606
C       -2.43209692       5.57001874       3.54047575       0.00000000      -0.00376533       0.00708225       0.00302610
C       -3.68986657       7.68115041       3.63176664       0.00000000       0.00666220      -0.00001609      -0.00108618
C       -4.93500915       9.78983732       3.71886266       0.00000000      -0.01842706       0.00020715       0.00277764
C        2.47032564       1.18740892       3.96900453       0.00000000       0.00365037       0.00392547      -0.00014263
P        1.58898835       3.42401321       2.80437786       0.00000000      -0.00754369       0.01973202      -0.01090502
C        0.05589313       5.58290752       3.29719475       0.00000000       0.00991983       0.01017289       0.00609670
C       -1.20542113       7.70005707       3.66975575       0.00000000       0.00482830      -0.00052591       0.01800888
C       -2.45096002       9.79231613       3.93582955       0.00000000       0.00651578       0.00634760       0.00227331
C        4.93489161       1.28509897       4.17882770       0.00000000      -0.00278010      -0.01149087      -0.01959075
P        3.40511630       3.61183132       4.52298660       0.00000000       0.01807493      -0.01020837       0.00562703
C        1.26136567       7.81494476       3.63483374       0.00000000      -0.00316242       0.00385803       0.00104979
C        0.00710490       9.87062779       3.96096747       0.00000000       0.00524584      -0.00432262      -0.02640266
C        7.41060054       1.34252040       3.99349045       0.00000000      -0.00336931      -0.01020232       0.00035253
C        6.17821913       3.44919687       3.94262675       0.00000000       0.00796698      -0.00551707       0.00975308
C        4.95840834       5.51218045       3.43421002       0.00000000       0.00675118      -0.00739270       0.02930925
C        3.65584143       7.83519551       3.38558287       0.00000000       0.01333804      -0.00137470      -0.00121283
C        2.48241161       9.94263193       3.82571352       0.00000000       0.00029230      -0.00972685      -0.00866170
C        9.90059849       1.33985132       3.74024567       0.00000000       0.00779482      -0.01335453      -0.01089594
C        8.66459568       3.45330540       3.73748755       0.00000000      -0.00678911       0.00415521      -0.01987430
C        7.41038132       5.56287795       3.58270851       0.00000000      -0.01839898       0.01479565      -0.00306803
C        6.15417615       7.68788806       3.47023320       0.00000000      -0.00708557      -0.00750818      -0.01434612
C        4.94103158       9.85476788       3.63677314       0.00000000      -0.00332778      -0.00188736       0.00072714
Y        1.99364570       5.90653876       5.77558584       0.00000000      -0.04325211       0.02469841       0.03741836
O        1.32946593       7.04494493       7.25876590       1.00000000       0.00025950      -0.03388018      -0.05316801
O        0.36452765       5.99578357       6.90678250       1.00000000       0.04816889       0.01343121       0.00327002
