50
Lattice="12.336457 0.0 0.0 -6.168228499999997 10.683685154694365 0.0 0.0 0.0 15.0" Properties=species:S:1:pos:R:3:forces:R:3 energy=-446.79967147792337 free_energy=-446.79967147792337 stress="-0.004749864963522359 -0.0015371269136377284 -7.291335291932055e-06 -0.0015371269136377284 -0.0005910070491631027 -3.0000732989430244e-06 -7.291335291932055e-06 -3.0000732989430244e-06 -1.0340276854068351e-05" pbc="T T T"
C       -0.01704959       0.01603154       3.64289783       0.00358355       0.00025880      -0.00519604
C       -1.27066149       2.13203325       3.58723028      -0.00420568      -0.00178044       0.00352438
C       -2.50159361       4.28012442       3.55009795       0.00167129       0.01267615       0.01168736
C       -3.72206798       6.43079048       3.57062377      -0.00118641      -0.00501696      -0.00869239
C       -4.94360564       8.57721155       3.62590679       0.00930728      -0.00787364      -0.00129342
C        2.44966109       0.05869178       3.71105342       0.00224371       0.00121195       0.00475751
C        1.17286217       2.17614418       3.88832917       0.00512849       0.00128946       0.00622008
C       -0.06841163       4.20103674       3.91068923      -0.00810496      -0.00324023       0.01538652
C       -1.27091720       6.41480575       3.75244637      -0.00117773       0.00151513       0.00528387
C       -2.48471167       8.57301016       3.66197957       0.00653694       0.00330508      -0.00251855
C        4.90640354       0.03222214       3.66225154       0.00203156       0.00167621       0.00447720
C        3.69689685       2.20608467       3.80182556      -0.00058547      -0.00926518       0.00170581
B        1.07808947       6.49658426       4.16017440      -0.00181048       0.01201203      -0.00074232
C       -0.03155713       8.57723334       3.78286698       0.00081957      -0.00229352      -0.00312188
C        7.38402918       0.00597595       3.62814500      -0.00317084      -0.00425255      -0.00636525
C        6.14773626       2.15221436       3.57226369       0.00097502       0.00124520      -0.00183274
C        4.92605906       4.27243374       3.77478766      -0.00386167      -0.00673834      -0.00673273
N        3.76382974       6.44984967       4.04615385       0.00186831      -0.00602105      -0.00937069
C        2.47737251       8.55759157       3.85055844       0.00097306      -0.00831630      -0.01160072
C        9.85162039       0.00044343       3.60612861      -0.01107822      -0.00661837       0.00199989
C        8.60930697       2.14204939       3.49911918       0.00243059       0.01196381       0.00786467
C        7.37990827       4.29219084       3.52384425       0.00254125       0.00593603      -0.00100111
C        6.15789101       6.43550111       3.65155559      -0.00174026       0.00373449      -0.00173916
C        4.93025021       8.55101282       3.71040735      -0.00852072      -0.00022711      -0.01401620
C       -0.03486784       1.43426462       3.67236513       0.00283895       0.00193718       0.00883826
C       -1.29016648       3.54055514       3.63453075      -0.00643460       0.00103986       0.00470696
C       -2.49905243       5.71119689       3.60174044      -0.00120647       0.00545746       0.00478002
C       -3.71478809       7.85915651       3.61295563       0.01092173      -0.00811983       0.00385546
C       -4.94564969      10.00622590       3.66306354       0.00643026      -0.00527936      -0.00245319
C        2.44406887       1.48796741       3.82414146       0.00169559      -0.00067808      -0.00514224
N        1.06572242       3.50067856       4.15665791      -0.00489897      -0.00143630       0.00192781
C       -0.07861615       5.64869381       3.95179983      -0.00034436       0.00187028       0.00745620
C       -1.25128536       7.84662911       3.73686315       0.00244628       0.00006040       0.00173558
C       -2.49049960      10.00625951       3.67793522       0.00257581       0.00554688       0.00026554
C        4.91349213       1.45551089       3.65596700       0.00097569      -0.00205174       0.00016673
N        3.77504289       3.56478461       3.89482026      -0.00639542      -0.00826164      -0.00906025
C        1.22675224       7.89819969       3.92738671       0.00078966       0.00587685      -0.00393460
C       -0.02650244       9.99506624       3.67778905      -0.00211921      -0.00429680      -0.00215233
C        7.37869973       1.42962144       3.54140511       0.00380148       0.00319830       0.00607536
C        6.15748776       3.57660353       3.58569949       0.00399166       0.00083365      -0.00069068
C        4.91675325       5.74692588       3.83042355       0.00217452      -0.00481329      -0.00080916
C        3.71489590       7.80899302       3.87710710      -0.00254827      -0.00617900       0.00328274
C        2.45947634       9.97224031       3.68165833      -0.00736198      -0.01156118      -0.00727468
C        9.83922257       1.42212855       3.53148900      -0.00666366      -0.00261454       0.00693730
C        8.60695919       3.56935934       3.48978807       0.00660940       0.01538369      -0.00073285
C        7.37988564       5.71765824       3.56014344      -0.00311873       0.00159518      -0.00020700
C        6.16179355       7.85547133       3.65379318      -0.00275874       0.00417492      -0.00827803
C        4.91599134       9.97295536       3.64204335      -0.00525287       0.00104422      -0.00548400
Y        2.60536972       4.82719622       5.55849802       0.00683594       0.01727318      -0.00040525
O        3.59486010       4.14973370       7.02522842       0.00234813      -0.00518091       0.00791221
