50
Lattice="12.336457 0.0 0.0 -6.168228499999997 10.683685154694365 0.0 0.0 0.0 15.0" Properties=species:S:1:pos:R:3:forces:R:3 energy=-442.1655103018435 free_energy=-442.1655103018435 stress="-0.005113864347396722 0.0008795357875291186 -9.905741571365427e-06 0.0008795357875291186 0.00030727174256030363 7.526123302164046e-06 -9.905741571365427e-06 7.526123302164046e-06 -5.106797326620084e-06" pbc="T T T"
C        0.03853394       0.01763257       3.67037542      -0.00702698      -0.00479657       0.00244013
C       -1.20701240       2.14173190       3.55394469      -0.00789322      -0.00400393      -0.00839452
C       -2.43652356       4.28493471       3.48842376       0.01196955       0.00040563       0.00532712
C       -3.66564155       6.42196177       3.56966153      -0.00101246       0.00719438      -0.00085523
C       -4.90010208       8.56526251       3.67785078      -0.00844297      -0.00333308      -0.00489374
C        2.49089496       0.04495349       3.72140465      -0.00069527      -0.01052057      -0.00455285
C        1.23907295       2.14815364       3.77081691      -0.00286374      -0.00621766      -0.00365488
C       -0.01677985       4.29111096       3.63964667       0.00280813      -0.00389685      -0.00007105
C       -1.21233607       6.42228177       3.56211903       0.00838572       0.00382811       0.00538175
C       -2.43718568       8.56718247       3.61626618       0.00236447       0.00283172      -0.00559757
C        4.96820544       0.01480253       3.69237987      -0.00205519      -0.00028845      -0.00171954
C        3.75147087       2.18240443       3.94375772       0.01276285       0.00829576      -0.00354091
O        1.17578070       6.44780864       3.93948672       0.00001497      -0.01196007      -0.00779489
C        0.02328985       8.54010306       3.69038640      -0.00520189       0.00458567       0.00322076
C        7.43497789      -0.01239872       3.64281897      -0.00316547       0.00095838       0.00686350
C        6.22260437       2.12428800       3.70045963      -0.00265904      -0.00280811      -0.00319994
C        5.02010484       4.22580483       4.02122504       0.00075435       0.00422327       0.00328932
B        3.86523861       6.47780645       4.21837260       0.01194172      -0.00267056       0.00465167
C        2.46425252       8.53260727       3.83583014       0.00869769      -0.00022100      -0.00511542
C        9.89691138      -0.00971559       3.64170304       0.00641565       0.00679854       0.00119195
C        8.67328615       2.13034964       3.54945652      -0.00543111       0.00007582      -0.00774030
C        7.45476724       4.26934965       3.63174920      -0.00725043       0.00113765       0.00289456
C        6.23543030       6.41634987       3.81720256      -0.01235644       0.00750905       0.00330456
C        4.97431533       8.55889122       3.80515173       0.00249787       0.00385278      -0.00218526
C        0.03157100       1.44583363       3.64823424      -0.01147745      -0.00590414      -0.00134346
C       -1.21152508       3.56889856       3.51408204       0.00534060      -0.00738941       0.00293556
C       -2.43618004       5.70391573       3.50799252       0.00955729       0.00384404       0.01191475
C       -3.67231725       7.85190379       3.61293516      -0.00034062       0.00745882      -0.00391572
C       -4.89951391       9.99909574       3.68539919      -0.00777164      -0.00738451       0.00610424
C        2.47665089       1.47507989       3.83176576       0.00735138      -0.00310900       0.00383835
O        1.18168552       3.54560570       3.76436580      -0.00249703       0.00210163       0.00529981
C       -0.01700320       5.70012504       3.68958455       0.00405320      -0.00705360      -0.00250491
C       -1.21550776       7.84543081       3.60914745      -0.00040050       0.00302505       0.00562898
C       -2.44378109       9.99940556       3.68129236       0.00208672      -0.00301583      -0.00518407
C        4.98016450       1.43273034       3.76926838       0.00715669      -0.00421784       0.00857423
C        3.85149723       3.51828999       4.22582713      -0.00221812       0.00905475       0.00272859
C        1.22871585       7.84198765       3.83795734       0.00054004      -0.00065560      -0.01382504
C        0.03345556       9.97004489       3.66767347      -0.00688816       0.00374840      -0.00108587
C        7.44881812       1.41246773       3.60925681      -0.00551669      -0.00104192      -0.00141618
C        6.24896088       3.53637873       3.76414129      -0.00858042      -0.00151247      -0.00064396
C        5.04893688       5.67324596       4.04331358       0.00136995      -0.00237767       0.00242052
C        3.72533435       7.86890481       3.93914978       0.01228375      -0.00292949       0.00527702
C        2.48736949       9.95615644       3.68776439       0.00660513       0.00769334       0.00323698
C        9.90869878       1.42030872       3.55986141      -0.00562160       0.00279490      -0.00281857
C        8.67612459       3.55900953       3.52959920       0.00162622       0.00192793      -0.00543055
C        7.45586331       5.70332858       3.65437373      -0.01039001       0.00860208       0.00882487
C        6.20655204       7.84341775       3.77203275      -0.00798237       0.00241045      -0.00454165
C        4.97309274       9.98059947       3.69123770       0.00041040      -0.00015127      -0.00451326
Y        2.15561293       4.86168417       5.40389049       0.01295834      -0.00441971      -0.00415215
O        0.81012299       4.54231306       6.69290786      -0.00421386      -0.00247884       0.00534226
