49
Lattice="12.336457 0.0 0.0 -6.168228499999997 10.683685154694365 0.0 0.0 0.0 15.0" Properties=species:S:1:pos:R:3:forces:R:3 energy=-430.76688844062465 free_energy=-430.76688844062465 stress="-0.006888342693299118 -0.0021864117514050502 -1.2626701728457691e-05 -0.0021864117514050502 -0.00461456183705962 1.0459663716250997e-05 -1.2626701728457691e-05 1.0459663716250997e-05 -7.418055996433468e-07" pbc="T T T"
C       -0.00847820      -0.00250255       3.71980813       0.00720957       0.00508529       0.00938469
C       -1.25833566       2.12786697       3.62276134      -0.00461132      -0.00207336       0.00164372
C       -2.50107952       4.27354297       3.90318033      -0.00557582      -0.00058971      -0.00525338
C       -3.70726949       6.42236199       4.01656649       0.00292936      -0.00635467       0.00075931
C       -4.92889342       8.56415456       3.92491231      -0.00374575      -0.00526761      -0.00367361
C        2.46523496      -0.01316860       3.65371391       0.00128350       0.00164582       0.00226236
C        1.20031949       2.04885328       3.18969972       0.00013271       0.01635641      -0.00075728
C       -0.13053409       4.29154522       3.46061550      -0.00263703       0.00567926      -0.00785369
C       -1.26396418       6.41649912       3.96941608      -0.00060485       0.00500073       0.01107182
C       -2.46952760       8.55580982       3.96042747      -0.00100497      -0.00185850       0.00244900
C        4.92568847       0.00704760       3.79645196       0.00429626      -0.00070045      -0.00193213
C        3.72075886       2.06833991       3.20474002      -0.00901801       0.00531959      -0.00284504
B        1.18329915       6.43596642       4.01936992       0.00246395       0.00868994      -0.00391081
C       -0.01162695       8.56249735       4.00034918       0.00805476      -0.00875527       0.00217075
C        7.39570991       0.00578055       3.91282646      -0.00262535      -0.00498781      -0.01289020
C        6.15398386       2.14854251       3.71269616       0.00168642      -0.00133793      -0.00402292
C        5.00691223       4.33611393       3.44349159       0.00428039       0.00618032       0.00152965
N        3.77452809       6.45092963       3.85267676       0.00609304       0.00334798      -0.01700750
C        2.49013405       8.54983647       3.98124159      -0.00352022       0.01119177       0.00230766
C        9.86422224       0.00245914       3.86243012       0.00542930      -0.01303701      -0.01101884
C        8.62064121       2.14049577       3.87535576      -0.00065274      -0.00404141      -0.00328538
C        7.38870734       4.28414437       3.93694245      -0.00751942       0.00313240      -0.00097439
C        6.19319679       6.44910393       3.89051484       0.00867081       0.00315454       0.00081352
C        4.94395914       8.55201919       3.91122792      -0.00904224      -0.00837681       0.00143570
C       -0.02414672       1.41172677       3.50728289       0.00387186       0.01085130       0.01322214
C       -1.29673118       3.54150152       3.66233502      -0.00242001       0.00056744      -0.00469335
C       -2.48991143       5.70085261       3.98504645       0.00230766      -0.00097618       0.00923569
C       -3.70001712       7.84757875       3.98325085      -0.00224551      -0.00716453       0.00338570
C       -4.93675972       9.97937747       3.77727830       0.00365671      -0.00073730       0.00744343
C        2.46128865       1.38459587       3.30687371      -0.00606398       0.00735109      -0.00072367
S        1.08626309       3.62522127       2.41668435      -0.00111108      -0.00255045      -0.00748233
C       -0.05623747       5.67201926       3.81750036      -0.00164933       0.00743838      -0.00041204
C       -1.23652263       7.83942399       4.00504810       0.00239420       0.00235034       0.00851921
C       -2.47198981       9.97504428       3.81829004       0.00279498       0.00015415      -0.00353643
C        4.93015124       1.42649357       3.58469010      -0.00271253       0.00526355       0.00135392
S        3.92330836       3.56812503       2.24455342      -0.00959816      -0.00699118       0.00986375
C        1.24154923       7.87517379       4.02361736       0.00987179       0.00363838       0.00742572
C       -0.01068526       9.98621754       3.92719231       0.00275658      -0.01075998      -0.00215624
C        7.38319369       1.43262536       3.85648667       0.00149499      -0.00547463      -0.00735623
C        6.16835420       3.57091916       3.74242518      -0.00101730      -0.00081867      -0.00744654
C        4.97445558       5.77724897       3.69170897       0.01042878       0.00559712       0.00107900
C        3.72464478       7.82292916       3.93605006      -0.01278422       0.00247399       0.00130058
C        2.47214704       9.97623603       3.93798929      -0.00208622       0.00432033      -0.00297927
C        9.85897435       1.42683321       3.80156182      -0.00029781      -0.01187990       0.00695153
C        8.61285066       3.56091026       3.93540505      -0.00897808       0.00053626      -0.00242342
C        7.40131563       5.71072575       3.97117180       0.00253948       0.00112840      -0.00221079
C        6.17736113       7.85989264       3.93072225      -0.00530294      -0.00143164      -0.00238206
C        4.92751830       9.97297688       3.84658906       0.00838781      -0.00936738       0.00736892
Y        2.70943205       4.55566045       4.42355015       0.00378998      -0.01092241       0.00624976
