51
Lattice="12.336457 0.0 0.0 -6.168228499999997 10.683685154694365 0.0 0.0 0.0 15.0" Properties=species:S:1:pos:R:3:initial_magmoms:R:1:forces:R:3 energy=-448.0253059325767 free_energy=-448.0253059325767 stress="-0.004817654876515316 0.0024101914067222196 1.3574729409625286e-05 0.0024101914067222196 -0.0014932356965089689 -9.166354848466324e-06 1.3574729409625286e-05 -9.166354848466324e-06 7.730275596904473e-06" pbc="T T T"
C        0.03341613       0.03175436       3.62636246       0.00000000      -0.00168677       0.00571004      -0.00075317
C       -1.20570281       2.15745683       3.56545847       0.00000000       0.00409820       0.00052237       0.01119631
C       -2.43629462       4.29396382       3.50540922       0.00000000       0.00980014      -0.00859455       0.00710070
C       -3.67280507       6.43104811       3.51953148       0.00000000      -0.00221637      -0.00525161       0.01130305
C       -4.91054538       8.57371696       3.59869462       0.00000000       0.00030470      -0.00264205       0.00374105
C        2.50176580       0.04867507       3.67839184       0.00000000      -0.00412993      -0.00137169       0.01062237
C        1.26159481       2.20684046       3.77581432       0.00000000      -0.00305284       0.00257830       0.00189163
C        0.02628600       4.31028619       3.74376380       0.00000000       0.00280571      -0.00263886       0.00297615
C       -1.21868206       6.44369058       3.60963292       0.00000000       0.00140638       0.00666423       0.01102663
C       -2.44647722       8.57196428       3.58783967       0.00000000      -0.00661214       0.00467399       0.00818996
C        4.96016360       0.01386837       3.65307790       0.00000000       0.00267309      -0.00184463       0.00258950
C        3.77945232       2.12505624       3.88991435       0.00000000      -0.00041113      -0.00439493      -0.00545864
O        1.14155922       6.48871949       4.07244184       0.00000000       0.00411936       0.00104174       0.00349981
C        0.01238526       8.55683968       3.69225194       0.00000000      -0.00149764       0.00456162       0.00280409
C        7.42960659       0.00050534       3.62390385       0.00000000      -0.00298875       0.00000795      -0.00343175
C        6.21846124       2.12874058       3.63201611       0.00000000       0.00523599       0.00205700      -0.00021872
C        5.04482089       4.21726608       3.87602754       0.00000000      -0.00653929       0.00538622      -0.00257199
B        3.86579249       6.48776433       4.01593685       0.00000000      -0.00073866      -0.00136150      -0.00463133
C        2.45400681       8.55008690       3.79177434       0.00000000      -0.00076124       0.00023040       0.00613654
C        9.89228114       0.00835918       3.60828275       0.00000000      -0.00192415       0.00721490      -0.00167411
C        8.67002221       2.14547759       3.52358765       0.00000000      -0.00008756      -0.00271702       0.00306721
C        7.44669868       4.28476030       3.53972119       0.00000000       0.00115545      -0.00159318       0.00328205
C        6.21147404       6.41378396       3.66693841       0.00000000      -0.00030766      -0.00434785       0.01151899
C        4.96654895       8.57325421       3.69881394       0.00000000       0.00510939      -0.00615750      -0.00216379
C        0.03094243       1.45342015       3.63854935       0.00000000       0.00220103       0.00533975      -0.01184013
C       -1.22042605       3.58194635       3.56803131       0.00000000       0.01094007      -0.00558746      -0.00765185
C       -2.44544978       5.71792009       3.52218900       0.00000000       0.00440097      -0.00302717      -0.00212395
C       -3.68190414       7.85916340       3.55889232       0.00000000      -0.00240176      -0.00474416      -0.00379602
C       -4.90148090      10.00377419       3.63226872       0.00000000      -0.00361749      -0.00110725      -0.00314301
C        2.52610568       1.47850465       3.80082119       0.00000000      -0.00627056      -0.00110440      -0.00099306
C        1.17438359       3.56845710       3.90670990       0.00000000      -0.00043497      -0.00209552      -0.00204707
C       -0.02642629       5.74808942       3.79131836       0.00000000       0.00432847      -0.00130475      -0.00889396
C       -1.22569409       7.86301622       3.62048872       0.00000000      -0.00354539       0.01032042       0.00687424
C       -2.44580055      10.00493671       3.64194655       0.00000000      -0.00150892       0.00359284      -0.00552923
C        4.97836756       1.43591442       3.70792289       0.00000000       0.00523836      -0.00070543      -0.00321270
O        3.89309722       3.49013216       4.18900476       0.00000000       0.00044323      -0.00172825      -0.00082837
C        1.21640024       7.86935195       3.84989568       0.00000000      -0.00083983      -0.00095465      -0.00227898
C        0.02804828       9.98151839       3.64748420       0.00000000      -0.00093724       0.00089965      -0.00607120
C        7.43641391       1.42873494       3.57324715       0.00000000       0.00100732      -0.00472973      -0.01065687
C        6.23062261       3.54111906       3.64534553       0.00000000      -0.00145824       0.00365085       0.00149285
C        5.01475735       5.63743497       3.85244980       0.00000000      -0.00209036       0.00288056       0.00680051
C        3.71553080       7.88050556       3.82133896       0.00000000       0.00158302      -0.00580186      -0.00658469
C        2.48097356       9.97327345       3.66088795       0.00000000      -0.00210462       0.00357645      -0.00307288
C        9.89591106       1.43133307       3.54743917       0.00000000       0.00315040       0.00801511      -0.01158832
C        8.66939199       3.57255266       3.49564970       0.00000000       0.00369287      -0.00513685      -0.00071547
C        7.43653636       5.71015151       3.55095407       0.00000000      -0.00541461      -0.00305535       0.00516364
C        6.18872581       7.84227714       3.65309802       0.00000000       0.00387535      -0.00577801      -0.00125184
C        4.96811669       9.99617068       3.63153378       0.00000000      -0.00218287       0.00144194      -0.01027853
Y        2.35847709       4.88191138       5.35198770       0.00000000      -0.00983965       0.00804509       0.01025047
O        1.94152337       3.80567567       7.18570003       1.00000000      -0.00211326      -0.00890335       0.00157596
O        1.04988646       4.88040916       7.09402918       1.00000000       0.00014438       0.01026816      -0.00964208
