51
Lattice="12.336457 0.0 0.0 -6.168228499999997 10.683685154694365 0.0 0.0 0.0 15.0" Properties=species:S:1:pos:R:3:forces:R:3 energy=-447.86593713476276 free_energy=-447.86593713476276 stress="-0.006760696013733759 0.004248341788214386 -1.0336848426190344e-05 0.004248341788214386 -0.004668869542702272 -7.127916386739035e-06 -1.0336848426190344e-05 -7.127916386739035e-06 1.3562258051812605e-05" pbc="T T T"
C        0.05213770      -0.00829265       3.80974214      -0.01150527       0.00579693      -0.01405409
C       -1.16657470       2.12829063       3.76709536       0.00419548      -0.00189520      -0.00982514
C       -2.40272996       4.25997121       3.73122163       0.00185682      -0.00045722      -0.00441154
C       -3.65576808       6.39313291       3.77466304       0.00983878      -0.00219802       0.00007900
C       -4.91224146       8.52260709       3.80135753       0.00402025       0.00483956      -0.00822039
C        2.50773368      -0.00867061       3.87765347      -0.00690649      -0.00405118      -0.00075233
C        1.30021499       2.15208730       3.79327764       0.00129603      -0.01079185       0.00087126
C        0.04869757       4.24479296       3.45530497      -0.01857772      -0.00588417      -0.00102958
C       -1.23134126       6.41643987       3.42993027      -0.00172764       0.00249299      -0.00210014
C       -2.44698722       8.54467052       3.70472137       0.00766301       0.00216422       0.00422330
C        4.98583894      -0.02291888       3.89216689      -0.00434134      -0.00415143      -0.01302841
C        3.77715313       2.10258556       4.00778637       0.00078119      -0.00442034       0.00378280
B        2.63575173       4.31469869       3.82506238       0.00881671       0.01475576      -0.00472701
P        1.22598729       6.49749634       2.19166309       0.00473931       0.01304376       0.00838687
C        0.01225438       8.56282950       3.50477111      -0.01199755      -0.00211549       0.01041942
C        7.45385417      -0.01195523       3.82339696       0.01020083      -0.00606584       0.00745486
C        6.25729378       2.08641334       4.05524626      -0.01084734      -0.00055918       0.00344815
C        5.07076632       4.19386642       4.02071497      -0.00076373       0.00102735       0.00904314
S        3.47974633       6.10533384       3.32805657       0.00848007      -0.00342745      -0.00192474
C        2.51311988       8.59001631       3.50168787      -0.00427428      -0.00812492      -0.00615167
C        9.93342686      -0.00695726       3.78712109       0.00914080       0.01195923       0.00814733
C        8.71435465       2.11645131       3.90994341       0.00084730       0.00641234       0.00462676
C        7.49895266       4.24682202       3.97366161       0.00259311      -0.00470141       0.01387706
C        6.21417166       6.37138840       3.82402269      -0.00036421      -0.00816158       0.00767236
C        4.96141369       8.51114978       3.69695733       0.00484343       0.00595175      -0.00130858
C        0.06675450       1.42241419       3.78711564      -0.00211212      -0.00371330       0.00926689
C       -1.17996633       3.54310342       3.64695987      -0.00870468      -0.00691751      -0.00002092
C       -2.43247440       5.68380915       3.65156905       0.00803960      -0.00175637       0.00002345
C       -3.67214594       7.82165658       3.76275265       0.01020646       0.00327125      -0.00314463
C       -4.89361730       9.95566552       3.82936238      -0.01325381       0.00782635      -0.00353574
C        2.51788562       1.41750081       3.91175901       0.00436742      -0.00875362      -0.00496004
C        1.30101475       3.58908448       3.67035208      -0.00859449      -0.00878374      -0.00747930
C       -0.02946397       5.66473616       3.14981378      -0.01045983       0.00072175       0.00963181
C       -1.21840567       7.84097590       3.51409417      -0.00288509      -0.00030549      -0.00284654
C       -2.43115848       9.95940466       3.83527913      -0.00350111      -0.00240004       0.00936199
C        5.01283544       1.38297495       4.02384027      -0.00674967      -0.00599238      -0.00028467
C        3.84970795       3.50449340       3.99691205       0.00643894      -0.00352739      -0.00771782
C        1.26410838       7.89719286       3.27243768      -0.01493353      -0.00061341      -0.00699692
C        0.04400990       9.96582875       3.76018976      -0.00048419      -0.00276382      -0.00485079
C        7.48129076       1.39469533       3.95624086      -0.00409700       0.00047963       0.00681456
C        6.29732681       3.50415299       4.08158053      -0.00404533       0.00052757       0.00175328
C        5.06097121       5.57846739       3.81181881      -0.00524985       0.00040314       0.00912506
C        3.70879325       7.87239951       3.54533017       0.00420995       0.00560002      -0.00053759
C        2.52253806       9.98732979       3.71673262       0.01528595      -0.00487696       0.00228628
C        9.94146688       1.41332345       3.83296718       0.00649421       0.01180634       0.00962377
C        8.72203101       3.53943510       3.89591164       0.00478409       0.00353565       0.00073682
C        7.46799514       5.66908436       3.88327579       0.00569686      -0.00747324      -0.00200915
C        6.19386506       7.80098555       3.76579436       0.00498212      -0.00489028      -0.01201288
C        4.98659985       9.95461214       3.76558806      -0.00100354       0.00717779      -0.00491419
Y        1.09241505       6.14041621       5.17233600       0.00632437       0.01565135      -0.00901229
O       -0.20877889       6.49559397       6.41512828       0.00123672       0.00432812      -0.00279912
