50
Lattice="12.336457 0.0 0.0 -6.168228499999997 10.683685154694365 0.0 0.0 0.0 15.0" Properties=species:S:1:pos:R:3:forces:R:3 energy=-442.9695671534159 free_energy=-442.9695671534159 stress="0.011318152088902503 -0.0006225260198972807 -1.0478197015250234e-06 -0.0006225260198972807 0.000696473877557557 1.2932887935266508e-05 -1.0478197015250234e-06 1.2932887935266508e-05 -5.957228744168057e-06" pbc="T T T"
C       -0.01042515       0.02076116       3.72165324       0.00317695      -0.00238122      -0.00131044
C       -1.23582121       2.18626059       3.70870773      -0.00685336      -0.00238829      -0.01286859
C       -2.46469572       4.32593415       3.67151554       0.01103559       0.00105580       0.00140195
C       -3.70825843       6.43743637       3.68502564      -0.00213428      -0.00454301      -0.01126053
C       -4.95161433       8.56133321       3.70195412      -0.00869283       0.00228309       0.00613115
C        2.45944219       0.03225879       3.77192812       0.00301711       0.00464884      -0.00797854
C        1.19330873       2.12873953       3.90306906      -0.01058126      -0.00869304      -0.00223992
C       -0.00337464       4.29060997       3.79805570       0.00280367       0.00496356       0.01081785
C       -1.14947209       6.41580391       3.70116181       0.00236220       0.00687876      -0.00786052
C       -2.45885208       8.55840579       3.70848895       0.00597708       0.00124123      -0.00620699
C        4.92568656       0.02842593       3.71421002      -0.00345366       0.00012259      -0.00612251
C        3.71375756       2.13890233       3.84313033       0.00515283      -0.00253956       0.00456587
B        1.55948484       6.44450360       3.71941384      -0.00901475       0.00935704       0.00919426
C        0.01621363       8.58014195       3.67351000       0.01398746      -0.00014457       0.00706755
C        7.38545104       0.07388474       3.65317498      -0.00948802      -0.00688551      -0.00024533
C        6.14573686       2.19562498       3.67790427      -0.00024932       0.00302382      -0.00492170
C        4.90635053       4.30906335       3.73525917      -0.00392211       0.00288566       0.01119938
C        3.45671263       6.45386403       3.73799186       0.00563261      -0.00291681       0.01474415
C        2.46245621       8.65476153       3.66120838       0.00921926       0.00078415      -0.00476395
C        9.86696438       0.06734927       3.66014489       0.00472800      -0.00633610       0.00983213
C        8.62482374       2.20451955       3.65115788      -0.00296045      -0.00173112      -0.00079016
C        7.37192845       4.33120530       3.65685186       0.00155726      -0.00005327      -0.00015050
C        6.07386564       6.42735113       3.67782037      -0.00294510       0.00543574      -0.00056384
C        4.90527375       8.57091987       3.67981702      -0.00783063       0.00274753       0.00340259
C       -0.00614919       1.45480223       3.76601926      -0.01152364      -0.00629459      -0.00324569
C       -1.22625289       3.60381828       3.70004423       0.00755103       0.00024743       0.00881826
C       -2.43471485       5.73824646       3.68711439       0.00410286       0.00152929      -0.00575537
C       -3.70666260       7.85613734       3.69911353      -0.00253470      -0.00150838       0.00568451
C       -4.94255551       9.99390370       3.73345216       0.00455529       0.00376343       0.00616939
C        2.45613305       1.48343558       3.85798286      -0.00040469       0.00342076      -0.01315082
O        1.13547706       3.51901068       4.04656446      -0.00119192      -0.00708602      -0.00389537
C        0.14488844       5.69925223       3.73904328      -0.00371863       0.00746189      -0.00827553
C       -1.20822742       7.84435765       3.69481149       0.01399295       0.00543792      -0.00464501
C       -2.47442910       9.99471663       3.73435600      -0.00091641       0.00325886      -0.01100921
C        4.91645020       1.46471933       3.73640562       0.00478141      -0.00116876      -0.00201467
O        3.75180645       3.53576485       3.86280315      -0.00950712      -0.00031393      -0.00088051
C        1.27024340       7.91728438       3.66833938       0.01251738       0.00349976       0.00766670
C       -0.00367754      10.01811384       3.67288098      -0.00701019      -0.00557631       0.00169870
C        7.37779059       1.49828753       3.65317857      -0.00608081      -0.00441210       0.00062037
C        6.12804757       3.61835954       3.66598679      -0.00369717       0.00494267       0.00884001
C        4.76378067       5.72733594       3.70485230       0.00386953       0.00439121       0.01181251
C        3.65312056       7.87340111       3.68591522       0.00025661      -0.00624207       0.01164059
C        2.45943568      10.06751420       3.64732263       0.00048317      -0.00214480      -0.00289176
C        9.87089539       1.49119062       3.66595103      -0.00371381      -0.00599432      -0.00382352
C        8.62114540       3.62479250       3.65541001       0.00742398       0.00162389      -0.00547672
C        7.34827944       5.74424552       3.67314722      -0.00507759      -0.00050897      -0.00801076
C        6.13170989       7.84924089       3.68602457      -0.01376773       0.00570968      -0.00244138
C        4.91860036      10.00328632       3.68128527       0.00563079      -0.00301602      -0.00166874
Y        2.55589717       4.60690511       5.51154648       0.00358510      -0.00093291      -0.00354677
O        2.84540670       3.32074790       6.83011354      -0.00012992      -0.00690289       0.00670743
