50
Lattice="12.336457 0.0 0.0 -6.168228499999997 10.683685154694365 0.0 0.0 0.0 15.0" Properties=species:S:1:pos:R:3:forces:R:3 energy=-433.98126532537634 free_energy=-433.98126532537634 stress="0.0012743967178978888 0.0001340946577302552 9.67336846750035e-06 0.0001340946577302552 -0.010670313070706693 -2.6639739738406063e-06 9.67336846750035e-06 -2.6639739738406063e-06 -6.723245512051842e-06" pbc="T T T"
C        0.05634617      -0.02105047       3.74222290      -0.00411931      -0.00217609       0.00409085
C       -1.16108222       2.14098597       3.61078784       0.00538266       0.00773500      -0.00159212
C       -2.39597057       4.27895971       3.57288663      -0.00453248      -0.00029218       0.00060485
C       -3.63121818       6.40128926       3.61315800      -0.01092139      -0.00486482       0.01377076
C       -4.89252386       8.51247594       3.67204733      -0.00171849       0.00081163      -0.01552241
C        2.51933261      -0.08593246       3.99333462       0.00676859      -0.00595626      -0.00788079
C        1.32473994       2.04013517       3.72804944       0.00180995      -0.00301533       0.00755583
C        0.05872651       4.28142831       3.21765793      -0.01476529       0.00292360      -0.00110825
C       -1.13869379       6.41774702       3.53777000       0.00357707      -0.00155117       0.00236279
C       -2.39615804       8.51431908       3.81662151       0.00594344       0.00119298      -0.00223432
C        4.99269595      -0.01843514       4.09150460       0.00467712       0.00206532      -0.00601052
C        3.72537430       2.02880595       4.29626471       0.00417377      -0.00275847      -0.00733407
B        1.45235165       6.49355638       3.42855223       0.01221402      -0.00180442       0.00543407
C        0.07164998       8.57235923       3.80583881      -0.00435012       0.00676653       0.01223589
C        7.45317696       0.05152272       3.97993194      -0.00425044       0.00396750      -0.00957088
C        6.21993982       2.16135763       4.11318245      -0.00300621      -0.00899244      -0.00365841
C        5.01204260       4.33412321       3.93013750       0.00687344       0.00527301      -0.01326832
S        3.39668884       6.31690940       2.91184787       0.00482193       0.00724710      -0.00449744
C        2.52106674       8.66362359       3.64747734      -0.00747811       0.00148230       0.00476451
C        9.93891629       0.04663428       3.78064587       0.00713696       0.00979518       0.00509463
C        8.69810795       2.16739930       3.84944188      -0.00369341       0.00553526       0.00313638
C        7.46226465       4.28503677       3.77943960       0.00326954      -0.00234015       0.00495949
C        6.20446810       6.40509181       3.49918085      -0.00108511      -0.00103437      -0.00762607
C        4.97376615       8.55924162       3.52191081       0.00300481      -0.01760402      -0.00775903
C        0.05924298       1.40207174       3.68904414       0.00020348       0.00128586      -0.01095873
C       -1.16560098       3.55469665       3.46860812      -0.00700376       0.00228876      -0.01686742
C       -2.38477250       5.69912701       3.56782225      -0.00344199      -0.00479833       0.00514872
C       -3.63880495       7.81350993       3.69245279      -0.00132237      -0.00040750      -0.00095794
C       -4.88854730       9.92358266       3.80273083      -0.00191672      -0.00071870      -0.00238105
C        2.52292981       1.31592227       4.06419596       0.00747330      -0.00780608      -0.00015022
P        1.63143959       3.50084344       2.78830533       0.00304812       0.00167127      -0.00145035
C        0.12237904       5.71883369       3.34881849       0.00896509       0.00573306       0.00703650
C       -1.15327998       7.82526848       3.72965461       0.00337824      -0.00031831       0.00467867
C       -2.39980547       9.92118527       3.99733585       0.01044167       0.00023032       0.00059558
C        4.98826909       1.41262031       4.21078917       0.00172264      -0.00743902      -0.00174888
P        3.44860134       3.74698745       4.50457864      -0.00721402      -0.00339808       0.01026547
C        1.31959580       7.94352795       3.64081522      -0.00959750       0.00288260      -0.00416342
C        0.06005928       9.99562867       3.98534276      -0.00003292       0.00560043      -0.00156125
C        7.45562417       1.46876616       4.00861629      -0.00485046      -0.00039318       0.00439191
C        6.22575224       3.58231832       3.97653172       0.00720701      -0.00374292      -0.00020902
C        5.00457624       5.65512054       3.48806827      -0.00151242       0.01132541       0.00379102
C        3.71201901       7.96437361       3.39346179      -0.00593587      -0.00670552       0.00992535
C        2.52814403      10.06104628       3.84076285       0.00167519       0.00891814       0.00283547
C        9.93708626       1.46054709       3.76182506       0.00469203       0.01537036       0.00457982
C        8.70282197       3.58023341       3.74421162       0.00178013       0.00176198       0.00594756
C        7.45927529       5.69684894       3.61862513      -0.01107159      -0.00387088       0.00276758
C        6.20734768       7.82461723       3.51816302       0.00242664      -0.00952117       0.00010961
C        4.98740478       9.98682688       3.68475419       0.00207763      -0.01212857      -0.00529025
Y        0.95161234       4.61217859       5.44123563      -0.00402279      -0.01233191       0.00625508
O       -0.43002307       4.14658930       6.56160412      -0.00690170       0.01410630       0.00146277
