51
Lattice="12.336457 0.0 0.0 -6.168228499999997 10.683685154694365 0.0 0.0 0.0 15.0" Properties=species:S:1:pos:R:3:initial_magmoms:R:1:forces:R:3 energy=-444.8731787525199 free_energy=-444.8731787525199 stress="-0.0015691133087868988 -0.0029414676058275306 -1.4410844157927155e-05 -0.0029414676058275306 -0.007784431113865418 -4.084346231826009e-06 -1.4410844157927155e-05 -4.084346231826009e-06 -7.133302535213717e-05" pbc="T T T"
C        0.00691951       0.05628772       3.62788576       0.00000000       0.00106483      -0.00658561       0.00080147
C       -1.23843854       2.19178246       3.61968204       0.00000000       0.00009397      -0.00650617      -0.01157436
C       -2.45654025       4.33494767       3.68777029       0.00000000      -0.00491038       0.00307953      -0.01021223
C       -3.68145595       6.46498275       3.75301366       0.00000000       0.00315337      -0.00179120      -0.00390175
C       -4.91843525       8.59782598       3.73014668       0.00000000      -0.00156536       0.01132657       0.00124849
C        2.47214919       0.04732981       3.67658709       0.00000000      -0.00389572       0.00502254      -0.00216285
C        1.19587015       2.17998713       3.80017759       0.00000000       0.00959099      -0.00987702       0.00140925
C       -0.00807041       4.23791287       3.96188509       0.00000000      -0.00001180      -0.00380877       0.01357036
C       -1.17937647       6.44216408       3.88408134       0.00000000       0.00407891       0.00320624       0.00103404
C       -2.43613134       8.59290921       3.77036815       0.00000000      -0.00397751       0.00102382       0.00862648
C        4.94095733       0.06531866       3.58492794       0.00000000      -0.01256365      -0.00211310       0.01775172
C        3.67419627       2.16664805       3.36193314       0.00000000       0.00527221       0.00049020       0.00526818
P        1.64291665       6.33260050       4.26559041       0.00000000      -0.00391637       0.01918888       0.00080666
C        0.02077491       8.62568795       3.83982614       0.00000000       0.00518844      -0.00499526      -0.01114637
C        7.39504872       0.09793314       3.55662805       0.00000000       0.00597833       0.00431646       0.00207385
C        6.16024190       2.21396755       3.38339135       0.00000000      -0.00653617       0.00348493       0.00599305
C        4.97082943       4.37492965       3.36096019       0.00000000       0.00304316      -0.00513251      -0.00235591
B        3.56038114       6.49262035       3.84416770       0.00000000      -0.01717436       0.00772932      -0.00074910
C        2.49279022       8.70936916       3.74091432       0.00000000       0.00796559      -0.00579990      -0.00740610
C        9.88122895       0.09418741       3.53842713       0.00000000       0.00587348      -0.00019663       0.00421659
C        8.63219793       2.21825355       3.49871517       0.00000000      -0.00004658       0.00766690      -0.00188294
C        7.40936181       4.34663203       3.55546601       0.00000000      -0.00086379      -0.01057339       0.00558340
C        6.16156462       6.47543063       3.72225870       0.00000000      -0.00135324      -0.00206599      -0.00525686
C        4.95105443       8.63026179       3.67191701       0.00000000      -0.00707109       0.00201213      -0.00321528
C       -0.01476689       1.47348497       3.64937635       0.00000000       0.00638276      -0.01028698      -0.00610510
C       -1.23876920       3.59625982       3.72432884       0.00000000      -0.00483966      -0.00457453       0.00556935
C       -2.43886229       5.75319898       3.77972191       0.00000000       0.00494159       0.00506702      -0.00975765
C       -3.67767093       7.88729479       3.76505259       0.00000000      -0.00195335       0.00061747       0.00433605
C       -4.92507939      10.01981104       3.69273248       0.00000000       0.00036149       0.00650702      -0.00368827
C        2.45065389       1.46741464       3.62725953       0.00000000       0.00686797      -0.00553749      -0.00311645
N        1.13838822       3.50109928       4.17349317       0.00000000       0.01229056      -0.00384450      -0.00145933
C        0.02971537       5.67064948       3.99697421       0.00000000       0.00224678       0.00325637       0.00504394
C       -1.19618058       7.88004211       3.84762065       0.00000000       0.00151111      -0.00019074       0.00902708
C       -2.45166828      10.02001627       3.68127738       0.00000000      -0.01383550       0.00116319       0.00182008
C        4.93061435       1.48697689       3.41002343       0.00000000      -0.00372127       0.00171567       0.00286417
P        3.56387855       3.72805074       2.56421698       0.00000000      -0.00503231      -0.00937127      -0.00074134
C        1.28432795       7.99528636       3.94566216       0.00000000       0.00679825       0.00764088       0.00526104
C        0.00540171      10.05161674       3.65862599       0.00000000      -0.00219190       0.00139488      -0.00667592
C        7.39317469       1.51226018       3.46062272       0.00000000      -0.00128896       0.00985436      -0.00258304
C        6.18386723       3.63356941       3.40028112       0.00000000      -0.00229162      -0.00363888      -0.00520355
C        4.91298673       5.76999275       3.67296009       0.00000000      -0.00516214       0.00038789      -0.00476038
C        3.70537425       7.98531238       3.72964629       0.00000000       0.00189758      -0.00677648       0.00491779
C        2.47135387      10.10281865       3.58426422       0.00000000       0.01084394      -0.00495591       0.00526232
C        9.86760917       1.50525852       3.52674859       0.00000000      -0.00238616       0.00198668      -0.00454328
C        8.64002666       3.63648586       3.56658231       0.00000000      -0.00032977       0.00152524       0.00688387
C        7.40724313       5.76665115       3.68487939       0.00000000       0.00249672      -0.01028681      -0.01011706
C        6.18270653       7.89645873       3.72514804       0.00000000      -0.00604283       0.01039955      -0.00520064
C        4.94349018      10.05174266       3.59536714       0.00000000      -0.00193424       0.00151279       0.00330044
Y        2.81295017       4.06308589       5.75564775       0.00000000       0.00899591      -0.00157911      -0.11322015
O        2.41646044       3.55777978       7.71800742       1.00000000       0.00621275      -0.00993356      -0.01218671
O        3.10127955       2.45605772       7.01839547       1.00000000      -0.00825495       0.00884528       0.12655300
