52
Lattice="12.336457 0.0 0.0 -6.168228499999997 10.683685154694365 0.0 0.0 0.0 15.0" Properties=species:S:1:pos:R:3:initial_magmoms:R:1:forces:R:3 energy=-454.0880581670949 free_energy=-454.0880581670949 stress="-0.003101215014958698 -0.0032960264250814445 -1.2408354701350103e-05 -0.0032960264250814445 -0.0023824855936605796 1.5887027650063166e-06 -1.2408354701350103e-05 1.5887027650063166e-06 4.492156260931924e-05" pbc="T T T"
C       -0.01848331       0.14725085       3.69269761       0.00000000      -0.01234595      -0.01804637       0.01108702
C       -1.28345889       2.25918523       3.53820119       0.00000000       0.00236038      -0.00385968       0.00112877
C       -2.52118431       4.41510371       3.49269852       0.00000000      -0.02029940      -0.00035001      -0.01421565
C       -3.71135674       6.55936626       3.62505764       0.00000000       0.00930469       0.02002679      -0.01346940
C       -4.94408163       8.69602849       3.77912156       0.00000000      -0.00135729      -0.00298756      -0.02499498
C        2.45369774       0.15117246       3.58383306       0.00000000       0.01608040      -0.00566769      -0.00121635
C        1.19427302       2.26402255       3.49205625       0.00000000      -0.00398259       0.01085439       0.01177258
C       -0.10370074       4.36579097       3.30410019       0.00000000       0.00096102       0.00230689      -0.01003248
C       -1.25244988       6.54681853       3.35755707       0.00000000      -0.00826538       0.00427728      -0.01161541
C       -2.46607879       8.69108483       3.53623634       0.00000000      -0.01749168      -0.01580404       0.02617123
C        4.91821093       0.15207712       3.56124789       0.00000000       0.00533178       0.01575995       0.00783014
C        3.67043358       2.32017329       3.55202531       0.00000000      -0.00244104       0.01895397      -0.00138463
B        2.37412312       4.54726901       3.30490662       0.00000000       0.00199091      -0.02646663       0.02708584
P        1.57176853       6.34369620       2.93777752       0.00000000      -0.01203198      -0.00446707       0.01158661
C        0.02028530       8.67447646       3.52711179       0.00000000      -0.01374741      -0.00497975      -0.01973969
C        7.37450680       0.15518114       3.67051086       0.00000000       0.01295818      -0.00010347       0.01472269
C        6.13618231       2.29254863       3.61431917       0.00000000       0.00709610       0.00768333       0.00212363
C        4.92567087       4.44385996       3.82096829       0.00000000      -0.02224131      -0.01473254       0.02224070
S        3.72922458       6.56575326       5.11276178       0.00000000       0.02546171      -0.01350009      -0.01335624
C        2.46420941       8.72345230       3.92612853       0.00000000       0.01568111       0.00901809      -0.00518726
C        9.84712976       0.15518511       3.77315629       0.00000000      -0.00262077       0.00618050       0.01355790
C        8.59665603       2.28556702       3.62210426       0.00000000       0.00719906      -0.02873584      -0.01207331
C        7.37368346       4.42796159       3.67820793       0.00000000      -0.00379953       0.01079254       0.00114680
C        6.17856170       6.56851819       3.99567144       0.00000000       0.00689191       0.01195583       0.00588202
C        4.93579688       8.71748747       4.05593543       0.00000000       0.00417003       0.00711792      -0.00046794
C       -0.04082691       1.55469172       3.55599331       0.00000000      -0.00405291      -0.00970967       0.01760400
C       -1.31662873       3.67284788       3.42213408       0.00000000      -0.01087854       0.00289021       0.02284712
C       -2.49477978       5.84071704       3.48008527       0.00000000      -0.00376732       0.01127345      -0.01738481
C       -3.70467623       7.98477507       3.64140605       0.00000000      -0.01049260       0.00016215       0.02173339
C       -4.94542578      10.12332476       3.69025563       0.00000000       0.00416186      -0.00979978      -0.02005561
C        2.44677046       1.58035746       3.53557045       0.00000000       0.00029495       0.00052732      -0.01864113
C        1.14148502       3.67969353       3.40311851       0.00000000       0.01186643       0.01891056      -0.02020060
C       -0.07418848       5.77771536       3.20248074       0.00000000      -0.00226542      -0.00772533      -0.00359920
C       -1.22841749       7.97465008       3.44919842       0.00000000      -0.01395538      -0.01408300      -0.01399676
C       -2.47930723      10.11992604       3.55300399       0.00000000       0.01632530      -0.01387645       0.03567643
C        4.90493868       1.58476189       3.57731701       0.00000000      -0.00189879       0.02576039      -0.01810766
C        3.66912369       3.77376467       3.60736731       0.00000000       0.01352805       0.00341212      -0.02577164
C        1.28729614       7.99533457       3.58915932       0.00000000       0.00849665       0.01410046       0.01965055
C       -0.01380828      10.11411433       3.59631704       0.00000000       0.00848546       0.00703288      -0.01658162
C        7.36650104       1.57780515       3.63473611       0.00000000       0.00970754      -0.00285386       0.00345946
C        6.14584067       3.71789118       3.68832913       0.00000000      -0.00114748       0.00500994       0.01863256
C        5.00711528       5.80850116       4.22169119       0.00000000      -0.01434435       0.00097870      -0.00687193
C        3.69564216       8.08962280       4.29441762       0.00000000      -0.00942225      -0.03567201      -0.01648344
C        2.44568444      10.14222971       3.80657480       0.00000000       0.00528163       0.01369205      -0.00108104
C        9.82901701       1.56671768       3.64019699       0.00000000       0.01124386      -0.00599298       0.01379386
C        8.59375445       3.70848462       3.59021528       0.00000000      -0.01066343      -0.02395343       0.00116367
C        7.39322417       5.85167933       3.75402436       0.00000000       0.01715576       0.01957915      -0.01187164
C        6.16941386       7.99265998       3.98990553       0.00000000       0.00490053       0.01888236       0.00661429
C        4.92085223      10.13199282       3.83244362       0.00000000      -0.02365700       0.00543330      -0.00222716
Y        2.13654920       4.30131966       6.01075308       0.00000000       0.01650864      -0.03727747       0.05242810
O        0.81766647       3.46020794       7.24894176       1.00000000       0.01929648      -0.02106663      -0.01870610
O        2.09414492       2.73524531       7.24086306       1.00000000      -0.03557064       0.04913887      -0.03060569
