52
Lattice="12.336457 0.0 0.0 -6.168228499999997 10.683685154694365 0.0 0.0 0.0 15.0" Properties=species:S:1:pos:R:3:forces:R:3 energy=-448.9123928229051 free_energy=-448.9123928229051 stress="-0.002745951267448181 -0.0027534286478148175 3.1890675759812245e-06 -0.0027534286478148175 -0.008335082840057406 3.512118217505246e-05 3.1890675759812245e-06 3.512118217505246e-05 1.6084844447635275e-05" pbc="T T T"
C       -0.02150107       0.00646059       3.68463199       0.00854318      -0.00089441       0.00517326
C       -1.26461865       2.14101028       3.67914804      -0.00297668      -0.00959343      -0.00674904
C       -2.48415167       4.28441187       3.72819637       0.00093815       0.00448142       0.00662140
C       -3.71085302       6.41527353       3.78032785       0.00002674       0.01457028      -0.00003975
C       -4.94623253       8.54887422       3.76973202      -0.01894923      -0.00197029       0.00365061
C        2.44289292      -0.00167834       3.70902440       0.00760705      -0.00885226       0.01178418
C        1.17006848       2.13186830       3.80224673      -0.00287690       0.00335754       0.00377655
C       -0.03359011       4.19242191       3.97618945      -0.00727562       0.00211727       0.00099548
C       -1.21530133       6.39631762       3.92519985      -0.00225274      -0.01148224       0.00171489
C       -2.46679438       8.54578117       3.81363616       0.00540584      -0.00510219       0.00972007
C        4.91293833       0.01655098       3.64459471       0.00088498       0.00918456      -0.00456063
C        3.64763733       2.11672110       3.37623171      -0.00092993       0.00214951       0.00162438
P        1.59662861       6.27576975       4.33421019      -0.00532788       0.00449260       0.01174653
C       -0.00899665       8.57852994       3.90609575      -0.00228623      -0.00846334      -0.00892273
C        7.36989629       0.04745248       3.63770660      -0.00952351       0.00307206      -0.00636372
C        6.13813213       2.15984729       3.42801526       0.00219910      -0.00728674      -0.00122614
C        4.94830868       4.32280484       3.35232582       0.00610497       0.00708940      -0.00030675
B        3.54183189       6.45437144       3.93954998       0.00332229      -0.00488338      -0.00156368
C        2.46326636       8.65726582       3.82028277       0.00105612       0.00640931      -0.01131685
C        9.85407628       0.04241477       3.62245394      -0.00189138       0.00634835      -0.01116045
C        8.60731002       2.16600152       3.56491292       0.00022357       0.00545221      -0.00318118
C        7.38446253       4.29501608       3.58207079      -0.00155215      -0.01107211       0.01013083
C        6.13777066       6.42472202       3.76110145       0.01657115      -0.00420514       0.00163383
C        4.92372559       8.58077544       3.73623452      -0.00352929       0.00693658       0.00010720
C       -0.04282990       1.42347552       3.69901247       0.00266686      -0.00305772      -0.01319667
C       -1.26631090       3.54557382       3.76943804      -0.00240576      -0.00612539      -0.00194762
C       -2.46982973       5.70400279       3.81010022      -0.00456526       0.00460724       0.00661184
C       -3.70665068       7.83745580       3.79959695      -0.00873619       0.01250038       0.00192272
C       -4.95420973       9.97081037       3.73403128       0.00403043      -0.00805068       0.00365565
C        2.41946343       1.41539881       3.64424872      -0.00295398      -0.00620308      -0.00968057
N        1.12652233       3.46499772       4.12160477      -0.00408104       0.00879076      -0.00994953
C       -0.01019155       5.62134016       4.03912437      -0.00109359      -0.00086250       0.00578122
C       -1.22843041       7.83391594       3.89854367       0.00283731      -0.01527817       0.00716441
C       -2.48170371       9.97246312       3.72667042       0.01225225      -0.00336238       0.00589203
C        4.90794974       1.43308934       3.45715273      -0.00067381       0.00624360      -0.00523021
P        3.57645993       3.64481456       2.48470441       0.00504751       0.00723258       0.00643158
C        1.25309875       7.94821493       4.02015558       0.00167925       0.00568465       0.00928487
C       -0.02153665      10.00369172       3.73083494      -0.00937925      -0.00160334      -0.00910077
C        7.37109950       1.45916204       3.52783283       0.00387447       0.00037259      -0.00411216
C        6.16689995       3.57878591       3.41764711      -0.00274062      -0.01079798       0.00753154
C        4.88767816       5.71662427       3.73625272       0.01741618       0.00638806      -0.00335433
C        3.67757515       7.93776745       3.80087438      -0.00014745       0.00087322      -0.00554806
C        2.44473436      10.05146695       3.67080619      -0.00511070       0.00782602       0.00120869
C        9.84126291       1.45312577       3.60182699      -0.00707212       0.00347871      -0.00368433
C        8.61482073       3.58465789       3.61387989       0.00369679       0.00399744      -0.01128199
C        7.37814133       5.71679628       3.70960578       0.01058721      -0.00736866       0.00189865
C        6.15580430       7.84569420       3.77177351      -0.01147129      -0.00393115       0.00915637
C        4.91594234      10.00062991       3.66795809       0.00192309       0.01000998      -0.00597613
Y        3.10330247       4.19850174       5.19258628       0.00218938      -0.00026004       0.01685395
O        3.34885281       4.15870039       7.18509599      -0.00736523      -0.00108261      -0.00475619
O        3.10517672       4.14065871       8.57137236       0.00264367      -0.01121737      -0.00445746
H        4.00947812       4.19588747       8.93936360       0.00344032      -0.00065969      -0.00440576
