52
Lattice="12.336457 0.0 0.0 -6.168228499999997 10.683685154694365 0.0 0.0 0.0 15.0" Properties=species:S:1:pos:R:3:forces:R:3 energy=-456.80913065064175 free_energy=-456.80913065064175 stress="-0.005394249599611814 -0.0013588708347526607 -3.0903651457863203e-06 -0.0013588708347526607 -0.0013861098941706917 -7.639861477448882e-06 -3.0903651457863203e-06 -7.639861477448882e-06 1.4755430004809265e-05" pbc="T T T"
C       -0.01688184       0.02832507       3.64318657      -0.00027299       0.00304564       0.00208590
C       -1.27053756       2.14578001       3.62568203       0.00394205      -0.00017192      -0.00157967
C       -2.50325050       4.29375334       3.59008614       0.00447712      -0.00127135       0.00323249
C       -3.72273994       6.44284633       3.58005177       0.00060577      -0.00394814       0.00065300
C       -4.94491909       8.58774476       3.61534479       0.00178521      -0.00048459       0.00355213
C        2.44933832       0.06601423       3.70647327      -0.00053201       0.00336751       0.00023697
C        1.17525399       2.18252760       3.90256269       0.00196544       0.00227294       0.00317382
C       -0.07631710       4.21785438       3.95065610      -0.00293290       0.00359383      -0.00081975
C       -1.27360323       6.42829474       3.77812137      -0.00083734      -0.00283223       0.00080538
C       -2.48551384       8.58373525       3.65856233       0.00354551       0.00188943       0.00074685
C        4.90768959       0.04039315       3.64513978       0.00190116       0.00285011       0.00431943
C        3.70346057       2.20094040       3.81756231       0.00369861       0.00149030       0.00227388
B        1.07606749       6.51754259       4.16676180      -0.00131506       0.00285503      -0.00327589
C       -0.03154765       8.58917242       3.76551555      -0.00124220       0.00003623      -0.00059923
C        7.38466415       0.01791666       3.60844360      -0.00224558      -0.00313953      -0.00155439
C        6.14828238       2.16375860       3.57031181      -0.00325818      -0.00084578      -0.00150431
C        4.93834052       4.28299434       3.79133381       0.00138721      -0.00019940       0.00435642
N        3.76802843       6.46603275       4.05085644      -0.00200324      -0.00101129      -0.00128009
C        2.47790394       8.56935450       3.81932105      -0.00025806      -0.00260184       0.00392553
C        9.85182670       0.01414905       3.59979604      -0.00300856      -0.00728313       0.00241184
C        8.61051136       2.15588893       3.51675292      -0.00115893       0.00048891      -0.00094467
C        7.38151963       4.30489445       3.53127842      -0.00402984      -0.00134910      -0.00412331
C        6.15648197       6.44784511       3.64000266       0.00096527       0.00148968       0.00627272
C        4.92908486       8.56391554       3.68853428       0.00071502       0.00119433       0.00368503
C       -0.03340606       1.44773921       3.69499093       0.00391684       0.00215268       0.00208328
C       -1.29287929       3.55367407       3.68423696       0.00322003      -0.00049255      -0.00113098
C       -2.50034820       5.72407506       3.63172590       0.00113922      -0.00284459      -0.00155171
C       -3.71561869       7.87033900       3.61231814       0.00330702      -0.00160731      -0.00402468
C       -4.94628445      10.01647620       3.65650811      -0.00220266       0.00176507      -0.00453254
C        2.44574596       1.49573571       3.82848987       0.00377564       0.00359463       0.00505543
N        1.06813264       3.51393346       4.17626642      -0.01080359      -0.00069602       0.00146601
C       -0.08175823       5.66462138       3.98651444      -0.00167296       0.00209914       0.00438356
C       -1.25279833       7.85904493       3.73883322       0.00026592      -0.00336594       0.00223566
C       -2.49027789      10.01587993       3.66802549       0.00195880       0.00514642       0.00015858
C        4.91578738       1.46415167       3.64827760      -0.00007784       0.00156853       0.00079071
N        3.78944877       3.56101123       3.96393518       0.00250366      -0.00049924       0.00173023
C        1.22475969       7.91195876       3.90487397      -0.00187787       0.00134530      -0.00277904
C       -0.02581225      10.00569350       3.65496893      -0.00089056       0.00080429      -0.00010925
C        7.37941534       1.44261984       3.53947980      -0.00413494      -0.00129557      -0.00537858
C        6.15812635       3.58712318       3.58598914      -0.00324105      -0.00342829      -0.00414754
C        4.92356399       5.75544265       3.82583301       0.00098826       0.00009422       0.00030074
C        3.71539919       7.82562961       3.85790729       0.00037224      -0.00036506      -0.00217156
C        2.45973096       9.98488216       3.65685481      -0.00352983      -0.00545236       0.00290105
C        9.83996137       1.43674061       3.55211848       0.00183824      -0.00489846      -0.00317778
C        8.60773932       3.58293786       3.51393920       0.00081750       0.00324690      -0.00172392
C        7.38036517       5.72968999       3.56270400      -0.00085375      -0.00061209      -0.00526403
C        6.16006643       7.86761169       3.63744356       0.00073607       0.00202086      -0.00251574
C        4.91602249       9.98675210       3.63049335       0.00064667       0.00005122       0.00092014
Y        2.56299159       4.86549042       5.38345299       0.00209335       0.00348802      -0.00508227
O        2.93115303       4.46884286       7.28320601      -0.00645996      -0.00502317       0.00194621
O        3.06620186       3.98101534       8.58919057       0.00611553      -0.00447856      -0.00423989
H        3.50901015       4.71974043       9.05230653       0.00015655       0.00824630      -0.00219217
