52
Lattice="12.336457 0.0 0.0 -6.168228499999997 10.683685154694365 0.0 0.0 0.0 15.0" Properties=species:S:1:pos:R:3:forces:R:3 energy=-443.836146115571 free_energy=-443.836146115571 stress="0.0010267585382802938 -1.6125093774453604e-05 1.995311009284696e-05 -1.6125093774453604e-05 -0.011914133668614043 -6.887602173036213e-06 1.995311009284696e-05 -6.887602173036213e-06 -3.1917240374822084e-05" pbc="T T T"
C        0.11442803      -0.07213969       3.72496449      -0.00171789      -0.00329266       0.00393103
C       -1.10515895       2.08870922       3.64638016       0.00377767      -0.00387990      -0.00359255
C       -2.33761202       4.23010531       3.67212579      -0.00407777       0.00029305      -0.00541331
C       -3.57516381       6.35044411       3.69070555      -0.00228983       0.00326669       0.00352158
C       -4.83467138       8.46100022       3.68411567      -0.00009009       0.00013831      -0.00094248
C        2.57877135      -0.13542210       3.96827517       0.00231831      -0.00113814       0.00327394
C        1.38428772       1.99009372       3.70542032      -0.00119746       0.00181329       0.00153444
C        0.11697101       4.23366742       3.29028170       0.00965442      -0.00599564      -0.01349592
C       -1.08104883       6.36451818       3.64292415      -0.00305660       0.00265461       0.00239636
C       -2.33849126       8.46490010       3.84634847      -0.00452391      -0.00122162      -0.00088029
C        5.05054641      -0.06766097       4.10077735      -0.00080277       0.00037618       0.00191276
C        3.77910749       1.97501794       4.29881782      -0.00149210      -0.00234305       0.00413384
B        1.51863180       6.43518540       3.54207050       0.01420585      -0.00022780      -0.00292213
C        0.13128196       8.52397227       3.83762434      -0.00339541       0.00114846       0.00802380
C        7.51043873       0.00314613       3.98990650       0.00033510      -0.00358501       0.00829754
C        6.27743839       2.10919636       4.16475225       0.00004715      -0.00747099      -0.01702881
C        5.07077059       4.28409990       4.01982774       0.00536574       0.00290551       0.00705193
S        3.45558869       6.25190284       2.99818713      -0.01096937       0.00686638      -0.00341285
C        2.57772245       8.61566111       3.65284957       0.00063548       0.00734499       0.01073050
C        9.99618138      -0.00395527       3.78233451       0.00258609       0.00169216       0.00036327
C        8.75680113       2.11770917       3.90274028       0.00251613      -0.00905961       0.00026661
C        7.52060582       4.23604062       3.86944285      -0.00079186       0.00051532      -0.00327420
C        6.26085579       6.35212883       3.56969288       0.00176398       0.00130206      -0.00526372
C        5.03159909       8.50682229       3.53380862       0.00167867       0.00275602      -0.00615600
C        0.11736884       1.35144340       3.67940139       0.00258814      -0.00494891      -0.01160448
C       -1.10740785       3.50719744       3.54278756       0.00209086      -0.00222471       0.00342504
C       -2.32656996       5.64917877       3.66752565      -0.00415895       0.00363822       0.00060298
C       -3.58148420       7.76299745       3.73181361      -0.00267460      -0.00044924       0.00063049
C       -4.82987393       9.87398836       3.78499995       0.00053790      -0.00155313       0.00568576
C        2.58341473       1.26715462       4.03675294      -0.00011284      -0.00024090      -0.00318039
P        1.68821854       3.47250849       2.79858289       0.00203420       0.00113721      -0.00704271
C        0.18256068       5.66328984       3.48221326       0.00000151      -0.00108663      -0.00482596
C       -1.09507736       7.77591626       3.78593483      -0.00472273       0.00330038       0.00181220
C       -2.34136807       9.87314988       3.99747420       0.00172566      -0.00174946      -0.00178400
C        5.04446060       1.36090889       4.23086640      -0.00140233      -0.00066905      -0.00289474
P        3.49836695       3.68500768       4.55870051       0.00378744      -0.00491499       0.00593527
C        1.37936823       7.89456777       3.67563790      -0.00026517       0.00632762       0.00082098
C        0.11845506       9.94790747       4.00033657      -0.00305802       0.00228490      -0.01187330
C        7.51291654       1.41869083       4.04624202       0.00197639      -0.00882304       0.00178692
C        6.28403459       3.53219288       4.05760630       0.00252006      -0.00509811      -0.00018231
C        5.06007287       5.60267041       3.57990294       0.00414684      -0.00114710      -0.00394433
C        3.76982412       7.91294839       3.41589384      -0.00082060       0.00264038       0.01901179
C        2.58446506      10.01385046       3.83705691       0.00315894       0.00668692       0.00500082
C        9.99328576       1.41032720       3.79171330       0.00472000      -0.00237055      -0.00348456
C        8.76130541       3.53109192       3.82888213      -0.00261424      -0.00635498      -0.00099430
C        7.51593304       5.64620744       3.70228533      -0.00053600       0.00291680      -0.00152799
C        6.26459358       7.77076610       3.54834318       0.00055824       0.00151434       0.00672563
C        5.04482463       9.93611155       3.67984511      -0.00199568       0.00052294      -0.00133648
Y        1.00588197       4.48717170       5.44316772      -0.01334252       0.00860213      -0.00097139
O        0.27224117       5.82555623       6.90727175      -0.00111279       0.00116096       0.00379607
O       -0.57276641       4.56116463       7.18211780       0.00007437       0.01140741      -0.00788967
H       -0.49043789       4.57795736       8.15034232      -0.00358363      -0.00536800       0.01524732
