52
Lattice="12.336457 0.0 0.0 -6.168228499999997 10.683685154694365 0.0 0.0 0.0 15.0" Properties=species:S:1:pos:R:3:forces:R:3 energy=-446.9793988402134 free_energy=-446.9793988402134 stress="-0.0017437789759038912 -0.0032789330841199904 -9.341698136593136e-06 -0.0032789330841199904 -0.008488755218685374 3.628151919192926e-05 -9.341698136593136e-06 3.628151919192926e-05 5.093232620327099e-05" pbc="T T T"
C       -0.01873220       0.01150891       3.91958636       0.00964218       0.00106211       0.01344051
C       -1.27058376       2.14252883       3.98397465      -0.00683990      -0.00395764       0.00035277
C       -2.49671685       4.28487665       3.88728313      -0.00703358      -0.00252296       0.00850296
C       -3.71456841       6.41603795       3.77999606       0.00815143       0.00534030      -0.00192238
C       -4.94808903       8.54758407       3.82817815      -0.01401774       0.00712066      -0.00137077
C        2.44478929      -0.00479925       3.83956595       0.01710660      -0.00498898       0.00282119
C        1.17660890       2.14290174       3.95055958      -0.00170387      -0.00058319       0.00639610
C       -0.04051975       4.22014922       4.00773641      -0.00113524       0.00232176       0.00420256
C       -1.20957380       6.39035349       3.78749291      -0.00046386      -0.00401233       0.00605242
C       -2.46077256       8.53455188       3.78187398       0.00212003      -0.00130391       0.01005169
C        4.91013587       0.00740597       3.72064968      -0.00611617       0.01296858       0.00735245
C        3.64615779       2.09222759       3.44945988      -0.01106219      -0.00048553       0.00607494
S        1.56015395       6.23607543       3.24881365      -0.00593368      -0.00034966       0.01000147
C        0.00313387       8.54923475       3.68242840       0.00576381      -0.01093183       0.00382594
C        7.36182988       0.04695975       3.77612505      -0.01050400       0.00122224      -0.00763842
C        6.12853946       2.16071677       3.54640514       0.00652134      -0.00271066      -0.00230584
C        4.99012145       4.31394758       3.13168981       0.00754642       0.01417843      -0.00990230
B        3.58603557       6.51003380       3.50994750       0.01477337      -0.00317637      -0.00871390
C        2.45591996       8.65124620       3.70274629       0.00652371      -0.00103078      -0.01062544
C        9.84866905       0.04615842       3.89506714      -0.00319403       0.00562824      -0.00489385
C        8.59459663       2.16737005       3.82512827       0.00517017       0.01012714       0.00081350
C        7.38039925       4.29459717       3.64273734      -0.00665264      -0.00195103       0.00630263
C        6.14129545       6.42956637       3.62394754       0.00640838      -0.00161449      -0.00360464
C        4.92311380       8.58937478       3.78193890      -0.01063022      -0.00016226      -0.00680076
C       -0.04106880       1.42960249       3.96267632      -0.00101330       0.00131410       0.00432570
C       -1.28201388       3.54974520       3.98960800      -0.00473891      -0.00273869       0.00070527
C       -2.47612436       5.70137119       3.82955240       0.00299615      -0.00577303       0.00613100
C       -3.70781880       7.83527544       3.80087793      -0.00683982       0.00921679       0.00320731
C       -4.95413274       9.97094409       3.88349163       0.01468981       0.00458675       0.00198904
C        2.42417385       1.42408089       3.78365304      -0.00555593      -0.00993137      -0.00574061
N        1.13605869       3.50275653       4.11220288       0.00683936       0.00637266       0.00322162
C       -0.01863162       5.61444575       3.80281149       0.00157097       0.00062840      -0.00399522
C       -1.22177433       7.81990376       3.73158249       0.00393846      -0.00572654       0.00219666
C       -2.48247055       9.96781609       3.78148145       0.01001731      -0.00204858       0.00487048
C        4.90314022       1.43413739       3.58076678      -0.00364945       0.00853746      -0.00995522
S        3.62951450       3.49938970       2.35248650      -0.00339909      -0.00014986       0.00819201
C        1.26178433       7.92779667       3.57952761       0.01066845      -0.00789587       0.00192399
C       -0.01867968       9.99142229       3.73126050      -0.01383251      -0.00313943       0.00165755
C        7.35616404       1.46615785       3.73119495       0.01321752       0.00311543      -0.00707065
C        6.16347964       3.57360207       3.42752802      -0.00388632      -0.00101849       0.00311819
C        4.89356730       5.71760404       3.41665376       0.00406774       0.00407864      -0.00315177
C        3.67311479       7.95484071       3.66476776      -0.00253411      -0.00822597      -0.01715354
C        2.43693379      10.05568970       3.82380942      -0.00562075       0.00000283      -0.00951822
C        9.83135295       1.45602454       3.92223210      -0.00672812       0.00543498       0.00081419
C        8.60182810       3.58222088       3.79845394      -0.00673423       0.00555804       0.00054561
C        7.37733188       5.71658966       3.68548051       0.00619690      -0.00272437      -0.00030585
C        6.15118567       7.84632152       3.76113621      -0.01317835      -0.00200298      -0.00172913
C        4.91526442      10.00930088       3.88709422       0.00066539       0.00305251       0.00431368
Y        3.06856195       4.39075149       4.94983367      -0.00520499      -0.00394523       0.00802342
O        3.33245649       4.24120238       6.91561371      -0.00531360      -0.00787724      -0.00437647
O        3.11918856       4.15534622       8.29845228       0.00369288      -0.00823029      -0.00936528
H        4.02376722       4.23659529       8.66186329       0.00522821      -0.00065848      -0.01128656
