49
Lattice="12.336457 0.0 0.0 -6.168228499999997 10.683685154694365 0.0 0.0 0.0 15.0" Properties=species:S:1:pos:R:3:forces:R:3 energy=-436.13000666609497 free_energy=-436.13000666609497 stress="-0.006174854087816844 0.0004705507621690819 3.5202472033292553e-06 0.0004705507621690819 -0.0012167916348768519 1.3332244498952033e-05 3.5202472033292553e-06 1.3332244498952033e-05 6.114856142932261e-06" pbc="T T T"
C        0.00741105       0.00101903       3.67710739      -0.00477056       0.01151495      -0.00224973
C       -1.23824457       2.12841806       3.53162203       0.00068119      -0.00137109      -0.00544382
C       -2.46810694       4.27709178       3.47140026       0.01358469      -0.01168641      -0.00078591
C       -3.69239164       6.41414579       3.58299994       0.00856024       0.00897078       0.00872062
C       -4.92627919       8.55478063       3.70587469      -0.00325764       0.00115584      -0.01319885
C        2.46588379       0.02800231       3.72148232      -0.00573801      -0.00255646       0.00647364
C        1.20795140       2.11128007       3.75145977      -0.00038841       0.00674231       0.00079461
C       -0.06144308       4.27805102       3.56715362       0.00370906       0.00848339      -0.00130288
C       -1.23982641       6.41837070       3.52282872      -0.00127878       0.00380097       0.00167501
C       -2.46294609       8.55764916       3.62599977       0.00936350       0.00264944       0.01440197
C        4.93837313       0.01048578       3.71028388      -0.00308614      -0.00784547       0.00288122
C        3.71806119       2.18207998       3.89574982       0.00853480      -0.00271657       0.01480814
O        1.14358386       6.45079779       3.98915002      -0.00580666      -0.00933382      -0.00458911
C       -0.00512173       8.53692989       3.70615972      -0.00227581       0.00607922       0.00001223
C        7.40638487      -0.01691914       3.67867218      -0.00479720       0.01232725      -0.00416251
C        6.19116125       2.12103492       3.71848488      -0.00433584      -0.00536271      -0.00403026
C        4.99599269       4.23001995       3.99389532       0.00749284      -0.00606670       0.00385283
B        3.81814146       6.45574223       4.23421531      -0.00773762      -0.01340555      -0.01245146
C        2.44316947       8.52759316       3.85475612      -0.01106016      -0.00794515       0.00523065
C        9.86865522      -0.01577025       3.66314848      -0.00221281      -0.00576929      -0.00729889
C        8.64224211       2.12372287       3.56549454      -0.00214341       0.00114586       0.00613126
C        7.42821869       4.26483822       3.65105319      -0.00150841       0.00352204      -0.00123442
C        6.21005124       6.41014386       3.84320088       0.00068112      -0.00307954       0.00198911
C        4.94578597       8.54765018       3.83624527       0.00600397       0.00205113      -0.01631199
C       -0.00284472       1.42744723       3.62740578      -0.00064622       0.00768216      -0.00729577
C       -1.24578628       3.55433628       3.46275000       0.01554194      -0.00519309       0.00830577
C       -2.46445194       5.69693969       3.49651597       0.00499686      -0.00635056       0.00108491
C       -3.69845845       7.84279992       3.63102491       0.00681006       0.01037745      -0.00146103
C       -4.92653125       9.98651983       3.70122032      -0.00976094       0.00152023       0.00139148
C        2.45075984       1.46247500       3.80229662       0.00336517       0.00248075       0.00839091
O        1.13507914       3.51515558       3.81923836      -0.01062897       0.00318268      -0.00510597
C       -0.05262887       5.69254038       3.61131517      -0.00590427       0.00739646       0.00063182
C       -1.24135647       7.84026388       3.60801213       0.00544533       0.00333538       0.00268270
C       -2.46988986       9.98941156       3.69275910      -0.00229948      -0.00244340      -0.01037905
C        4.94635248       1.43143234       3.76894060       0.00069481      -0.01050778      -0.00081499
C        3.78721249       3.54921615       4.10566540       0.00021806      -0.00092656       0.01668528
C        1.20581082       7.85276845       3.85331062      -0.01103972      -0.00994538      -0.00259806
C        0.00323897       9.96680290       3.69784303      -0.00111242       0.00673178      -0.01173395
C        7.41788479       1.40771633       3.64088193      -0.00500698       0.00781534      -0.01513085
C        6.22102502       3.53409642       3.76993391       0.00009431      -0.00618725      -0.00639245
C        5.02164201       5.67222534       4.05157391       0.00719960      -0.00783331       0.00551481
C        3.70464649       7.85801037       3.96259650       0.00190013       0.00312209       0.00006945
C        2.46134055       9.95405974       3.71542157      -0.00983690      -0.00093224       0.00782926
C        9.87797349       1.41249815       3.56523466      -0.00200381      -0.00196428       0.00210333
C        8.64632852       3.55209378       3.53845601       0.00204569       0.00008825       0.00026306
C        7.42966901       5.69630826       3.67730460       0.00332482       0.01009167       0.01615012
C        6.18091528       7.83560781       3.80482424       0.00244065      -0.00355178      -0.00142694
C        4.94319241       9.96939559       3.71293154       0.00258997       0.00581266       0.00577768
Y        2.20956213       4.88127017       5.13882457       0.00335835      -0.00510568      -0.00845301
