50
Lattice="12.336457 0.0 0.0 -6.168228499999997 10.683685154694365 0.0 0.0 0.0 15.0" Properties=species:S:1:pos:R:3:forces:R:3 energy=-434.8512919122979 free_energy=-434.8512919122979 stress="0.0048647772317927706 0.0020648192782124876 3.174452043816296e-07 0.0020648192782124876 -0.01203961014647977 2.0141007348635483e-05 3.174452043816296e-07 2.0141007348635483e-05 1.030615065036218e-05" pbc="T T T"
C        0.02592689      -0.01466603       3.78131752       0.00340608      -0.00390711       0.00732942
C       -1.17169749       2.16648592       3.63338576      -0.00075240      -0.00199726      -0.00596820
C       -2.41829333       4.28544110       3.61198150      -0.00373064       0.01048224       0.00293417
C       -3.68356539       6.39469298       3.68006131       0.00214731      -0.00064294      -0.00221395
C       -4.94540105       8.49729160       3.76421182       0.00342594      -0.00865288      -0.00029431
C        2.47649480      -0.10175182       4.01699617      -0.00438228       0.00484402      -0.00418670
C        1.31831354       2.00776621       3.61778233       0.00201158       0.00821233       0.00195136
C        0.04954615       4.31695411       3.37824924       0.00535088       0.00276854       0.00275190
C       -1.17975271       6.41978580       3.65115952      -0.00617751       0.00080568      -0.00074081
C       -2.44393699       8.50449436       3.91849190      -0.00189700      -0.00203842       0.00259729
C        4.95348284      -0.01979663       4.08882485       0.00164664      -0.00058472      -0.00124560
C        3.69540506       2.03324240       3.96275594      -0.00142229      -0.00469871      -0.00138806
B        1.39046379       6.53191802       3.48149147      -0.00134450       0.00216801       0.00957877
C        0.02487716       8.58173754       3.91401752       0.00456781      -0.00639149       0.00258893
C        7.41922182       0.06757159       4.01381337       0.00587431       0.00286594       0.00352621
C        6.17596240       2.16185420       3.94316983      -0.00426134       0.00683810      -0.00396562
C        4.89698937       4.26404015       3.58559402      -0.00521380      -0.00166776       0.01543104
S        3.32353278       6.36256371       2.92337750      -0.00363487       0.01404178       0.00124089
C        2.48383048       8.68379211       3.76121029       0.00098209       0.00158989      -0.00211979
C        9.91355726       0.06701847       3.83709697      -0.00282675      -0.00913842       0.00197517
C        8.67052536       2.18103835       3.82394204       0.00296829      -0.00177472       0.00457907
C        7.40787219       4.28069905       3.69026999       0.00172892       0.00146987      -0.00873144
C        6.13849621       6.39669023       3.50554001       0.00576913       0.00265768       0.00200678
C        4.93051148       8.56232577       3.60796654      -0.00476943       0.01003912       0.00310236
C        0.04834627       1.41768323       3.67315840       0.00602532      -0.00000215      -0.00082345
C       -1.16207423       3.57741947       3.51110531      -0.00200395       0.00619300      -0.00004599
C       -2.42493276       5.70168660       3.64565500      -0.00489544       0.00827420      -0.00451394
C       -3.69069217       7.80250588       3.79161840       0.00454233      -0.00543136      -0.00958497
C       -4.93319879       9.91460942       3.86790317       0.00068485      -0.00870557       0.00436113
C        2.49320243       1.30769527       3.93563055      -0.00100624       0.00342157      -0.00997121
S        1.68642726       3.58109634       2.93370485      -0.00448346      -0.01588606       0.00558588
C        0.09006170       5.72193434       3.49264749      -0.00556471       0.00355889      -0.00327309
C       -1.19712043       7.82426073       3.84388111      -0.00178461      -0.00273123       0.00134956
C       -2.44109794       9.91354346       4.05048838      -0.00447518       0.00223125      -0.00992846
C        4.95227675       1.40958462       4.04451093      -0.00233872       0.00245101      -0.00009289
B        3.58563651       3.47887376       3.70873621      -0.00232895      -0.01010236      -0.00156911
C        1.27771371       7.96788535       3.75194830       0.00502873       0.00043706      -0.00326558
C        0.02332500      10.00456304       4.04214978       0.00620772      -0.00239046       0.00677669
C        7.42337664       1.47966413       3.95614243      -0.00153222       0.00543304      -0.00159762
C        6.15811230       3.56827495       3.74820951      -0.00142630       0.00419938      -0.00341120
C        4.93128162       5.64691907       3.38869807       0.00975998      -0.00509294       0.00467740
C        3.66510907       7.97746074       3.49122833      -0.00091456       0.00612100       0.00238981
C        2.49948942      10.08324537       3.92432471       0.00076380      -0.00467171       0.00001641
C        9.92396703       1.48520659       3.78301773      -0.00091680      -0.01194592      -0.00799236
C        8.66599782       3.58788250       3.71337256       0.00121434       0.00108520      -0.00600200
C        7.40042431       5.69342545       3.61253200       0.00622853       0.00124071      -0.00026220
C        6.15131047       7.81241884       3.59616568      -0.00426430       0.00593460      -0.00069675
C        4.95337536       9.99586695       3.75243599      -0.00104869       0.00370712       0.00734127
Y        2.03409722       4.86557008       5.48010278       0.00202449      -0.00942188       0.00375434
O        0.80216427       4.05748818       6.57846315      -0.00296215      -0.00519513      -0.00396056
