49
Lattice="12.336457 0.0 0.0 -6.168228499999997 10.683685154694365 0.0 0.0 0.0 15.0" Properties=species:S:1:pos:R:3:forces:R:3 energy=-428.32742952568316 free_energy=-428.32742952568316 stress="-0.0009318739504955263 0.0012398602950892928 2.4499539785856356e-06 0.0012398602950892928 -0.009728942950460225 2.0551161072456913e-06 2.4499539785856356e-06 2.0551161072456913e-06 3.632912161286054e-06" pbc="T T T"
C        0.02042623       0.00662631       3.72245935      -0.00370230       0.00171428      -0.01245943
C       -1.20110588       2.15648178       3.53850673       0.00423652       0.00332217       0.01366949
C       -2.43981595       4.29355365       3.61927462       0.00023789       0.00273202       0.00337387
C       -3.67567124       6.41653921       3.75159184      -0.00116998      -0.00218495      -0.00900265
C       -4.93320355       8.53402759       3.75851377       0.00202343       0.00003497       0.00634696
C        2.48125974      -0.03678518       3.86338224      -0.00105460      -0.00087589      -0.00023664
C        1.28111910       2.09520182       3.51560739       0.00159112       0.01041962       0.00252667
C       -0.05154839       4.30273203       3.02781141       0.00096476      -0.00385305      -0.00093056
C       -1.19171253       6.42311880       3.61063048      -0.00506653       0.00051833       0.00607659
C       -2.44250373       8.53769901       3.84137926       0.00533854       0.00177979       0.00407024
C        4.95535425       0.00257675       3.99975186       0.00537440      -0.00261495      -0.00651618
C        3.70696688       2.09237424       4.03451316      -0.00700162      -0.00500057      -0.00177692
B        1.37885946       6.48757755       3.61058707      -0.00268475       0.01687365       0.00702564
C        0.02256389       8.58179988       3.84648818       0.00260972      -0.00356277      -0.00467359
C        7.41928318       0.05270105       3.96045176      -0.00437682      -0.00716116      -0.00765246
C        6.19082559       2.15570162       4.05405418      -0.00390948       0.00611090      -0.00266711
C        4.97634000       4.28826204       4.02014872       0.00608242      -0.00000496       0.00697926
S        3.38187169       6.25209564       3.23670702       0.00099486       0.00401760       0.01084996
C        2.48137858       8.65043165       3.75289968       0.00000781       0.00677421      -0.00029472
C        9.90278379       0.05194731       3.79238395      -0.00188141      -0.00646978       0.00059461
C        8.66689474       2.17155694       3.84713630       0.00098398      -0.00792092       0.00423645
C        7.43760118       4.29048635       3.89282745       0.01048695       0.00428402      -0.00594937
C        6.16436543       6.41758622       3.74006269      -0.00106570       0.00210136       0.00213309
C        4.93440877       8.55901461       3.67397954      -0.00599216      -0.00205220      -0.01634644
C        0.01806624       1.43315403       3.59465461       0.00264133       0.00449336      -0.00416960
C       -1.22063031       3.57119368       3.39993239       0.00061822       0.00305642       0.00554909
C       -2.43015087       5.71281586       3.65939603      -0.00535596      -0.00056408      -0.00052734
C       -3.68514603       7.83308901       3.78131470       0.00427409      -0.00110366       0.00849487
C       -4.92428897       9.95823740       3.77933314      -0.00286364       0.00300558       0.00250626
C        2.49302996       1.38394182       3.84302340      -0.00318346      -0.00478078      -0.00151709
S        1.38974073       3.45088079       2.32649427       0.00395657      -0.00996860      -0.00706083
C        0.06148048       5.70923576       3.37611308      -0.00466262       0.00250458       0.00787648
C       -1.20224995       7.83753102       3.78589638       0.00292181       0.00007481       0.00329493
C       -2.44412737       9.95537234       3.92430403       0.00365320       0.00260748      -0.00578414
C        4.96309059       1.42445288       4.05968557      -0.00446589      -0.00049128      -0.00192088
B        3.71304509       3.55639135       4.15731072      -0.00427425       0.00434297      -0.00637217
C        1.27273548       7.94143470       3.74486757       0.00324165       0.01265208      -0.00364240
C        0.02057244      10.00593047       3.96046668       0.00231336      -0.01057650       0.00396255
C        7.42989169       1.46449501       3.97867796      -0.00787696      -0.00424368      -0.00521895
C        6.21302265       3.57028482       4.02431351       0.01000871       0.00904341       0.00289649
C        4.96819477       5.66282054       3.76466781      -0.00137449      -0.00044933      -0.00653012
C        3.67772375       7.94087774       3.59211245      -0.00659819      -0.00582304       0.00435022
C        2.49383542      10.05855297       3.86981469      -0.00414758      -0.00025423      -0.01396133
C        9.90137772       1.46788474       3.73694657       0.00520757      -0.00679051       0.00907991
C        8.67035998       3.58665053       3.80050798       0.00520301      -0.00373021      -0.00211493
C        7.42267958       5.70891954       3.79879461       0.00196049       0.00226607       0.00658863
C        6.16568628       7.83382181       3.69748013      -0.00126118       0.00016561      -0.00763299
C        4.95116463       9.99786897       3.73164393      -0.00233258      -0.00542394       0.00820123
Y        1.49154813       4.32940445       4.85581871      -0.00063026      -0.00899420       0.00427538
