51
Lattice="12.336457 0.0 0.0 -6.168228499999997 10.683685154694365 0.0 0.0 0.0 15.0" Properties=species:S:1:pos:R:3:initial_magmoms:R:1:forces:R:3 energy=-440.60584202107646 free_energy=-440.60584202107646 stress="0.004453508537388872 0.0026872357335748155 5.868233243408329e-06 0.0026872357335748155 -0.011901501752232665 7.992398395672422e-07 5.868233243408329e-06 7.992398395672422e-07 3.3470285746330856e-05" pbc="T T T"
C        0.01698659       0.01168188       3.78865547       0.00000000      -0.00417051      -0.00007346       0.00365872
C       -1.17860786       2.19399717       3.61898564       0.00000000      -0.00178384      -0.00123507      -0.00302206
C       -2.42724809       4.31168712       3.57785921       0.00000000       0.00057388      -0.00092879      -0.00155384
C       -3.69541874       6.41915644       3.65969943       0.00000000      -0.00058680       0.00044100      -0.00140944
C       -4.95689541       8.52029063       3.77136052       0.00000000      -0.00138559       0.00181212       0.00134072
C        2.46874016      -0.07773065       3.98061242       0.00000000      -0.00227371       0.00367903      -0.00183113
C        1.30969901       2.03299494       3.57551622       0.00000000      -0.00096734       0.00377019       0.00057969
C        0.03886581       4.35241157       3.35841142       0.00000000       0.00211729      -0.00069838       0.00188710
C       -1.19095405       6.44553786       3.63715201       0.00000000      -0.00097422      -0.00303095       0.00225874
C       -2.45515778       8.52796116       3.90696334       0.00000000      -0.00244048       0.00086407       0.00282194
C        4.94515435       0.00264742       4.04947167       0.00000000       0.00044243       0.00256318       0.00607973
C        3.69176083       2.04556900       3.84526422       0.00000000       0.00260035       0.00006622       0.00664029
B        1.37097799       6.56102621       3.48048619       0.00000000      -0.00205298      -0.00045994       0.00287986
C        0.01406800       8.60415589       3.92859422       0.00000000      -0.00204235      -0.00070034      -0.00158167
C        7.41057228       0.09306066       4.01592060       0.00000000       0.00206294       0.00056944      -0.00170917
C        6.16916706       2.18249056       3.86542331       0.00000000       0.00281800      -0.00127835       0.00041815
C        4.89145090       4.28046598       3.49610709       0.00000000       0.00215140      -0.00085449      -0.00363550
S        3.29523599       6.39365121       2.98141289       0.00000000       0.00163345       0.00006791       0.00369856
C        2.47319853       8.70720900       3.81985888       0.00000000       0.00148453       0.00175024       0.00232915
C        9.90596552       0.09295090       3.86255787       0.00000000      -0.00001407       0.00007831      -0.00672269
C        8.66355511       2.20570745       3.79190982       0.00000000       0.00023197      -0.00177890      -0.00230103
C        7.39906340       4.30377830       3.63250315       0.00000000       0.00119629      -0.00201464       0.00028247
C        6.12600793       6.42145921       3.50536734       0.00000000      -0.00098804      -0.00005755      -0.00256216
C        4.91942184       8.58610883       3.65435027       0.00000000      -0.00019460      -0.00210909       0.00309970
C        0.04152634       1.44484430       3.65924452       0.00000000      -0.00161794       0.00016052      -0.00424494
C       -1.16726521       3.60706745       3.49003760       0.00000000       0.00012907      -0.00089962       0.00108934
C       -2.43720389       5.72748315       3.61843659       0.00000000      -0.00065847      -0.00188294       0.00467605
C       -3.70218449       7.82589229       3.78325072       0.00000000      -0.00221718       0.00142644       0.00166931
C       -4.94386545       9.93800694       3.86649365       0.00000000      -0.00265230       0.00256350      -0.00376129
C        2.48597796       1.32800033       3.85995156       0.00000000       0.00010461       0.00414079      -0.00134964
S        1.68061560       3.62632043       2.94166179       0.00000000       0.00886254       0.00267120       0.00016204
C        0.07287203       5.75062793       3.47219318       0.00000000      -0.00016843      -0.00088330      -0.00799132
C       -1.20829711       7.84936573       3.83954086       0.00000000      -0.00301852      -0.00234314      -0.00021313
C       -2.45021275       9.93761612       4.02128641       0.00000000      -0.00161456       0.00251716      -0.00154940
C        4.94632955       1.42863111       3.96018811       0.00000000       0.00296144       0.00051253       0.00287619
B        3.58862607       3.47774150       3.53287408       0.00000000       0.00389173      -0.00097971      -0.00230857
C        1.26731319       7.99169563       3.78726290       0.00000000       0.00027620       0.00105606       0.00180897
C        0.01499186      10.02846018       4.04077499       0.00000000       0.00018385       0.00103633      -0.00609268
C        7.41588720       1.50346207       3.91847399       0.00000000       0.00195930      -0.00052885       0.00179447
C        6.15188659       3.58733141       3.66467922       0.00000000       0.00132780      -0.00114474      -0.00157162
C        4.92022577       5.67334786       3.37599436       0.00000000      -0.00262205      -0.00034015      -0.00389276
C        3.65292194       7.99929330       3.55834291       0.00000000      -0.00066420      -0.00046285       0.00158193
C        2.49168984      10.10869617       3.96203314       0.00000000       0.00219664       0.00123733       0.00410925
C        9.91802303       1.51097985       3.77470494       0.00000000      -0.00080016      -0.00052640       0.00100208
C        8.65739248       3.61159393       3.66574289       0.00000000       0.00157619      -0.00155998       0.00256517
C        7.38901372       5.71773074       3.58482722       0.00000000      -0.00031356      -0.00155833      -0.00033626
C        6.13834404       7.83580499       3.61854069       0.00000000       0.00026744      -0.00101407       0.00350046
C        4.94449655      10.02134648       3.78551539       0.00000000      -0.00239274      -0.00270995      -0.00094612
Y        2.22174077       4.82752588       5.61070696       0.00000000      -0.00168614       0.00129939       0.04602002
O        0.64856723       3.92501307       6.39412444       1.00000000      -0.00583687       0.00440505       0.00803532
O        1.87403139       3.23094536       6.72613343       1.00000000       0.00508830      -0.00663404      -0.05827900
