52
Lattice="12.336457 0.0 0.0 -6.168228499999997 10.683685154694365 0.0 0.0 0.0 15.0" Properties=species:S:1:pos:R:3:forces:R:3 energy=-444.20023597324246 free_energy=-444.20023597324246 stress="0.004495559553643482 0.002580269626426776 1.7538691350819407e-05 0.002580269626426776 -0.011308981732143484 1.2342103152287117e-05 1.7538691350819407e-05 1.2342103152287117e-05 -6.408915418260401e-07" pbc="T T T"
C        0.13215598      -0.05687835       3.84800978       0.00143270       0.00316375       0.00101641
C       -1.06711661       2.11909992       3.69036718       0.00287890      -0.00533300       0.00249654
C       -2.31524228       4.24049229       3.64841418       0.00515165      -0.00022543      -0.00152735
C       -3.58212347       6.35091113       3.70054484       0.00374604      -0.00362381       0.01020399
C       -4.84315451       8.45215688       3.81861337      -0.00135927       0.00890100       0.00279705
C        2.57972808      -0.14406910       4.09543095      -0.00113298       0.00249753      -0.00416124
C        1.43039117       1.98048244       3.70028827       0.00567985       0.00581385       0.00093582
C        0.15536383       4.25923742       3.37279786       0.00759195       0.00360695      -0.00157462
C       -1.08552244       6.38310729       3.62305483       0.00203662      -0.00945074      -0.00846769
C       -2.34349708       8.46305826       3.94118666      -0.00203893      -0.00649201      -0.00485699
C        5.05820355      -0.06630173       4.14201294      -0.00554317       0.00978886      -0.00136857
C        3.80254788       1.98978722       4.04631575      -0.00954578      -0.00104160      -0.00497717
B        1.47573224       6.52496927       3.31417049      -0.00997534       0.00197463       0.00226602
C        0.12411542       8.54327451       3.89643673       0.00842170      -0.00583961      -0.00293884
C        7.52441394       0.01948317       4.05102581      -0.00661423       0.00444550       0.00577509
C        6.28324738       2.11240998       3.99899166       0.00056771       0.00897080      -0.00336362
C        5.00098182       4.20820669       3.62581252      -0.00083997      -0.00275200      -0.00281147
S        3.43929477       6.30136720       3.00735471       0.00239789      -0.00495961      -0.00470016
C        2.58483436       8.63919831       3.75976424      -0.00118859      -0.00189225      -0.00367053
C       10.01846502       0.01950207       3.88837116      -0.01111311      -0.00987464       0.01031449
C        8.77639462       2.13372862       3.87634631      -0.00104167       0.00626043      -0.00137296
C        7.51230347       4.23173007       3.72805103       0.00375011       0.00381696       0.00910015
C        6.24185295       6.34803748       3.56087235       0.01009244       0.00270730       0.00556601
C        5.03455074       8.51564418       3.67146519      -0.00548443       0.00141795      -0.00490015
C        0.15736873       1.37705050       3.73215341       0.00770150       0.00322939       0.01167406
C       -1.06229498       3.53128400       3.56572895       0.00342773      -0.00161750      -0.00298342
C       -2.32370851       5.65894052       3.65154048       0.00351791      -0.00481278       0.00627805
C       -3.58915156       7.75861443       3.82114313      -0.00626400      -0.00297272       0.00983784
C       -4.82935551       9.87028424       3.93822455       0.00144131       0.00829350      -0.00765195
C        2.60057746       1.26836945       4.02955006      -0.00540622      -0.00135653       0.00392680
S        1.86131767       3.47770365       2.82379953      -0.01230517       0.00023113       0.00602814
C        0.19003294       5.68812478       3.41905978       0.00211714      -0.00021682      -0.01016987
C       -1.09814003       7.78551313       3.82843236       0.00549331      -0.01099476       0.00147448
C       -2.33816850       9.86938569       4.10187667      -0.00410972      -0.00134496       0.00191777
C        5.05941319       1.36288733       4.11417479      -0.00440116       0.01256209      -0.00076550
B        3.67579590       3.43430460       3.73912666       0.00710899      -0.00558963       0.01267236
C        1.37440177       7.93310390       3.69929205       0.00752425      -0.00794517      -0.00384213
C        0.12704894       9.95900288       4.06926893      -0.00521274       0.00322794      -0.00248796
C        7.53012754       1.43162445       4.00770343       0.00014966       0.00663655      -0.00093256
C        6.26295969       3.51733993       3.79443822       0.00458340       0.00343114      -0.00951466
C        5.03662977       5.58985472       3.44886682       0.00790806      -0.00117397      -0.00228900
C        3.77013986       7.92978979       3.53627889      -0.00564393      -0.00169047      -0.00163455
C        2.60321673      10.03530236       3.95366356      -0.01310381      -0.00514241       0.00418823
C       10.02750662       1.43693809       3.83839889      -0.00555721      -0.00861192      -0.00431861
C        8.77024356       3.54060440       3.75626949       0.00092255       0.00753620       0.00128570
C        7.50360368       5.64582054       3.64979159       0.00901016       0.00009537       0.00213541
C        6.25332234       7.76427667       3.65694919       0.00233513       0.00660632      -0.00538897
C        5.05945393       9.95038478       3.81448738      -0.00262462      -0.00027573      -0.00660532
Y        1.74048190       4.82089529       5.12224162       0.00855232       0.00427672      -0.00234939
O        0.53151799       4.91195091       6.69492069      -0.00151192      -0.00584671      -0.00708924
O       -0.55383949       5.05995141       7.55508667       0.01362835      -0.01272273       0.00644167
H       -0.16317560       4.89042115       8.43678084      -0.01715133       0.00430766       0.00038240
