52
Lattice="12.336457 0.0 0.0 -6.168228499999997 10.683685154694365 0.0 0.0 0.0 15.0" Properties=species:S:1:pos:R:3:forces:R:3 energy=-454.84969147062577 free_energy=-454.84969147062577 stress="-0.005128743452696634 0.0006070566290181686 2.1936152143934344e-05 0.0006070566290181686 0.002003271804650699 7.3124187898580325e-06 2.1936152143934344e-05 7.3124187898580325e-06 2.221304399145018e-06" pbc="T T T"
C        0.00316398       0.00237448       3.69117995       0.00681375       0.00006345      -0.00351354
C       -1.24386915       2.12837656       3.64352302      -0.00224781      -0.00088250      -0.00221483
C       -2.47595910       4.27225852       3.54597170      -0.00461698      -0.00194602       0.00932356
C       -3.70341487       6.41468887       3.54730133       0.00325544      -0.00112833      -0.01203256
C       -4.92638004       8.56254306       3.62618828      -0.00137610      -0.00124660       0.00574298
C        2.46510205       0.04542391       3.71205322       0.00109169      -0.00711202       0.01236886
C        1.20330269       2.13131168       3.84805738       0.00141774      -0.00649869       0.00374566
C       -0.07014730       4.27878312       3.78074795      -0.00577251       0.00402603      -0.00493911
C       -1.25918743       6.41384872       3.61519874      -0.00183726      -0.00122488      -0.00333116
C       -2.46939630       8.55984941       3.61180478      -0.00186889      -0.00152714       0.00708356
C        4.93222521       0.00605279       3.67936871      -0.00762400       0.00011623       0.00151663
C        3.73879778       2.17035234       3.86518050      -0.00213711       0.00032531      -0.00050069
O        1.10208967       6.44742808       4.03255515       0.00146797       0.00457158       0.00907661
C       -0.01261121       8.53465869       3.71634126       0.00148870      -0.00322526      -0.00643362
C        7.40533652      -0.03036561       3.67081535      -0.00131852       0.01270473       0.00650589
C        6.18274471       2.12278150       3.65293749       0.00320983      -0.00171574       0.00805192
C        4.97037791       4.22230493       3.85107383       0.00419758       0.00317073      -0.00473163
C        3.80577861       6.41583624       4.02065523      -0.00038155      -0.00593035       0.00473990
C        2.44058083       8.49464263       3.83313010      -0.00187313      -0.00345819       0.00917049
C        9.86285432      -0.02965183       3.67805436       0.00053797       0.00833578       0.00804464
C        8.63729857       2.11814716       3.58426180       0.00533132       0.00982076       0.00044081
C        7.41024964       4.26457173       3.57644037       0.00657713      -0.00416945      -0.00276849
C        6.19761513       6.41250628       3.66679031       0.00587967       0.00138639       0.00761718
C        4.94340053       8.53422494       3.73243843      -0.00539673      -0.00005677      -0.00352463
C       -0.00148899       1.43390460       3.71904791       0.00272864      -0.00057490      -0.00320761
C       -1.25278736       3.55364255       3.62141318      -0.00484141       0.00119920      -0.00602884
C       -2.47913356       5.69240726       3.54435755      -0.00059497      -0.00657042      -0.00348533
C       -3.70324738       7.84489476       3.58275860      -0.00007024      -0.00093625       0.00161791
C       -4.92799260       9.99585521       3.67534098       0.00505740      -0.00467146      -0.00198085
C        2.45847393       1.48741368       3.82665280       0.00252085      -0.00888828      -0.00317695
O        1.12306336       3.53008038       3.97695756      -0.00538219      -0.00869876      -0.00295759
C       -0.07789181       5.69203440       3.78470975       0.00393773       0.00642888      -0.00386260
C       -1.25173908       7.83921316       3.63589928      -0.00079856      -0.00034038      -0.00452540
C       -2.47667450       9.99634073       3.66774224      -0.00401375      -0.00422250       0.00141759
C        4.94211471       1.43154974       3.71505291      -0.00290035      -0.00123520      -0.00241963
N        3.81925350       3.52330118       4.05308045       0.00007230       0.00567488       0.00275530
C        1.19224794       7.83800379       3.86362582       0.00034843      -0.00357467      -0.00027816
C        0.00014637       9.96194482       3.68215087      -0.00402501       0.00028906      -0.00842240
C        7.40939416       1.40178512       3.61919404       0.00890455       0.01212071      -0.00140776
C        6.19348148       3.53775306       3.65957947       0.00517048      -0.00030346      -0.00330973
C        4.95795364       5.69290634       3.84537942       0.00493273       0.00425181      -0.00429909
C        3.71493162       7.78286700       3.86282925      -0.00496543      -0.00977116      -0.00280963
C        2.45984666       9.92603886       3.71697380      -0.00091741       0.00288837       0.00400216
C        9.87341672       1.40402029       3.62126552      -0.00291960       0.01061978      -0.00370314
C        8.63518105       3.54803204       3.54586866       0.00292962      -0.00095860      -0.00228425
C        7.40862032       5.69580563       3.57841281       0.00321018      -0.00482575      -0.00128200
C        6.18148784       7.83681978       3.66432513      -0.00378649       0.00205622      -0.00230147
C        4.93654526       9.95632359       3.69536487       0.00058180       0.00512743      -0.00210501
Y        2.44271127       4.97557105       5.17883643       0.00294982       0.00480650       0.01179090
O        2.65875019       4.98742145       7.16687803      -0.01249683      -0.00204366      -0.00583535
O        2.39517023       4.98091459       8.54391015      -0.00125531      -0.00266538      -0.00163402
H        3.29157245       4.99873460       8.93577814       0.00080485       0.00041892       0.00029449
