50
Lattice="12.336457 0.0 0.0 -6.168228499999997 10.683685154694365 0.0 0.0 0.0 15.0" Properties=species:S:1:pos:R:3:forces:R:3 energy=-445.01421449336345 free_energy=-445.01421449336345 stress="-0.00418906483880626 -0.0005286624709782003 -6.169684550761964e-06 -0.0005286624709782003 0.002411743445300025 -1.3141879037009834e-05 -6.169684550761964e-06 -1.3141879037009834e-05 -2.296104798211745e-05" pbc="T T T"
C       -0.01665904       0.02338097       3.65948289       0.00015027       0.00063811      -0.00781585
C       -1.26866354       2.14616372       3.68336585      -0.00258664      -0.00234765      -0.00217447
C       -2.49535279       4.29625990       3.61261155       0.00176674       0.00901941      -0.00238907
C       -3.71910948       6.44173626       3.54718463      -0.00486447       0.00262471       0.00710487
C       -4.94672006       8.58601858       3.58681423      -0.00461262       0.00599279      -0.00007249
C        2.44672112       0.07078580       3.66380634       0.00357888       0.00200783      -0.00465010
C        1.17163910       2.14700051       3.82917071      -0.00378202       0.00614567       0.00541704
C       -0.08285299       4.26886443       3.88520096      -0.01024331       0.00259339      -0.00541035
C       -1.28070865       6.44117572       3.67523239       0.00996871      -0.01017050       0.00386374
C       -2.49636335       8.58987351       3.60433158       0.00778146      -0.00528935      -0.00571981
C        4.90861533       0.03226630       3.67395661       0.00316067      -0.00658519       0.00342119
C        3.71235535       2.17053025       3.77055352       0.01540123      -0.00207142       0.00950237
C        1.08992322       6.45918833       4.13259827      -0.00561509       0.01143590      -0.00319415
C       -0.03555425       8.56686967       3.74916771      -0.01055883      -0.00932375       0.00694535
C        7.38650793      -0.00054672       3.70798402      -0.01883195      -0.00030545      -0.00559101
C        6.15880681       2.15409388       3.66407094      -0.00156136      -0.00003654      -0.00787434
C        4.97088438       4.29747642       3.78235816       0.00165141       0.00782962      -0.01470617
N        3.79618807       6.45515982       4.02302021       0.00299395       0.00026166      -0.00109289
C        2.46197243       8.52540516       3.87234220       0.00691461       0.00767127       0.00327086
C        9.84649309      -0.00313852       3.69409863       0.00508910      -0.00177602       0.00777649
C        8.61469576       2.14791423       3.63000610      -0.00144049      -0.00058369       0.00376621
C        7.38903728       4.30068488       3.59191426      -0.00402405      -0.00900285      -0.00365382
C        6.17158619       6.44042808       3.62997811      -0.00281241      -0.00318112      -0.01939160
C        4.93077443       8.55907720       3.70344303       0.01195234       0.00138225      -0.00087199
C       -0.02333487       1.45243126       3.71080725      -0.00377501      -0.00222180       0.00546871
C       -1.26999257       3.56812787       3.70539606      -0.00802746      -0.00098036       0.00002385
C       -2.49075573       5.72348603       3.58854164       0.00315826       0.00727249       0.00309487
C       -3.71885858       7.87067318       3.56391506      -0.00161474       0.00675075      -0.00938634
C       -4.94512426      10.02153520       3.63071958      -0.00205023       0.00332354       0.00179186
C        2.44517077       1.52149507       3.76441175       0.00592104       0.00623839       0.00691545
O        1.09648994       3.53084302       4.01028350      -0.01901832       0.00461685       0.00249693
C       -0.04011585       5.71271555       3.88358166       0.00586795      -0.00396783      -0.00315856
C       -1.26686662       7.86500677       3.65951349       0.00275419      -0.01669441       0.00827328
C       -2.49670896      10.02407100       3.64142304       0.00687188      -0.00275327      -0.00517060
C        4.90971715       1.46581768       3.69737625       0.01351145      -0.00839441       0.00249041
O        3.77340664       3.56997291       3.78922163       0.00613994       0.00634323      -0.00602118
C        1.19772586       7.80937217       3.92071286      -0.00247652       0.00834619       0.00784086
C       -0.02375276       9.98647987       3.70390389      -0.01264715      -0.01196785      -0.00197102
C        7.37942478       1.43186204       3.65627895      -0.00725458       0.00073690       0.00350530
C        6.16018189       3.58195015       3.66251699      -0.00366067      -0.00329552       0.00224343
C        4.94342436       5.73614385       3.80207078      -0.00048613       0.00378305      -0.00385345
C        3.71893112       7.80625180       3.87122481       0.01446069       0.00184481       0.00723671
C        2.45305080       9.94816344       3.75081298      -0.00597371       0.00838226       0.00251545
C        9.84847572       1.43026594       3.65662434      -0.00008925      -0.00409773      -0.00480778
C        8.61592050       3.57911750       3.59161203       0.00339877       0.00122047       0.00248851
C        7.38829722       5.72243185       3.56644161      -0.00555591      -0.00883447      -0.00290803
C        6.16186062       7.86282111       3.62533231       0.00243702      -0.00093158      -0.00959593
C        4.91506914       9.98072883       3.67770868       0.00750441      -0.00013938       0.00584228
Y        2.52405946       4.84355469       5.28692665      -0.00818652      -0.01168907       0.01021756
O        3.31885981       3.97747566       6.81942385       0.00931445       0.01017966       0.00796742
