50
Lattice="12.336457 0.0 0.0 -6.168228499999997 10.683685154694365 0.0 0.0 0.0 15.0" Properties=species:S:1:pos:R:3:forces:R:3 energy=-444.83339267633966 free_energy=-444.83339267633966 stress="-0.0040110575714429894 0.0005257913240670137 3.501820145264147e-05 0.0005257913240670137 0.0026225408761614026 -8.08606701280594e-06 3.501820145264147e-05 -8.08606701280594e-06 1.5099880746071237e-06" pbc="T T T"
C        0.01269260       0.01987436       3.64499552       0.00055632      -0.00600201      -0.00840062
C       -1.23589703       2.13970918       3.59407280      -0.00014793      -0.00456177       0.00838159
C       -2.46254018       4.27904732       3.51621463      -0.00452274       0.01115617       0.00527614
C       -3.68932395       6.42361736       3.50643310       0.00092702       0.01499819      -0.00227266
C       -4.91467502       8.57645771       3.58326246       0.01041157      -0.00249547      -0.00047365
C        2.47885152       0.05837885       3.70235174      -0.00783408       0.00475186      -0.00463491
C        1.20986273       2.20292827       3.80351930       0.01031411       0.00086732       0.00429552
C       -0.02187963       4.27183927       3.78466230       0.00999845      -0.00040337      -0.00071379
C       -1.24258076       6.42121882       3.64240331      -0.00039961      -0.00800645       0.01488420
C       -2.45808602       8.56688184       3.61698010      -0.00652610      -0.00020040      -0.00070771
C        4.93945140       0.00860178       3.71165845       0.00053359       0.00100423      -0.00459898
C        3.74690363       2.13096384       3.88893228      -0.00478238       0.00203548      -0.00069998
O        1.09102862       6.45493900       4.13186604      -0.00638473       0.00590667      -0.00733137
C       -0.00341859       8.54159524       3.77433524      -0.00267361      -0.00544721      -0.00449671
C        7.41199331      -0.02077972       3.70167553       0.01455920       0.00512674      -0.00544636
C        6.18981783       2.12982351       3.66669238       0.00125093       0.00018683       0.01046622
C        5.01056588       4.25375564       3.84885854      -0.00586697      -0.00668115      -0.00188326
C        3.83382482       6.44132204       4.03730488       0.01217324       0.01248406       0.00145189
C        2.44828366       8.50256851       3.87616819      -0.01048342      -0.01020306      -0.01237331
C        9.86916799      -0.01825709       3.66280616      -0.01350754      -0.00666660      -0.00314657
C        8.64123419       2.12929050       3.56565688       0.00128194       0.00371582      -0.00510003
C        7.41929634       4.27939761       3.53865910       0.00334239      -0.00216378       0.00310044
C        6.20564011       6.42499156       3.61127930       0.00936382      -0.00670308       0.00052714
C        4.95554180       8.55122315       3.69967048       0.00327009      -0.00623210      -0.00320277
C        0.00265075       1.44488466       3.66186019       0.01032061      -0.00186185       0.00475274
C       -1.24641777       3.56163434       3.59396483       0.00130785       0.00620756       0.00327890
C       -2.46730497       5.70084866       3.52337695      -0.00818682       0.01210583       0.01133162
C       -3.69181023       7.85420931       3.55365559       0.00145290       0.00516229       0.00115716
C       -4.91618733      10.00751190       3.63996092       0.00046675      -0.00811394      -0.00119019
C        2.48752589       1.49782193       3.81907944      -0.00042322       0.00647135      -0.00585624
N        1.14091137       3.55620932       3.92479741       0.00487566      -0.00298561      -0.00339421
C       -0.06820624       5.70964467       3.85139646       0.00647161      -0.00164101      -0.00166952
C       -1.24030811       7.84997312       3.66781228      -0.00885993      -0.00694940       0.01235057
C       -2.46623178      10.00569177       3.68008172      -0.00687908       0.00225179      -0.00289444
C        4.94871933       1.43659741       3.74791591      -0.00674604       0.00554607      -0.00150585
O        3.84339183       3.51595848       4.07687126       0.00028995      -0.00556796       0.00912170
C        1.19786465       7.84427584       3.94065664      -0.00880539      -0.00463296      -0.01144718
C        0.00850723       9.96952060       3.72611029       0.01428960       0.00267177      -0.00632865
C        7.40768324       1.41529046       3.62792955       0.00786778       0.00693275       0.00940689
C        6.19408112       3.55256918       3.65169805      -0.00176106      -0.00047623       0.00660841
C        4.96529598       5.69670063       3.81364142      -0.00079637      -0.00373235      -0.00081652
C        3.72851951       7.79179462       3.86729314      -0.00502780       0.01048406       0.00052358
C        2.46636424       9.93415930       3.73853412      -0.00226538      -0.01210024      -0.00243324
C        9.87066596       1.41085322       3.58909055      -0.00954086      -0.00542878       0.00265105
C        8.63962537       3.55933845       3.51302772       0.00012098       0.00146249      -0.00200004
C        7.41459635       5.70701933       3.52425423       0.01179225      -0.00072381       0.00174921
C        6.19064036       7.84875309       3.61074191       0.01485754      -0.00491177       0.00181412
C        4.94537988       9.97060284       3.66095400      -0.00946128      -0.00631724      -0.00829032
Y        2.47075041       4.95758688       5.30343650      -0.00289035       0.00787398      -0.00467688
O        2.12352060       4.59579155       7.19921014      -0.01732344       0.00180629       0.00485684
