50
Lattice="12.336457 0.0 0.0 -6.168228499999997 10.683685154694365 0.0 0.0 0.0 15.0" Properties=species:S:1:pos:R:3:forces:R:3 energy=-443.05314290531004 free_energy=-443.05314290531004 stress="-0.0011970259573596885 0.001471077762704886 -2.8642650129284498e-05 0.001471077762704886 -0.002697099846592785 3.107586566837764e-05 -2.8642650129284498e-05 3.107586566837764e-05 -4.661544819280515e-06" pbc="T T T"
C       -0.02457001      -0.02767482       3.59983303      -0.00196487      -0.00656608       0.00293508
C       -1.24983802       2.11097520       3.54520998      -0.00349816       0.00306500       0.00328837
C       -2.50419897       4.23800495       3.67433316       0.00230441      -0.00392614      -0.00557568
C       -3.75262801       6.36859410       3.72681451       0.00299189      -0.00074701      -0.00724909
C       -4.97853144       8.50249248       3.69564418       0.00375809       0.00093602       0.00095081
C        2.43815521      -0.06315005       3.68558055       0.00310213      -0.00209411       0.00093717
C        1.25107404       2.06048464       3.41381395       0.00140003      -0.00860364      -0.00017636
C       -0.03137004       4.28607222       3.61934968       0.00515742      -0.00277577       0.00066187
C       -1.31011105       6.39502789       3.83799419      -0.00403179       0.00333736      -0.00652274
C       -2.51216537       8.51119230       3.79792649      -0.00583902       0.00613396       0.00966357
C        4.90832738      -0.04111132       3.78971619      -0.00287327      -0.00039416      -0.00283393
C        3.67776641       2.08945401       3.65907966      -0.00016573       0.00403763       0.00105984
C        1.11192018       6.41191650       4.06432271      -0.00395065      -0.00454857       0.00214885
C       -0.04047638       8.51371096       3.89641282       0.00222060      -0.00284916      -0.00607987
C        7.38077807      -0.03949457       3.78648726       0.00267407       0.00667589       0.00187873
C        6.13702575       2.10526122       3.71652726       0.00154243      -0.00081832      -0.00939227
C        4.83271248       4.25053377       3.64470326      -0.00392837       0.00110054      -0.00344160
O        3.75031946       6.43504221       3.87721069      -0.00792181       0.00447414       0.00333833
C        2.46680454       8.49797993       3.89499046       0.00107819       0.00209578       0.00842602
C        9.84377645      -0.03398158       3.68713157       0.00332441       0.00358900      -0.00021710
C        8.60948760       2.10101914       3.66653943       0.00519880       0.00696339       0.00352566
C        7.34366076       4.23186833       3.66813487       0.00156648       0.00067438       0.00079184
C        6.12653017       6.37340238       3.67387476      -0.00678368      -0.00277609      -0.01024779
C        4.91018347       8.51806641       3.72700381      -0.00083065      -0.00740888       0.00677075
C       -0.01173811       1.40120254       3.50079447      -0.00320643      -0.00539098       0.00635743
C       -1.24579441       3.54029814       3.59537535      -0.00089867      -0.00167611       0.00002152
C       -2.51991316       5.66329643       3.74902507       0.00099789      -0.00327613      -0.00779849
C       -3.74321126       7.79315220       3.74304028       0.00224820       0.00122919      -0.00127737
C       -4.97064710       9.92703633       3.66046054       0.00416105      -0.00000645      -0.00653056
C        2.45357277       1.34357117       3.59200691       0.00283237      -0.00269344       0.01030765
P        1.57795231       3.73097043       3.00907204      -0.01250620       0.01472218      -0.00131820
C       -0.06164662       5.70945188       3.85327533      -0.00142027      -0.00101694       0.00077489
C       -1.28177264       7.80794224       3.86190616      -0.00664083       0.00564260      -0.00220836
C       -2.49639336       9.92468617       3.77092567      -0.00248460       0.00232480       0.00839641
C        4.91521311       1.38057170       3.74026612      -0.00260138       0.00074446      -0.00260397
C        3.59830246       3.49054646       3.62737596       0.00228216       0.00464120      -0.00086731
C        1.19818812       7.77133412       3.96621677       0.00457507      -0.00499497       0.00597712
C       -0.02714979       9.92974362       3.83342727       0.00039082      -0.00029668      -0.00287534
C        7.37746517       1.38593113       3.72421439       0.00663779       0.00658429      -0.00216103
C        6.10448102       3.53134080       3.66326635       0.00059708      -0.00118911      -0.00521739
C        4.92116492       5.67961998       3.71373684      -0.01106640       0.00209402      -0.00362617
C        3.70237239       7.83487786       3.85571340      -0.00348175      -0.00146660      -0.00007485
C        2.45108205       9.92476385       3.78836123       0.00293428       0.00492436       0.00316136
C        9.85145653       1.39736629       3.62591186       0.00098787       0.00580385       0.00560865
C        8.59907019       3.52666980       3.66374172       0.00291107       0.00246677       0.00044873
C        7.35654640       5.65101502       3.67856338      -0.00090488       0.00115903      -0.00468120
C        6.13551101       7.79877034       3.68887542       0.00221538      -0.00252765       0.00326771
C        4.90755809       9.94776263       3.66799146      -0.00174938      -0.00756506       0.00233691
Y        2.63859690       5.18862230       5.46679306       0.00630638      -0.00669567      -0.00551961
O        3.26684007       6.04622395       6.99171991       0.01235242      -0.01311609       0.00546102
