50
Lattice="12.336457 0.0 0.0 -6.168228499999997 10.683685154694365 0.0 0.0 0.0 15.0" Properties=species:S:1:pos:R:3:forces:R:3 energy=-443.02371928067 free_energy=-443.02371928067 stress="0.0006814202810054771 -0.003034257880134352 9.218373177832749e-06 -0.003034257880134352 -0.002697763283452254 -1.1783784512652405e-05 9.218373177832749e-06 -1.1783784512652405e-05 7.936204361356723e-06" pbc="T T T"
C       -0.00761088      -0.03622662       3.75650572      -0.00153507      -0.00569988      -0.00267443
C       -1.24183211       2.10329062       3.67965622      -0.01133869       0.00255123       0.01160660
C       -2.45201156       4.23061777       3.63662305      -0.00916989       0.01008437       0.00927341
C       -3.68643303       6.37048063       3.69050801      -0.00450506       0.00042757      -0.01238394
C       -4.93145529       8.50941379       3.76605106       0.00922040      -0.01041972       0.00722736
C        2.46179330      -0.06927920       3.62732586      -0.00413655      -0.00524102       0.00877563
C        1.22002907       2.07313135       3.59221215       0.00842275      -0.00468475      -0.00276284
C        0.06736876       4.21691615       3.60553155      -0.00902544      -0.00592689       0.01141601
C       -1.23092508       6.37557298       3.64368175       0.00091152       0.00286724       0.00605561
C       -2.46291156       8.50420595       3.65394572      -0.00090658       0.00020787       0.01332351
C        4.92669676      -0.02969421       3.59102882       0.00004810      -0.00657201      -0.00260141
C        3.64145144       2.06163696       3.35678235       0.01592746       0.00039407      -0.00251629
C        1.14401676       6.40843389       4.04006504       0.00808216       0.00090779      -0.01568242
C       -0.00152191       8.51316078       3.75480294      -0.00541373       0.00823823       0.00779512
C        7.39283062      -0.02799369       3.73303253       0.00980539       0.00864800      -0.00522979
C        6.13542804       2.12670758       3.57650711      -0.00061417       0.00420889      -0.00378041
C        4.88889077       4.32966303       3.65954523       0.00298238      -0.00027790      -0.00715469
O        3.81839113       6.45507427       4.13030666       0.00047728      -0.01434387      -0.00494666
C        2.49007756       8.50366491       3.96777804       0.00010229       0.00150560       0.00061898
C        9.85707526      -0.03150338       3.80810040       0.00695645       0.00108657      -0.00313824
C        8.61866817       2.10819421       3.68263845      -0.00368955      -0.00669794      -0.00664075
C        7.38353638       4.24618932       3.68051889       0.00785363      -0.00075572      -0.00365704
C        6.20004925       6.40241204       3.84151874      -0.00300945       0.01055255      -0.00112508
C        4.94815710       8.52824399       3.92284589      -0.00764909      -0.00079877      -0.00221063
C       -0.01632283       1.38245845       3.68963104      -0.00228561      -0.00015209      -0.00017058
C       -1.20581724       3.52319775       3.62243060      -0.01602633       0.00443050       0.00433714
C       -2.45211039       5.65798721       3.63752931      -0.00342533       0.00991631      -0.00825413
C       -3.69153628       7.79346746       3.69915150       0.00791778      -0.00591910       0.00640069
C       -4.94061803       9.92636628       3.72709783      -0.00093454      -0.01195776       0.00490650
C        2.44327129       1.33447592       3.52475066       0.01564762      -0.00329226       0.00293943
C        1.30330295       3.47656696       3.56894507      -0.00124773      -0.00290880       0.00467951
C        0.02756974       5.67517685       3.71687533       0.00168228      -0.00351252       0.00598694
C       -1.22619529       7.79366644       3.67231320      -0.00320232       0.00308213       0.00019189
C       -2.46317837       9.92207004       3.61929745      -0.00636939      -0.00258025       0.00394013
C        4.90644922       1.40320327       3.49278725       0.00845299      -0.00718513       0.00228160
P        3.28220971       3.72905308       2.94171053      -0.00567259       0.00780540       0.01209993
C        1.22935389       7.77108920       3.92654337      -0.00479600       0.00521170      -0.00070864
C       -0.00754068       9.93894647       3.69381257       0.00641589       0.00696280      -0.00415689
C        7.37530344       1.40244106       3.66463284      -0.00447342       0.00581516      -0.00790987
C        6.12078212       3.56166386       3.63058485       0.00499681       0.00268759      -0.00841649
C        4.99042451       5.72325733       3.87585254       0.00244392      -0.00357022       0.00029562
C        3.73853704       7.84851819       4.03753260      -0.00517785      -0.01230334       0.00109805
C        2.46299135       9.93081981       3.84105099       0.01076686       0.00429137      -0.00930381
C        9.85359633       1.39565025       3.72235514      -0.00528791      -0.00277543       0.00670807
C        8.63063614       3.53288729       3.65885788       0.00340894      -0.00688770       0.00111968
C        7.41817113       5.66375245       3.73578768      -0.00521035       0.00314669      -0.00409802
C        6.18621716       7.81651290       3.86242858      -0.00245785       0.00814300      -0.00405969
C        4.92646327       9.94767716       3.83776551      -0.00100985      -0.00215216      -0.00279419
Y        2.54214125       5.09451993       5.50280427       0.00123208       0.00787097      -0.01685753
O        2.82154754       5.85643013       7.17883827      -0.00518463       0.00557161       0.01015702
