50
Lattice="12.336457 0.0 0.0 -6.168228499999997 10.683685154694365 0.0 0.0 0.0 15.0" Properties=species:S:1:pos:R:3:forces:R:3 energy=-442.60720156081135 free_energy=-442.60720156081135 stress="-0.004632912847212147 0.0020759079350963884 5.590477679152695e-06 0.0020759079350963884 -0.0010364060792847456 3.075908611235072e-06 5.590477679152695e-06 3.075908611235072e-06 2.4756783906730227e-05" pbc="T T T"
C        0.01041093       0.00422386       3.73482049      -0.00108247      -0.00112830      -0.00835991
C       -1.21793384       2.13662399       3.81480444      -0.00905407      -0.00025044      -0.00295355
C       -2.43820717       4.27113632       3.75308050       0.00876887      -0.00388081       0.00191291
C       -3.68355051       6.40782497       3.63391309       0.00236074       0.00911385       0.00514106
C       -4.92536638       8.55343910       3.60013167      -0.00176033      -0.00252851       0.00292674
C        2.47662893       0.01795707       3.77859436      -0.00293945      -0.00258884      -0.00696813
C        1.24477647       2.17579704       3.92816766      -0.00919559      -0.00043608      -0.00767286
C        0.03348852       4.28972491       3.99860912      -0.00426316      -0.00039873      -0.00318010
C       -1.23571780       6.42328477       3.86824402       0.00184270       0.00177624      -0.00078998
C       -2.46018242       8.55472408       3.75245670       0.00937645       0.00597018      -0.00006545
C        4.94894053       0.00913549       3.78667101      -0.01312740      -0.00281482      -0.01112336
C        3.72611624       2.15923118       3.79165342       0.00470895       0.00019723      -0.00332127
O        1.13046635       6.49064759       4.15785239       0.00212492       0.00239784      -0.00105129
C       -0.00348169       8.54862876       3.83984697       0.00192956       0.00644348      -0.00051546
C        7.42067204      -0.01475910       3.78669735      -0.00185457      -0.00177455       0.00138373
C        6.20513723       2.12004508       3.69739976       0.00498502      -0.00369621       0.00587475
C        4.97853964       4.21915023       3.51583429      -0.00260075       0.00141402      -0.00356256
P        3.58375844       6.32274466       2.53415129       0.00009927       0.00674478       0.01141272
C        2.45102565       8.52059613       3.71002042       0.00422830      -0.00292251      -0.00158390
C        9.88054336      -0.01533881       3.73759453       0.00199454       0.01035419      -0.00678971
C        8.66194284       2.12572122       3.73003087       0.00052398       0.00431240       0.00197581
C        7.44161901       4.26096763       3.58072880       0.00848941      -0.00498478       0.01550979
C        6.20950849       6.41038974       3.38612795      -0.00298064      -0.00978518       0.00523029
C        4.94065270       8.54199339       3.48904518      -0.00081499      -0.00482744      -0.00193540
C        0.00666552       1.42564738       3.83360602      -0.01172474      -0.00181453      -0.00232713
C       -1.21849006       3.56208708       3.85035275       0.00233710      -0.00485682       0.00453248
C       -2.45533704       5.69461042       3.74655182       0.00030343      -0.00073440       0.01016334
C       -3.69346585       7.83859125       3.65766901       0.00725691       0.01226644      -0.00038582
C       -4.92319890       9.97765745       3.70725913      -0.00051984      -0.00326194      -0.00509104
C        2.48182283       1.43487360       3.85358324      -0.00098512      -0.00116995      -0.00139159
C        1.21308056       3.55382063       4.08699802      -0.00550417       0.00035634      -0.00162197
C       -0.04385030       5.72830521       4.03735768       0.00216706       0.00121660      -0.00270916
C       -1.24098309       7.84598245       3.82651001       0.00669196       0.00377957       0.00577351
C       -2.45882877       9.98352782       3.77231375      -0.00659104      -0.00095737      -0.00727957
C        4.96591675       1.42483798       3.75606036       0.00195552      -0.00527457      -0.00002248
C        3.78479880       3.54483102       3.77044712      -0.00696776       0.00509772       0.00733146
C        1.20195370       7.86095459       3.87633904       0.00300278       0.00154201      -0.00459506
C        0.01288270       9.97490848       3.80110540      -0.01056860       0.00516007      -0.00574867
C        7.43326734       1.40848830       3.73878681       0.00523613      -0.00152776       0.00621654
C        6.22602224       3.53033870       3.58648279       0.00152572      -0.00071554       0.00765154
C        5.01057762       5.65906034       3.27412940      -0.00121016      -0.00078978      -0.00448872
C        3.68801222       7.85349075       3.38929527       0.00330329      -0.00601483       0.00456411
C        2.47376709       9.94936413       3.76433557       0.00427077       0.00049976      -0.00352598
C        9.88577384       1.41070213       3.76672107      -0.00552649       0.00996012      -0.00842511
C        8.66680046       3.55282362       3.68246879       0.01150464      -0.00264204       0.00274296
C        7.43475455       5.69229479       3.52572023       0.00356034      -0.00248397       0.01059172
C        6.18430953       7.83681563       3.45561576      -0.00386057      -0.00936294       0.00358963
C        4.94692807       9.96398393       3.66454391      -0.00015097       0.00129151      -0.00211735
Y        2.66194713       5.12148941       5.23308556       0.00018081      -0.00602570       0.00280794
O        2.11833814       4.98015731       7.03979945      -0.00144630      -0.00024500      -0.00773045
