52
Lattice="12.336457 0.0 0.0 -6.168228499999997 10.683685154694365 0.0 0.0 0.0 15.0" Properties=species:S:1:pos:R:3:forces:R:3 energy=-452.687191839562 free_energy=-452.687191839562 stress="-0.002547790823174245 -0.0027345783286670203 2.3159876922087736e-05 -0.0027345783286670203 -0.0030412068875937596 -6.515502320775055e-06 2.3159876922087736e-05 -6.515502320775055e-06 5.473159445461132e-06" pbc="T T T"
C        0.08582837      -0.03305569       3.79491872      -0.00336784      -0.00169741       0.00744211
C       -1.15616428       2.09783843       3.73109182       0.00213367      -0.00821211      -0.00096801
C       -2.37656888       4.22902177       3.70021070       0.00100126      -0.00022498      -0.00406373
C       -3.60128859       6.37237764       3.75035544       0.00475986       0.00325410      -0.00741589
C       -4.83949214       8.51391881       3.82321767       0.00247799       0.00591677      -0.00511888
C        2.55533007      -0.05771575       3.69461014       0.00458124       0.00458389      -0.00385847
C        1.31114062       2.08823433       3.64363989      -0.00340188       0.00444973      -0.00106666
C        0.11851336       4.21317296       3.68411752      -0.00222471       0.00214308      -0.00890306
C       -1.15505959       6.37615751       3.70883456      -0.00436811       0.00602086      -0.00954066
C       -2.37440764       8.50808855       3.73401088       0.00187255      -0.00471130      -0.00899232
C        5.02185754      -0.03645767       3.62507920       0.00414633      -0.01028164       0.00042516
C        3.75246099       2.05157195       3.35250472      -0.00628541       0.00075682       0.00342611
C        1.26294173       6.39037817       3.91787157      -0.01133866       0.00691180       0.00711448
C        0.09262724       8.50686427       3.76492423       0.00501295      -0.00180101      -0.00450524
C        7.48875238      -0.03706784       3.72096867      -0.00043449       0.00047895       0.00713552
C        6.23699251       2.11824174       3.55901037      -0.00368273      -0.00441615       0.00991744
C        5.00084703       4.32248752       3.60167732       0.00291583       0.00380875       0.00453895
O        3.92642241       6.44474182       4.16981143      -0.00240465       0.00461987       0.00283878
C        2.58417246       8.49270982       3.92108096      -0.00436515       0.00476971       0.01117784
C        9.94992708      -0.03886768       3.80711702      -0.00638502      -0.00174016       0.00550281
C        8.71050755       2.10101256       3.69772502       0.00218098       0.00307029      -0.00295219
C        7.47686410       4.24376777       3.68821922       0.00337775       0.00077647       0.00778097
C        6.28961882       6.40434827       3.81849657       0.01103261      -0.00704427       0.00547629
C        5.03846009       8.52334086       3.91389823       0.00176548      -0.00834337      -0.00235137
C        0.07503491       1.38495977       3.73545884       0.00181441      -0.00360150      -0.00677261
C       -1.14260068       3.51557275       3.69183369      -0.00039888      -0.00596508      -0.00151539
C       -2.37314353       5.65755269       3.71053893       0.00037129       0.00120336      -0.00185123
C       -3.60186550       7.79668468       3.77510555       0.00007244       0.00164363      -0.01385110
C       -4.84553230       9.93314048       3.78922377       0.00326283       0.00803320      -0.00604269
C        2.54235490       1.34895855       3.56590326      -0.00760868       0.00393185      -0.00561518
C        1.34227779       3.49105833       3.64456667       0.00126001       0.00549813       0.00955525
C        0.09729172       5.67314506       3.74749644      -0.00550728       0.00580805      -0.00133084
C       -1.14079826       7.79448530       3.72866140       0.00315084       0.00228966       0.01643745
C       -2.37321704       9.92666893       3.68714831       0.00359673      -0.00657807      -0.00637137
C        5.01028362       1.39078599       3.49496438      -0.00701687      -0.00726838       0.00995892
P        3.49681187       3.70259814       2.79994448       0.00775612       0.00534397       0.00111751
C        1.32585027       7.76475983       3.87206333      -0.00005154       0.00434053      -0.00200944
C        0.08750182       9.93223392       3.70704544       0.00659438      -0.00668439      -0.01475717
C        7.47228854       1.39337086       3.65659515       0.00207114      -0.00020178       0.00520627
C        6.22785997       3.55169486       3.60432878       0.00374754      -0.00006692      -0.00364310
C        5.08632856       5.72126693       3.82313585       0.00357886       0.00329362       0.00506158
C        3.83139906       7.83999648       4.01079599      -0.00467934       0.00184349       0.00412493
C        2.55763398       9.92260083       3.81671144      -0.00556083       0.00106001       0.00176713
C        9.94283737       1.38798477       3.74657937      -0.00053842      -0.00142834       0.00372913
C        8.71636961       3.52701417       3.69220187       0.00107659       0.00317225      -0.00106900
C        7.50653342       5.66343738       3.75063404       0.01165020      -0.00243386       0.00407931
C        6.27700283       7.81769788       3.87261399       0.00805191      -0.00675473      -0.01198963
C        5.01983355       9.94446288       3.84581450      -0.00605882      -0.00590788       0.00322328
Y        2.51858807       4.93678025       5.15959254      -0.01248135      -0.01143196       0.00601433
O        1.78711756       5.14004161       7.00050252      -0.00822008       0.00543454      -0.01589195
O        1.01411741       5.49572436       8.11346118      -0.00026367      -0.00049867       0.01942814
H        1.45620357       5.01721700       8.84365612       0.00133060       0.00283656      -0.01003250
