51
Lattice="12.336457 0.0 0.0 -6.168228499999997 10.683685154694365 0.0 0.0 0.0 15.0" Properties=species:S:1:pos:R:3:initial_magmoms:R:1:forces:R:3 energy=-448.8061418184071 free_energy=-448.8061418184071 stress="-4.853290673939552e-05 0.0015329525638155114 1.684961393532258e-05 0.0015329525638155114 -0.002469627715813122 4.934461530705144e-06 1.684961393532258e-05 4.934461530705144e-06 -5.611500637555783e-05" pbc="T T T"
C       -0.02561055      -0.06454183       3.55659862       0.00000000       0.00113572      -0.00109238      -0.00235466
C       -1.24866874       2.07681777       3.51705170       0.00000000      -0.00210223       0.00247227       0.00372441
C       -2.50355324       4.20214379       3.62314627       0.00000000      -0.00040849      -0.00019516      -0.00195400
C       -3.75270845       6.33139580       3.64296737       0.00000000      -0.00176492       0.00002572      -0.00209522
C       -4.98054411       8.46357218       3.61817286       0.00000000      -0.00005210      -0.00207024       0.00418913
C        2.43714930      -0.10394811       3.64287796       0.00000000       0.00215922      -0.00078051      -0.00004917
C        1.25326083       2.02297052       3.39712707       0.00000000       0.00029125       0.00169852      -0.00234503
C       -0.02577081       4.25320399       3.61331289       0.00000000       0.00057915      -0.00279728       0.00159070
C       -1.30900315       6.35702620       3.80401475       0.00000000       0.00081739      -0.00173196       0.00012047
C       -2.51254063       8.47261940       3.74349494       0.00000000       0.00164945      -0.00011904      -0.00191795
C        4.90736022      -0.07862413       3.75184017       0.00000000       0.00054314      -0.00045134      -0.00034427
C        3.67466728       2.05030247       3.62601379       0.00000000      -0.00094597      -0.00045484       0.00120937
C        1.10691742       6.37681086       4.11919892       0.00000000       0.00273419      -0.00052223      -0.00268790
C       -0.03985213       8.47763090       3.87500703       0.00000000       0.00227037       0.00275154      -0.00056461
C        7.37970615      -0.07379793       3.75960259       0.00000000      -0.00043355       0.00058436       0.00081636
C        6.13420969       2.07030463       3.66825019       0.00000000       0.00058355       0.00046955      -0.00112216
C        4.82161514       4.21485158       3.58259272       0.00000000       0.00227140       0.00006415      -0.00794473
O        3.76697804       6.39938801       3.93138729       0.00000000      -0.00369885      -0.00277391       0.00159000
C        2.46566716       8.46276696       3.89187914       0.00000000      -0.00225670       0.00046314       0.00403964
C        9.84274811      -0.06851966       3.65722039       0.00000000      -0.00153134      -0.00401522      -0.00056313
C        8.60850175       2.06649726       3.62468043       0.00000000      -0.00113205       0.00122703      -0.00153036
C        7.33930192       4.19544910       3.59363070       0.00000000       0.00263292       0.00295112       0.00119720
C        6.12115072       6.33492933       3.57205092       0.00000000       0.00027625      -0.00225134      -0.00232009
C        4.90734945       8.48144415       3.67297091       0.00000000       0.00098821      -0.00388467       0.00287054
C       -0.01112146       1.36565156       3.47437085       0.00000000      -0.00078258       0.00086097       0.00052574
C       -1.24262397       3.50640332       3.56808661       0.00000000       0.00215023       0.00151096       0.00172430
C       -2.51911977       5.62693378       3.68814158       0.00000000      -0.00213771      -0.00006974       0.00258590
C       -3.74362456       7.75506740       3.66662888       0.00000000      -0.00009787      -0.00245813       0.00247386
C       -4.97223346       9.88817829       3.60513310       0.00000000       0.00187348      -0.00166954      -0.00059065
C        2.45297664       1.30288870       3.56534027       0.00000000      -0.00104898      -0.00090336       0.00217151
P        1.59855860       3.69811069       3.03051709       0.00000000      -0.00164371       0.00257794       0.00213869
C       -0.05867422       5.67270428       3.86222800       0.00000000      -0.00196281       0.00124626      -0.00227944
C       -1.28233028       7.77063298       3.82380699       0.00000000       0.00361300      -0.00016494      -0.00435126
C       -2.49661242       9.88571921       3.72623795       0.00000000       0.00222997       0.00086661      -0.00064132
C        4.91341245       1.34365644       3.70159693       0.00000000      -0.00052594       0.00175391      -0.00232488
C        3.58265813       3.45091540       3.58375751       0.00000000      -0.00131237      -0.00019205       0.00118178
C        1.19659955       7.73533505       3.97896632       0.00000000      -0.00010514      -0.00071223      -0.00023091
C       -0.02757721       9.89392812       3.80386631       0.00000000       0.00093359       0.00403684      -0.00085670
C        7.37584095       1.35197247       3.68427865       0.00000000      -0.00047918      -0.00050431      -0.00136804
C        6.09618426       3.49672859       3.60066034       0.00000000       0.00229827       0.00022101      -0.00140105
C        4.91839532       5.64027771       3.64523153       0.00000000       0.00278116       0.00348760       0.00015426
C        3.70362616       7.80047354       3.84620766       0.00000000       0.00035868       0.00174359      -0.00010376
C        2.44939266       9.89004904       3.76849086       0.00000000      -0.00224086      -0.00063679      -0.00179037
C        9.85134719       1.36294484       3.59366781       0.00000000      -0.00165607      -0.00048053       0.00119126
C        8.59704909       3.49152004       3.60571444       0.00000000       0.00114663       0.00141904       0.00293786
C        7.35415077       5.61458631       3.58281452       0.00000000      -0.00099792       0.00273225       0.00090567
C        6.13189774       7.76071303       3.60519016       0.00000000      -0.00114937      -0.00209530      -0.00100351
C        4.90624773       9.91186128       3.62372993       0.00000000       0.00013810      -0.00174710       0.00547746
Y        2.63122161       5.24077880       5.52493177       0.00000000       0.01094472       0.00542028      -0.08144884
O        2.12378643       5.98518178       7.43424928       1.00000000       0.00204616       0.00309701      -0.00921202
O        3.34689093       6.59818727       6.97883108       1.00000000      -0.01897949      -0.00890753       0.09057995
