51
Lattice="12.336457 0.0 0.0 -6.168228499999997 10.683685154694365 0.0 0.0 0.0 15.0" Properties=species:S:1:pos:R:3:forces:R:3 energy=-458.6999786909563 free_energy=-458.6999786909563 stress="-0.0035317939736612966 -0.0013201644260688514 -7.124910189403287e-06 -0.0013201644260688514 -0.002019295800520508 -9.331670853628605e-06 -7.124910189403287e-06 -9.331670853628605e-06 7.213719939347644e-06" pbc="T T T"
C       -0.02749771      -0.01821860       3.54067194      -0.00435585      -0.00368878       0.00078937
C       -1.27079692       2.11175340       3.62194889       0.00664229      -0.00580306       0.00277436
C       -2.50550743       4.25036783       3.62200273      -0.00168183       0.00865555       0.00283195
C       -3.72839507       6.39205734       3.54073699      -0.00546589      -0.00198463       0.00087176
C       -4.95477594       8.53296448       3.50440466      -0.00457952      -0.00251720      -0.00909351
C        2.44192034      -0.02099437       3.53558227      -0.00498206       0.00216098      -0.00300191
C        1.20224240       2.09691041       3.66108540      -0.00095392       0.00444303      -0.00225436
C       -0.04719625       4.24394030       3.81064377      -0.00630143      -0.00357403      -0.00231098
C       -1.28172771       6.39946331       3.66230885       0.00326762      -0.00318936      -0.00203607
C       -2.49610151       8.53196899       3.53633043      -0.00051181      -0.00538660      -0.00350713
C        4.90714813      -0.01819309       3.60739268       0.00864512       0.00511295       0.00280680
C        3.66441336       2.11460977       3.70686318      -0.00104855      -0.00145840       0.00365900
C        2.40762779       4.14684087       4.11583454       0.00108798       0.00214631       0.00319334
C        1.09622545       6.41832624       4.11796544       0.00217575      -0.00012537       0.00436672
C       -0.03537757       8.52293233       3.70871251      -0.00151401      -0.00035858       0.00375814
C        7.37399164      -0.02841176       3.68437014       0.00116044      -0.00156862      -0.00532886
C        6.13164072       2.12336884       3.68331296      -0.00047967       0.00149434      -0.00465011
C        4.90100201       4.28399528       3.87272416       0.00630811      -0.00201518       0.00633002
N        3.83295251       6.48400918       4.19068925      -0.00516335      -0.00303263      -0.00616329
C        2.46164720       8.50922289       3.87448775       0.00142956       0.00608911       0.00670157
C        9.83822338      -0.02737695       3.64454858      -0.00185925      -0.00228209       0.00360135
C        8.59917590       2.11347099       3.63787898      -0.00140684      -0.00066545      -0.01208531
C        7.36466440       4.25694808       3.64357341      -0.00266749      -0.00061004       0.00382825
C        6.15899760       6.40707235       3.65238503       0.00477169       0.00123580       0.00106764
C        4.92925636       8.53711194       3.65311514       0.00325065       0.00316701       0.00094812
C       -0.03085166       1.40215109       3.59130215       0.00534444      -0.00467003       0.00753960
C       -1.26812324       3.53904559       3.67139281      -0.00214363      -0.00122132      -0.00569174
C       -2.49998120       5.67898627       3.59180700      -0.00151229       0.00684122       0.00715400
C       -3.72370874       7.81704939       3.50825446      -0.00630899      -0.00440867       0.00038576
C       -4.95927506       9.95703088       3.50804670      -0.00701281      -0.00310228      -0.00009557
C        2.43833780       1.40336918       3.62276320      -0.00428639       0.00399169      -0.00216116
C        1.20411249       3.52861409       3.84432537      -0.00231308       0.00102534      -0.00949542
C       -0.04088930       5.68523679       3.84549854      -0.00045953      -0.00245479      -0.00843659
C       -1.26436658       7.81673371       3.62429745       0.00157020      -0.00587343      -0.00292224
C       -2.49273594       9.95439894       3.54534711       0.00353746       0.00211049       0.00900692
C        4.89917857       1.40984852       3.65847354       0.00190549       0.00458138      -0.00207584
C        3.63730194       3.55761162       3.89361814       0.00367237      -0.00366466      -0.00028773
C        1.20071422       7.77797967       3.89578589      -0.00118917       0.00478994       0.00036246
C       -0.02834413       9.94462585       3.65957887       0.00488318      -0.00072571      -0.00231673
C        7.36482411       1.40082213       3.65925537      -0.00268670      -0.00170507       0.00772759
C        6.12075731       3.55978750       3.72417883       0.00185946      -0.00151132       0.00168949
C        4.93170758       5.73076329       3.90635845       0.00555606       0.00169867       0.00454052
C        3.72997173       7.81237453       3.90744505       0.00404320       0.00373840       0.00451020
C        2.44429254       9.92767936       3.72567798      -0.00031497       0.00181776       0.00107157
C        9.83428369       1.39912205       3.62129828       0.00236931      -0.00383361       0.00166844
C        8.59808855       3.54027549       3.62085064      -0.00206673       0.00415171       0.00218188
C        7.37548034       5.67971689       3.59466361      -0.00126371      -0.00347326      -0.00041415
C        6.15359069       7.82396559       3.58173070       0.00101079       0.00055805      -0.00487635
C        4.90753853       9.95426354       3.59531348      -0.00354966       0.00035831      -0.00008476
Y        2.50942496       5.72056140       6.01452016       0.00350293       0.00194938      -0.00485018
O        3.45963403       6.29094813       7.56028612       0.00008502       0.00278676      -0.00122682
