50
Lattice="12.336457 0.0 0.0 -6.168228499999997 10.683685154694365 0.0 0.0 0.0 15.0" Properties=species:S:1:pos:R:3:forces:R:3 energy=-446.5689171982848 free_energy=-446.5689171982848 stress="-0.00552378974023618 0.00041367284953973285 -9.478207924112553e-06 0.00041367284953973285 -0.0008754608078550128 -1.4154877230492226e-05 -9.478207924112553e-06 -1.4154877230492226e-05 4.47953396639194e-06" pbc="T T T"
C       -0.02554484       0.01805203       3.64597179       0.00455434       0.00374612      -0.00763683
C       -1.27406105       2.13671711       3.64003515       0.00476858       0.00501011       0.01389316
C       -2.50185299       4.28103767       3.59599986      -0.00551876       0.00711340       0.00108879
C       -3.72677841       6.42700512       3.56308697      -0.00470889       0.00005743       0.00188099
C       -4.95269792       8.57468678       3.59639854      -0.00718859       0.00307411      -0.00476263
C        2.44995188       0.04390335       3.68869210      -0.00140829       0.00943798       0.00014499
C        1.19407026       2.18321617       3.86150423       0.00635374      -0.00394713       0.00594918
C       -0.05063616       4.25708521       3.88895429       0.00597253      -0.00104360      -0.01134274
C       -1.27947771       6.43542356       3.70865339      -0.01245186      -0.00817990       0.00371993
C       -2.50223072       8.57229883       3.62345897      -0.00266313      -0.00200852      -0.00001053
C        4.90708161       0.01018669       3.67264325      -0.00552820      -0.00278111      -0.00910263
C        3.71371867       2.12696927       3.83201073      -0.00407039      -0.00198450       0.00680922
C        1.13445768       6.44988174       4.09123263       0.00049236       0.00556944      -0.00924724
C       -0.04101062       8.55398803       3.74180540       0.00793520      -0.01070361       0.00795906
C        7.37742825      -0.00625399       3.65887061      -0.00187687      -0.01020134       0.00067299
C        6.15624933       2.13492649       3.64570477       0.00073211      -0.00008370       0.00116770
C        4.96374225       4.25693292       3.81343962      -0.00228014      -0.00062804      -0.01099141
C        3.73811563       6.43961982       3.97194050      -0.00914036      -0.00423256      -0.00499556
C        2.44183229       8.54322709       3.81353478       0.00815819      -0.00315414       0.00727544
C        9.84053475      -0.00503688       3.63345823      -0.00518944      -0.00101304      -0.00032048
C        8.60789002       2.13733576       3.57625923       0.00258687       0.00668900      -0.01106419
C        7.38213957       4.28671590       3.57472891       0.01021830       0.00106905      -0.00405877
C        6.15329876       6.42282973       3.63023111       0.01003561      -0.00349222       0.00383615
C        4.92361012       8.55550269       3.67624757      -0.00958732       0.00169566      -0.00439305
C       -0.03765361       1.43558644       3.69920250       0.00906089       0.00280151       0.00524990
C       -1.29088060       3.55572363       3.68148140      -0.00191184       0.00747997      -0.01056302
C       -2.49908211       5.71536071       3.60725653      -0.01441415      -0.00140294      -0.00189887
C       -3.72714620       7.85612433       3.58250592      -0.00658620       0.00045022      -0.00275403
C       -4.95266932       9.99991500       3.64071370       0.00264262       0.00558402      -0.00318649
C        2.46743706       1.46957763       3.81035775       0.00017286       0.00265526       0.00351882
C        1.07971858       3.51912895       4.10193509       0.00392851      -0.00317351       0.00789042
C       -0.03539390       5.73231376       3.89959452      -0.00122021       0.00256932      -0.00475705
C       -1.27260613       7.85412913       3.68285767       0.00123466      -0.00989955       0.00008800
C       -2.49624582      10.00014051       3.65649938      -0.00657701       0.00225952       0.00133844
C        4.92045667       1.43481593       3.70307216      -0.00440458      -0.00095154      -0.00064436
O        3.78560359       3.51718602       3.94881689      -0.00180152      -0.00845435       0.01265161
C        1.19704590       7.81910411       3.88194913       0.01278663       0.00622536       0.00796792
C       -0.02762810       9.97056548       3.68146500      -0.00360041      -0.00949992       0.00344757
C        7.37449340       1.42141187       3.61057689       0.00132886      -0.00229094      -0.00774720
C        6.15774863       3.55918469       3.65383973       0.00653366       0.00384909      -0.00612431
C        4.89957667       5.69682464       3.79230809       0.00340503       0.00331426      -0.00230371
C        3.68634703       7.81145319       3.81402525      -0.00185005       0.00005637       0.00687772
C        2.44098903       9.95648495       3.68966414      -0.00147241      -0.01035890      -0.00611477
C        9.83233437       1.41658846       3.59468052       0.00048049       0.00366821       0.00541356
C        8.60593266       3.56824446       3.55615105       0.00397328       0.00632342       0.01125896
C        7.37315161       5.71144651       3.56861350       0.01096923      -0.00453071       0.00473623
C        6.15103495       7.84733740       3.61975179      -0.00720514      -0.00078646      -0.00376293
C        4.91064202       9.97272404       3.63935454      -0.00212657       0.00468902       0.00310423
Y        2.60305813       4.90854629       5.39882823       0.00431139      -0.00069423       0.00691237
O        3.53231824       4.53491989       7.05932176       0.00214639       0.01010863      -0.00707055
