49
Lattice="12.336457 0.0 0.0 -6.168228499999997 10.683685154694365 0.0 0.0 0.0 15.0" Properties=species:S:1:pos:R:3:forces:R:3 energy=-443.5953032381101 free_energy=-443.5953032381101 stress="-0.0075954370860137925 0.0006943301801801912 -2.1595400576143587e-06 0.0006943301801801912 -0.0024932472738542393 -1.7611084815539167e-06 -2.1595400576143587e-06 -1.7611084815539167e-06 2.5121304177309096e-06" pbc="T T T"
C        0.00149651       0.00737271       3.69058157       0.00386732      -0.00515605       0.00309707
C       -1.24440847       2.12651703       3.65155228      -0.01206281      -0.00213850      -0.00349356
C       -2.48109154       4.27059856       3.61358391      -0.01345048       0.00199829      -0.00566184
C       -3.70666683       6.41543662       3.63081654       0.00171923       0.01557491       0.00088002
C       -4.92923152       8.56351989       3.67590823       0.00339188       0.00301994       0.00096388
C        2.47405547       0.03043602       3.73181247       0.00062763       0.00270312       0.00282947
C        1.23125960       2.17035763       3.80433014       0.00444508      -0.00340454       0.00382383
C       -0.02673139       4.25680546       3.74684114       0.00612234       0.00147399      -0.00058454
C       -1.26021504       6.42730836       3.65442472      -0.01266525      -0.00350985      -0.00317311
C       -2.47884662       8.56371913       3.65313406      -0.00064626       0.00003781       0.00137431
C        4.93610812       0.00295306       3.69508930      -0.00717941       0.00201058      -0.00104754
C        3.74333696       2.15154824       3.89374412      -0.00689679      -0.00213314       0.00139809
C        1.17737833       6.42956399       3.85827884       0.00228777      -0.00270292      -0.00385937
C       -0.01473433       8.54704490       3.68597665       0.00584811      -0.00824552       0.00372332
C        7.40478727      -0.01481304       3.66014962       0.01132819      -0.00021778       0.00935484
C        6.18076223       2.12508012       3.70249780       0.01318590       0.00461130      -0.00856982
C        4.96872048       4.22570991       3.90098507      -0.01318240       0.00335688      -0.00619637
C        3.74967327       6.41692242       3.95038594      -0.00639215       0.00099020      -0.00185680
C        2.46901247       8.53647530       3.76334387       0.00080458      -0.01006584       0.00656356
C        9.86947101      -0.01392407       3.66275429      -0.00699208       0.00406749       0.00372978
C        8.63588158       2.12564882       3.62110295       0.00502888       0.00639758      -0.00723516
C        7.40653407       4.27048820       3.65558192       0.01368865      -0.00129644       0.00176222
C        6.18037753       6.41393103       3.73913041       0.01165492      -0.00871373      -0.00565847
C        4.94806642       8.54433851       3.72986086      -0.00468226      -0.00291855       0.00949524
C       -0.00803904       1.42567280       3.70376359      -0.00203671      -0.00776911       0.00183734
C       -1.26689452       3.54652296       3.64556874      -0.01120719       0.00210242      -0.00493656
C       -2.47982759       5.70370965       3.62169356      -0.01439274       0.00491267      -0.00308077
C       -3.70455301       7.84524070       3.64765308       0.00201267       0.00778435      -0.00005234
C       -4.92926814       9.98790041       3.69694636       0.01069805      -0.00299952       0.00198868
C        2.48869524       1.45145374       3.82663732      -0.00132042       0.00076939       0.00927602
C        1.14208262       3.53995212       3.87387284       0.00129011      -0.00651676       0.00738615
C       -0.01513838       5.72436202       3.74836977       0.00209057       0.00354179      -0.00324923
C       -1.24874693       7.84624917       3.65719254      -0.00161259      -0.00463850      -0.00036467
C       -2.46938630       9.98670440       3.69251506      -0.00731673      -0.00094132       0.00534309
C        4.95350498       1.42251174       3.74850372       0.00174419       0.00813039      -0.00193015
N        3.82749354       3.50377071       4.10123917      -0.01376568      -0.00223986       0.00149085
C        1.22431614       7.81284387       3.76514959       0.00966479      -0.00703180       0.00278926
C       -0.00004738       9.96280460       3.67173951       0.00153222      -0.00172759       0.00072793
C        7.40730395       1.40846460       3.64664494       0.01723185       0.00270256      -0.00215919
C        6.18878526       3.54249056       3.72720332       0.00577385       0.00631599      -0.00499069
C        4.93364870       5.69526567       3.87487950      -0.00971953       0.00256219      -0.00391825
C        3.71008610       7.80227606       3.81389391      -0.00663417      -0.00383596      -0.00181246
C        2.46904309       9.95057090       3.68315475       0.00519876      -0.00788596       0.00877175
C        9.86247651       1.40721156       3.63204245      -0.00950049       0.00654463      -0.00689067
C        8.63137720       3.55509751       3.61257525       0.00180463      -0.00224881      -0.00002431
C        7.40073855       5.69948352       3.66758043       0.01553993      -0.00077054      -0.00381460
C        6.17628424       7.83900186       3.71127986       0.00176301      -0.00256802      -0.00308613
C        4.93765902       9.96264804       3.68591706      -0.00822934       0.00391042       0.00414970
Y        2.41080387       4.96330116       5.12683655       0.00954038       0.00615770      -0.00510986
