51
Lattice="12.336457 0.0 0.0 -6.168228499999997 10.683685154694365 0.0 0.0 0.0 15.0" Properties=species:S:1:pos:R:3:initial_magmoms:R:1:forces:R:3 energy=-452.0472236553446 free_energy=-452.0472236553446 stress="-0.004511106826450078 0.00026664479082344884 1.4283513353451345e-05 0.00026664479082344884 0.0001778915467897833 -1.3522777584546064e-05 1.4283513353451345e-05 -1.3522777584546064e-05 -9.113981270707726e-05" pbc="T T T"
C       -0.09102746       0.06564239       3.72882081       0.00000000       0.00232608       0.00377004      -0.02798635
C       -1.33915829       2.18501393       3.73979131       0.00000000      -0.01115369       0.00841807       0.02707146
C       -2.56903903       4.32840145       3.67886357       0.00000000       0.00352792      -0.00358536      -0.00548758
C       -3.79280963       6.47395483       3.60237762       0.00000000      -0.00343417      -0.00708572      -0.00188790
C       -5.01950695       8.62205931       3.64417046       0.00000000       0.00983939      -0.00336880      -0.01917464
C        2.38192418       0.09018840       3.71921946       0.00000000       0.00343511      -0.01330629       0.01356467
C        1.13332436       2.23410338       3.88719898       0.00000000      -0.00987937      -0.00312943       0.02796440
C       -0.11866779       4.30450968       3.99996075       0.00000000       0.00887547       0.00637636      -0.02211461
C       -1.35067674       6.48137639       3.82955390       0.00000000      -0.00500543      -0.00946301       0.00402876
C       -2.56913009       8.61844468       3.70555771       0.00000000       0.00942103       0.01572961      -0.00074869
C        4.84249656       0.05912292       3.69605616       0.00000000       0.01318808       0.00936984      -0.01148235
C        3.64438916       2.18307980       3.69291678       0.00000000       0.00037844      -0.01569814      -0.02411607
C        1.07422996       6.48975554       4.16681944       0.00000000      -0.01638403      -0.00015944       0.02205376
C       -0.10684925       8.60095381       3.84373949       0.00000000      -0.00380110       0.00276108       0.01444631
C        7.31194952       0.04005448       3.73020455       0.00000000      -0.00353203       0.01217515      -0.02718838
C        6.09017886       2.18108633       3.54962099       0.00000000       0.01095915      -0.00468145       0.00910542
C        4.89013111       4.30768296       3.48902106       0.00000000       0.01402506      -0.00663097       0.01384917
C        3.66274668       6.46521774       3.81672415       0.00000000      -0.00052849       0.00286322       0.00113565
C        2.37777567       8.58667608       3.89028526       0.00000000      -0.01585510       0.00977314      -0.01750637
C        9.77452471       0.04231028       3.73775377       0.00000000      -0.00733313       0.00846862      -0.02960403
C        8.54361162       2.18270398       3.61176751       0.00000000      -0.00434660       0.01620716       0.03221920
C        7.31994317       4.33084958       3.48720078       0.00000000      -0.01114492      -0.01455743       0.03842893
C        6.08917254       6.47357592       3.52879462       0.00000000       0.00533632      -0.02227264       0.03792872
C        4.85574975       8.60207938       3.71368455       0.00000000      -0.00101007      -0.00931542      -0.00954327
C       -0.09908865       1.48477277       3.77767769       0.00000000      -0.00809083       0.00623131      -0.00337817
C       -1.35765725       3.60459604       3.79070454       0.00000000       0.00269646       0.00606520       0.02313239
C       -2.56744349       5.76206654       3.69417961       0.00000000      -0.00531384      -0.00991292       0.00298872
C       -3.79437694       7.90316741       3.63899909       0.00000000       0.01284605      -0.00057629       0.02029675
C       -5.01935022      10.04726173       3.70201339       0.00000000       0.00565042      -0.00224934      -0.00259703
C        2.40395582       1.52253405       3.77546919       0.00000000      -0.01557149      -0.01472588      -0.01628257
C        1.04140009       3.57891850       4.13540972       0.00000000       0.01230416       0.01317908       0.00454425
C       -0.10763122       5.77810274       4.02234094       0.00000000       0.00271064      -0.00211062      -0.03016169
C       -1.34003218       7.90070773       3.78948190       0.00000000      -0.00162548      -0.00742302       0.01355408
C       -2.56276374      10.04604162       3.70942845       0.00000000       0.01535767       0.01638545      -0.02986789
C        4.85305944       1.48639278       3.63160606       0.00000000       0.01474536      -0.00545849      -0.00150718
O        3.69438981       3.58358537       3.63783715       0.00000000      -0.00043696       0.01398066       0.01883516
C        1.13106784       7.86359824       3.97754528       0.00000000      -0.00911701      -0.00123161       0.01014843
C       -0.09342990      10.01683428       3.75056827       0.00000000      -0.00119253       0.01125756       0.02536643
C        7.30801026       1.46666083       3.61632974       0.00000000       0.01024428       0.00584873      -0.01241812
C        6.09034406       3.60401961       3.45418201       0.00000000      -0.00008209      -0.00913906       0.01728734
C        4.83111243       5.74361482       3.57135786       0.00000000       0.00306579      -0.01349753       0.01306458
C        3.61990081       7.85228163       3.81128341       0.00000000      -0.01756123       0.00457761      -0.02595661
C        2.37528259      10.00347081       3.78988245       0.00000000      -0.01084809       0.01227617      -0.03291442
C        9.76744091       1.46420411       3.68745105       0.00000000      -0.00867352       0.01255756      -0.00208466
C        8.54314591       3.61403501       3.57344754       0.00000000      -0.00080755       0.00608187      -0.00375034
C        7.31115792       5.75877898       3.51837251       0.00000000       0.00068520      -0.01460709      -0.01876193
C        6.08459522       7.89628090       3.62221442       0.00000000       0.00831317      -0.01163844      -0.02934040
C        4.84470082      10.02067496       3.72840013       0.00000000       0.00029524      -0.00097547       0.00720208
Y        2.64742264       4.92702086       5.17439479       0.00000000       0.02386614      -0.00400230      -0.13658289
O        4.95203011       3.07052627       6.17961331       1.00000000      -0.05005699       0.03071578      -0.00673799
O        4.10547167       4.01037220       6.48546060       1.00000000       0.02869310      -0.02426712       0.15096544
