49
Lattice="12.336457 0.0 0.0 -6.168228499999997 10.683685154694365 0.0 0.0 0.0 15.0" Properties=species:S:1:pos:R:3:forces:R:3 energy=-439.368406464865 free_energy=-439.368406464865 stress="-0.0042620677575021726 -0.0013176175252025038 2.00711435877183e-06 -0.0013176175252025038 -0.004428582679728504 -1.32336761574407e-05 2.00711435877183e-06 -1.32336761574407e-05 1.1134167459519872e-06" pbc="T T T"
C       -0.00453290      -0.00060146       3.85077106      -0.00129355      -0.00846952      -0.00479638
C       -1.24271499       2.13072536       3.78974421       0.00131932       0.01016777      -0.00446182
C       -2.46298308       4.26735549       3.77539362      -0.01584150      -0.00094211       0.00346708
C       -3.69163563       6.40665555       3.82855026       0.00166721       0.00456310      -0.00271837
C       -4.92628790       8.55106499       3.88354748       0.00523295       0.00486929      -0.00207214
C        2.46423479      -0.01653297       3.75995788      -0.00310169       0.00958559       0.00411066
C        1.21726639       2.13098389       3.63896578       0.00773822      -0.00799591       0.00015074
C        0.01775761       4.25083573       3.70320838       0.00016786       0.00403423       0.00731491
C       -1.23658615       6.41321963       3.81354599      -0.00703797      -0.00930812       0.00210897
C       -2.46857595       8.54559135       3.84226903       0.00104828      -0.00042137      -0.01037031
C        4.93116660      -0.00340323       3.69854212      -0.01285939       0.00060716       0.00403544
C        3.67402692       2.08055012       3.36757905       0.00407179       0.00310665       0.00620776
C        1.20926138       6.42086423       3.92290562       0.00597606      -0.01049144       0.00609174
C       -0.00849451       8.54519140       3.84340526       0.00509168       0.00082003       0.00174136
C        7.39413113       0.00143031       3.77834806       0.00728101       0.00383418       0.00909159
C        6.16045633       2.13626680       3.57351289      -0.00554265       0.00420889      -0.00319352
C        4.95268723       4.30815613       3.44287599      -0.01047722      -0.01001774      -0.01095124
C        3.74212118       6.45028656       3.68916869       0.00833500       0.00629908      -0.01563621
C        2.46372543       8.55610809       3.87722850      -0.00078241      -0.00996380      -0.00265605
C        9.86227897       0.00024162       3.85323898      -0.00322638       0.00381576       0.00061284
C        8.62663447       2.13475171       3.75994858      -0.00479243      -0.00498416      -0.00644051
C        7.40176704       4.27263558       3.70521939       0.01098359      -0.00346884       0.00175360
C        6.19820244       6.43166417       3.76934919       0.00626889       0.00265686       0.00136536
C        4.94502543       8.55457874       3.87398202      -0.00701654       0.00348649      -0.00660457
C       -0.01574460       1.41633112       3.77574836       0.00253834      -0.00645781      -0.00398978
C       -1.23398066       3.55046815       3.75123372      -0.00957222       0.01372951      -0.00655921
C       -2.46041902       5.69514014       3.80368274      -0.01124026      -0.00554282       0.00108686
C       -3.69594031       7.83261244       3.86318820       0.00438640       0.00365964      -0.00218086
C       -4.93574148       9.96715202       3.85449082       0.00485132       0.00290722      -0.00341635
C        2.45224341       1.38804013       3.58887896       0.00692312       0.00319929       0.00406669
C        1.21978144       3.52657803       3.56809053       0.00085217      -0.00332032       0.01966528
C        0.01447644       5.71186832       3.79922923       0.00054604      -0.00022164       0.01520467
C       -1.23511339       7.83279424       3.84174213       0.00302000      -0.00551893      -0.01417764
C       -2.46669658       9.96412112       3.77505053      -0.01321827       0.00201550      -0.00044310
C        4.92949036       1.41454977       3.52990580      -0.00468181      -0.00145925       0.00166067
P        3.51262078       3.66558188       2.59572115       0.01191115      -0.01088259      -0.00307303
C        1.23047458       7.81338849       3.88763133       0.00304566      -0.00933748       0.00681823
C       -0.00516188       9.96617432       3.77697432      -0.00019417       0.00869026       0.01388946
C        7.39038381       1.42435352       3.70773627      -0.00491444       0.00408157       0.00137216
C        6.16731317       3.56298708       3.55996502       0.00606477       0.00268464       0.00101752
C        4.95588435       5.75322619       3.62416822      -0.00081893      -0.00399260       0.01130739
C        3.70440969       7.83132779       3.82857462      -0.00185315       0.00325978      -0.00232782
C        2.45931282       9.97043495       3.84826222       0.00431832      -0.00921434      -0.00345258
C        9.85685510       1.41963989       3.81434832      -0.00114961       0.00688365      -0.00890645
C        8.63279990       3.56157309       3.75120556      -0.00223146      -0.01169878       0.00269692
C        7.41338037       5.69975302       3.77463176       0.00858827      -0.00012824      -0.00037252
C        6.17894014       7.84469612       3.86647705      -0.00019198       0.00718780      -0.01196000
C        4.93182188       9.97012648       3.87951759      -0.00821669       0.00031554       0.00179347
Y        2.65707072       4.82701105       4.84700708       0.00802730       0.01316834       0.00212911
