50
Lattice="12.336457 0.0 0.0 -6.168228499999997 10.683685154694365 0.0 0.0 0.0 15.0" Properties=species:S:1:pos:R:3:forces:R:3 energy=-449.54374202190604 free_energy=-449.54374202190604 stress="-0.005094600146953713 3.9429280816023925e-07 -8.134755893179083e-07 3.9429280816023925e-07 0.0034290184788356238 1.624520080921875e-07 -8.134755893179083e-07 1.624520080921875e-07 -1.7828543530100738e-06" pbc="T T T"
C        0.00129315       0.00963620       3.65945463       0.00701028      -0.00706607       0.00516294
C       -1.24717037       2.12461949       3.62042834      -0.00027863      -0.00148121      -0.00257279
C       -2.47635151       4.26885692       3.52971839      -0.00659518      -0.00347227      -0.01226488
C       -3.70125363       6.41862921       3.50636202      -0.00020832       0.01122420       0.00101248
C       -4.92859154       8.56918981       3.58718768       0.00462958      -0.00500781       0.00267091
C        2.46702781       0.05715589       3.70744548       0.00030085      -0.00239883      -0.00732258
C        1.19916992       2.18554537       3.87898460      -0.00066486      -0.00328219      -0.00547628
C       -0.03941440       4.24402237       3.84577427      -0.00846895       0.00205422       0.00122063
C       -1.25932699       6.41836095       3.62510361      -0.00253916      -0.00195173       0.00213067
C       -2.47379435       8.56929975       3.58533623      -0.00483472      -0.00546523       0.00332752
C        4.93276984       0.00972091       3.65995554      -0.00701814      -0.00709716       0.00532103
C        3.73488516       2.18547012       3.88167795       0.00045657      -0.00299741      -0.00516727
N        1.10209623       6.42859249       4.06099559      -0.00872459       0.00130077      -0.00555253
C       -0.01134813       8.53352290       3.69963706       0.00221246       0.00501010       0.00853127
C        7.40785522      -0.03529907       3.65044813       0.00710964       0.01226759       0.00069996
C        6.18125890       2.12472053       3.62444509       0.00051527      -0.00169507      -0.00374336
C        4.97357424       4.24401886       3.85198079       0.00839875       0.00147475       0.00056412
N        3.83191596       6.42892973       4.06586199       0.00956638       0.00134457      -0.00554977
C        2.46701606       8.47860180       3.84715545       0.00005993      -0.00488698       0.01072991
C        9.86270754      -0.03534584       3.65005052      -0.00770351       0.01222803       0.00025352
C        8.63521876       2.11699015       3.54577100       0.00033001      -0.00268565       0.00711318
C        7.41031284       4.26887744       3.53320068       0.00670408      -0.00354608      -0.01246464
C        6.19345772       6.41829547       3.63069713       0.00222914      -0.00179487       0.00073809
C        4.94544902       8.53346404       3.70246445      -0.00227341       0.00557266       0.00810206
C       -0.01134568       1.43297717       3.69969227       0.00203990      -0.00537663       0.00818689
C       -1.25933684       3.54809464       3.62512938      -0.00237292       0.00237956       0.00188074
C       -2.47634112       5.69761853       3.52967527      -0.00668211       0.00348392      -0.01206900
C       -3.70120305       7.84951311       3.54581520      -0.00020807       0.00227126       0.00659693
C       -4.92864891      10.00176472       3.65054033       0.00801736      -0.01197043      -0.00009446
C        2.46702063       1.48786983       3.84721996       0.00002600       0.00499043       0.01051488
N        1.10214119       3.53791190       4.06103596      -0.00943685      -0.00180460      -0.00578156
C       -0.03943094       5.72241801       3.84580649      -0.00833001      -0.00145555       0.00067649
C       -1.24715511       7.84184799       3.62046258      -0.00042313       0.00173381      -0.00315849
C       -2.47374882      10.00183421       3.65006767      -0.00768696      -0.01235730       0.00012674
C        4.94544699       1.43299381       3.70255166      -0.00214436      -0.00517436       0.00764070
N        3.83197411       3.53754532       4.06599122       0.00890945      -0.00150196      -0.00591587
C        1.19914547       7.78094874       3.87889831      -0.00018003       0.00286424      -0.00525718
C        0.00132879       9.95685800       3.65947796       0.00634891       0.00683630       0.00453333
C        7.40785972       1.39728017       3.58718962       0.00469175       0.00523416       0.00233288
C        6.19344309       3.54817291       3.63067838       0.00246432       0.00207996       0.00071902
C        4.97356353       5.72248275       3.85198710       0.00861880      -0.00200117       0.00026450
C        3.73487510       7.78101762       3.88166469       0.00057483       0.00281424      -0.00586327
C        2.46706023       9.90930957       3.70742850      -0.00035905       0.00266248      -0.00779562
C        9.86262559       1.39719394       3.58534128      -0.00426828       0.00523832       0.00295265
C        8.63517506       3.54787518       3.50640129       0.00016463      -0.01164753       0.00057766
C        7.41033875       5.69761340       3.53324073       0.00628696       0.00352309      -0.01291576
C        6.18127183       7.84173604       3.62439472       0.00020828       0.00219710      -0.00361489
C        4.93275455       9.95674976       3.65993394      -0.00674643       0.00728885       0.00503385
Y        2.46462908       4.98328782       5.39148804      -0.00003090       0.00009360       0.01988900
O        2.45729546       4.98359109       7.42316253       0.00030444      -0.00005010      -0.00692435
