49
Lattice="12.336457 0.0 0.0 -6.168228499999997 10.683685154694365 0.0 0.0 0.0 15.0" Properties=species:S:1:pos:R:3:forces:R:3 energy=-444.59382720692554 free_energy=-444.59382720692554 stress="-0.0056975388468344735 5.00874431441463e-06 -1.3936102812060798e-07 5.00874431441463e-06 0.0020355491891693085 2.5141375834380866e-06 -1.3936102812060798e-07 2.5141375834380866e-06 -2.883300386949666e-06" pbc="T T T"
C        0.00142401       0.00766445       3.69607635       0.00036408      -0.00177656       0.00307871
C       -1.24528607       2.12594977       3.66585331      -0.00501076      -0.00182261      -0.00289049
C       -2.47779132       4.26961714       3.58844821      -0.00094365      -0.00518349       0.00740554
C       -3.70188918       6.41749103       3.57477400       0.00620855       0.01098391      -0.00328528
C       -4.92941378       8.56563003       3.64365751      -0.00471482      -0.00626018      -0.00284565
C        2.46716408       0.04868854       3.72870162      -0.00058648      -0.00642314      -0.00353585
C        1.20550205       2.17772627       3.84750629       0.00119194       0.00299334       0.00573367
C       -0.03998740       4.25075470       3.82974509       0.01083491       0.00395819      -0.00630974
C       -1.25749268       6.41839976       3.66493484      -0.00134141      -0.00532121      -0.00421971
C       -2.47320630       8.56540517       3.64186259       0.00314075      -0.00453118      -0.00773763
C        4.93275629       0.00753181       3.69717067      -0.00199518      -0.00345271       0.00100014
C        3.72897130       2.17731763       3.85458178      -0.00259633       0.00462296       0.00128148
N        1.12635592       6.42241446       3.97469725      -0.00542737       0.00466896       0.00110821
C       -0.00871868       8.53333288       3.72265868      -0.00058600       0.00004719       0.00397758
C        7.40699269      -0.03079933       3.68977340       0.00427734       0.00721268      -0.00655948
C        6.17945973       2.12590954       3.67183046       0.00186365      -0.00342098       0.00065309
C        4.97379382       4.25065732       3.84277256      -0.00454723       0.00135966      -0.00264170
N        3.80794249       6.42293232       3.98603101       0.00092067       0.00555669      -0.00282130
C        2.46709071       8.48371764       3.82926528      -0.00178732       0.00022009      -0.00360198
C        9.86352138      -0.03058960       3.68835286      -0.00283995       0.00262155       0.00451653
C        8.63524617       2.11874878       3.61099703      -0.00060974       0.00532085      -0.00477505
C        7.41130018       4.26918723       3.59500244      -0.00153689       0.00318468       0.00186490
C        6.19116656       6.41851459       3.67452775       0.00081938      -0.00878085      -0.00224906
C        4.94271248       8.53356983       3.72873397       0.00234746      -0.00156047      -0.00508549
C       -0.00867983       1.43307998       3.72302842      -0.00140397      -0.00046712      -0.00002484
C       -1.25785956       3.54839074       3.66487645       0.00673399      -0.00037447      -0.00366852
C       -2.47775448       5.69724265       3.58864098      -0.00170545      -0.00238573       0.00574774
C       -3.70149481       7.84720966       3.61001304       0.00108910       0.00557851       0.00543800
C       -4.92920018       9.99743961       3.68898992      -0.00081914      -0.00863753       0.00152251
C        2.46722645       1.48287145       3.82859201      -0.00136269      -0.00033495       0.00129825
N        1.12581134       3.54381206       3.97405594       0.00911084       0.00406727       0.00579615
C       -0.03961315       5.71558792       3.82958712       0.00246049       0.00270615      -0.00385503
C       -1.24558748       7.84087991       3.66582364       0.00120752      -0.00612201      -0.00023470
C       -2.47308031       9.99720088       3.68948045      -0.00062754      -0.00751257      -0.00197427
C        4.94307450       1.43287288       3.72822140      -0.00254871      -0.00039612       0.00103982
N        3.80849696       3.54288319       3.98748159      -0.00325298       0.00476008      -0.00102748
C        1.20550330       7.78874565       3.84895774      -0.00153835       0.00030616      -0.00243236
C        0.00132335       9.95868586       3.69500222       0.00287218       0.00325372       0.01277934
C        7.40675018       1.40097784       3.64348715       0.00589593       0.00479540       0.00174746
C        6.19146467       3.54833179       3.67476787      -0.00337845      -0.00220106      -0.00565957
C        4.97379853       5.71571856       3.84307762      -0.00642611      -0.00048609      -0.00916231
C        3.72850171       7.78855634       3.85272103       0.00167233       0.00501515       0.01417750
C        2.46710048       9.91811931       3.72927577      -0.00024818       0.00212567      -0.00622049
C        9.86383242       1.40107658       3.64094909      -0.00678248       0.00313617      -0.00094096
C        8.63510217       3.54840821       3.57497015      -0.00358848       0.00108601       0.00011972
C        7.41077384       5.69683355       3.59434111       0.00769781       0.00536707       0.00720012
C        6.17948622       7.84111303       3.67263803      -0.00187678      -0.01022535      -0.00286937
C        4.93269975       9.95890697       3.69709380      -0.00139200       0.00146481       0.00426832
Y        2.46210282       4.98383257       5.06069210       0.00076552      -0.00873649       0.00487354
