50
Lattice="12.336457 0.0 0.0 -6.168228499999997 10.683685154694365 0.0 0.0 0.0 15.0" Properties=species:S:1:pos:R:3:forces:R:3 energy=-434.68583242287735 free_energy=-434.68583242287735 stress="-0.006497062391395636 0.0005537891172392315 5.720803100041283e-06 0.0005537891172392315 -0.012283404156384313 2.5800787777885694e-05 5.720803100041283e-06 2.5800787777885694e-05 1.5161497116874205e-05" pbc="T T T"
C       -0.01035060      -0.01372258       4.12022576       0.00216484       0.00157919       0.00195764
C       -1.22733577       2.16257460       4.04798958      -0.00190207      -0.00191129       0.00199283
C       -2.47768664       4.28774170       3.79639937      -0.00675908      -0.00311689      -0.00485567
C       -3.70771082       6.41581769       3.75372436       0.00250269       0.00242596       0.00713515
C       -4.95635338       8.52147148       3.93945885      -0.00240426       0.00657379      -0.00508623
C        2.46503215      -0.06952075       3.98935627      -0.00152206      -0.00705527       0.00205920
C        1.26615489       2.03115715       4.07744511       0.00340993       0.00216565      -0.00965184
C       -0.05432362       4.33184623       3.65703269      -0.00120380       0.01151518      -0.00387448
C       -1.25916713       6.44150142       3.59958326      -0.00450392       0.00071212       0.00191872
C       -2.46507841       8.53034040       3.84728882      -0.00085453      -0.00644740       0.00752520
C        4.92678311      -0.00175034       3.86747929      -0.00055855      -0.00095121      -0.00242212
C        3.66605567       2.03225900       3.53196111      -0.01004287      -0.00348497      -0.00891091
S        1.38717924       6.46202993       2.90234256      -0.00044230      -0.00659310       0.01269954
C       -0.00848997       8.57236627       3.83357040       0.00505823      -0.00235279      -0.00682949
C        7.38637705       0.04411993       4.00583003       0.00742093       0.00127129       0.00798920
C        6.15868147       2.14181074       3.65135327      -0.00000103      -0.00182228      -0.00061346
C        5.06198367       4.26623446       3.02046192       0.00607911       0.00667939       0.00233628
O        4.03875662       6.27237840       2.45604623       0.00422195      -0.00086058       0.00631140
C        2.47344575       8.61687201       4.11170386       0.00321698      -0.00277590      -0.00333430
C        9.86365942       0.04880352       4.15843663       0.00414264      -0.00498388      -0.00995273
C        8.62846086       2.16555769       3.92669331      -0.00425995       0.00360065      -0.00229478
C        7.40478191       4.28319596       3.61893133      -0.00472447       0.00656818       0.00573408
C        6.20165058       6.43982270       3.50270411       0.00416874       0.00296882       0.00350819
C        4.89833136       8.55249309       4.08878208       0.00368240      -0.00373481       0.00535085
C        0.00185951       1.41953770       4.11668955       0.00417405       0.00237502      -0.00104703
C       -1.24247028       3.57628512       3.86079942       0.00029010       0.00327612       0.00232919
C       -2.48203179       5.70713864       3.71940093      -0.00162581      -0.00433456       0.00096128
C       -3.71158465       7.82652135       3.84095901      -0.00453762       0.00234969       0.00048761
C       -4.95153198       9.93670221       4.05325906      -0.00174357       0.00274220       0.00228018
C        2.47636216       1.33849472       3.90219069      -0.00295677      -0.00670112       0.00280738
P        1.49914076       3.72159258       4.14476710      -0.00650125       0.00234326      -0.01518205
C       -0.08900189       5.70586520       3.41056180       0.00047017       0.00646576      -0.00615540
C       -1.23407517       7.84851274       3.72512573       0.00236218      -0.00380021       0.00738551
C       -2.46216886       9.94387094       3.91466802      -0.00141336      -0.00692499       0.00155168
C        4.92234840       1.42296875       3.67555604      -0.00440268       0.00183476      -0.00572069
S        3.45836135       3.54687382       2.65839115      -0.00684292       0.00679169       0.00778902
C        1.24174505       7.94158562       3.78973658       0.00594246      -0.00937576       0.00404685
C       -0.00811240       9.99982733       3.93456862       0.00521410       0.00154065       0.00266434
C        7.38319354       1.46221149       3.88227945       0.00200916       0.00086011       0.00442373
C        6.18383134       3.55243724       3.44824193       0.00103783       0.00116721       0.00446019
C        5.12372857       5.71031247       2.86578752       0.00509219       0.01064339      -0.01225022
C        3.67389178       7.94944110       4.22045114       0.00085356       0.00230915      -0.01016366
C        2.45238657      10.05104449       4.13894557       0.00534624      -0.00215762       0.00335569
C        9.86920121       1.46986453       4.06966704      -0.00463867      -0.00142660       0.00128923
C        8.62959047       3.57671033       3.79957957      -0.00966350       0.00380050       0.00203555
C        7.40583686       5.70219613       3.63161646       0.00428436       0.00565533      -0.00274938
C        6.14548970       7.82705695       3.86148875       0.00389410       0.00324816      -0.00128333
C        4.91998082       9.99757989       4.14833311       0.00530047      -0.00306274      -0.00412899
Y        3.52483811       5.65162741       4.62181892      -0.00115029      -0.00792515       0.00512723
O        2.02590876       4.31803088       5.48194154      -0.00768409      -0.01166410      -0.00300622
