51
Lattice="12.336457 0.0 0.0 -6.168228499999997 10.683685154694365 0.0 0.0 0.0 15.0" Properties=species:S:1:pos:R:3:forces:R:3 energy=-448.94294215308486 free_energy=-448.94294215308486 stress="0.000981781351771873 -8.05648428895875e-07 8.005165299171598e-06 -8.05648428895875e-07 -0.003688231336178524 2.280915170579261e-05 8.005165299171598e-06 2.280915170579261e-05 2.1061862645091964e-06" pbc="T T T"
C       -0.00254861      -0.00967411       3.82929193       0.00251592       0.00302826       0.00793936
C       -1.22574608       2.13647771       3.95264708      -0.00311803       0.00532936       0.00035927
C       -2.45752541       4.27231264       3.91793686      -0.00520024       0.00405848      -0.00660638
C       -3.70145412       6.40083282       3.80295451       0.00029244      -0.00849201      -0.00526623
C       -4.93990111       8.53165275       3.72836085       0.00033273      -0.00326016       0.00793937
C        2.46689911      -0.01967784       3.90236394      -0.00040773       0.00973580      -0.00149014
C        1.23950805       2.10675199       4.02522570       0.00053625       0.00116864      -0.01460889
C        0.03642918       4.24679097       3.88470521      -0.00295950      -0.00759645      -0.00132702
C       -1.21707010       6.39585578       3.64646756       0.00088563       0.00046451      -0.00469636
C       -2.46282355       8.53156889       3.73068014      -0.00002190      -0.00251961       0.00721448
C        4.93639324      -0.00975997       3.83047485      -0.00244794       0.00198687       0.00798415
C        3.69426731       2.10684099       4.02333072      -0.00061021       0.00155700      -0.01516460
O        2.46710862       4.14543683       4.15785274       0.00025400       0.00355687      -0.00874801
P        1.21256395       6.33515027       2.36896672       0.00073475       0.01588618       0.00837777
C       -0.01692987       8.57319819       3.45158148       0.00876047      -0.00214247      -0.00025609
C        7.39708443       0.02407483       3.71885547      -0.00223491      -0.00647768      -0.00491818
C        6.15945560       2.13656826       3.95085316       0.00306521       0.00479228       0.00057726
C        4.89736095       4.24691096       3.87923236       0.00342607      -0.00683451      -0.00166816
P        3.72052730       6.33622518       2.36335303       0.00084748       0.01477404       0.00991459
C        2.46701319       8.65541142       3.22821496      -0.00048187       0.00300047      -0.00969025
C        9.87327647       0.02420292       3.71791462       0.00276942      -0.00621596      -0.00503692
C        8.63507016       2.14496423       3.92048557       0.00045867      -0.00869852       0.01246153
C        7.39110165       4.27238979       3.91542362       0.00593982       0.00381043      -0.00559578
C        6.15074911       6.39584205       3.64107643      -0.00077737       0.00014216      -0.00328218
C        4.95092275       8.57363601       3.44693663      -0.00897491      -0.00191884       0.00056483
C       -0.00408091       1.40984609       3.94656504      -0.00164251       0.00523555       0.00798770
C       -1.21686418       3.55611501       3.95360717      -0.00745833       0.00414992      -0.00194690
C       -2.45656792       5.69444045       3.81839223      -0.00046644       0.00153516      -0.00124748
C       -3.70140020       7.82259013       3.76002876       0.00046759      -0.00990047      -0.00354719
C       -4.93846706       9.95296286       3.82052084       0.00417357       0.00250191       0.00521414
C        2.46688444       1.38938964       4.00949303      -0.00012671       0.00832797      -0.01343915
C        1.22832191       3.49493575       4.03419193      -0.00019130      -0.00246324       0.00807243
C        0.01971262       5.65748324       3.54581650      -0.00513462      -0.00670430      -0.00000397
C       -1.22784214       7.82663148       3.58770292       0.00680407       0.00255636       0.00155414
C       -2.46415707       9.95289818       3.82170176      -0.00473548       0.00275762       0.00535190
C        4.93788316       1.40988139       3.94553535       0.00131895       0.00433116       0.00787972
C        3.70544597       3.49492242       4.03036885       0.00088659      -0.00182392       0.00701120
C        1.21873210       7.93524937       3.11746158       0.00557993       0.00043964      -0.00017147
C       -0.00292785       9.98088062       3.67274783      -0.00138894      -0.00477992       0.01179859
C        7.39896045       1.43304911       3.88401745      -0.00187568      -0.00601849      -0.00322227
C        6.15045528       3.55622000       3.94991589       0.00769187       0.00416301      -0.00124779
C        4.91421018       5.65747583       3.53896825       0.00513040      -0.00638276      -0.00077593
C        3.71528455       7.93599409       3.11285425      -0.00620468       0.00062404       0.00108390
C        2.46695621      10.02665542       3.56087174       0.00018550      -0.00360867      -0.01425443
C        9.87123197       1.43304011       3.88444620       0.00251526      -0.00587119      -0.00374060
C        8.63499722       3.56717783       3.94450126       0.00054124      -0.00370014       0.00088098
C        7.39014321       5.69447163       3.81536605       0.00084851       0.00128801      -0.00089976
C        6.16177457       7.82683969       3.58304564      -0.00678026       0.00193963       0.00226375
C        4.93687812       9.98116001       3.67011957       0.00183531      -0.00421713       0.01270004
Y        2.46698965       6.26113916       5.03812720      -0.00139569       0.00037697      -0.01667532
O        2.42723446       6.06852071       6.88557936      -0.00416239      -0.00389185       0.01439634
