53
Lattice="12.336457 0.0 0.0 -6.168228499999997 10.683685154694365 0.0 0.0 0.0 15.0" Properties=species:S:1:pos:R:3:forces:R:3 energy=-458.92003572637054 free_energy=-458.92003572637054 stress="0.00010490753926484959 -0.0001600508704313294 -5.098704500034593e-05 -0.0001600508704313294 -0.004667269521054227 -1.6470190892041313e-05 -5.098704500034593e-05 -1.6470190892041313e-05 2.7681676531160643e-05" pbc="T T T"
C       -0.02909965       0.00083865       3.85833405      -0.00543143       0.00314850      -0.00117706
C       -1.25528455       2.14721176       3.96655671       0.01098856       0.00021996      -0.00204860
C       -2.48777065       4.28179261       3.93021825       0.00079939      -0.00255857      -0.00522093
C       -3.72910105       6.41121745       3.82895836       0.00422766      -0.01229862      -0.00955831
C       -4.96401494       8.54294631       3.77058272       0.00979018      -0.00287099      -0.00872991
C        2.44053439      -0.01076082       3.91065663      -0.00680670       0.01121971       0.00814311
C        1.21152129       2.11918829       4.00648202       0.00441825       0.00334433       0.00278382
C        0.00606086       4.25955320       3.87649108      -0.00036955      -0.00174237      -0.00335016
C       -1.24610247       6.40269256       3.64610129      -0.00456760       0.00916352       0.00491396
C       -2.48826974       8.53974551       3.75269037      -0.00585358       0.00010346      -0.00513844
C        4.90928463      -0.00159446       3.85081808       0.00003442      -0.00833148      -0.00733021
C        3.66697204       2.11264415       4.01186945      -0.00648189       0.00888395       0.00115500
O        2.43292038       4.15571070       4.21607037       0.00103922      -0.00728593      -0.01704677
P        1.21061372       6.34939248       2.42168108       0.00542475       0.00715072       0.00823972
C       -0.04402351       8.58127098       3.47874183       0.00106331      -0.00355257       0.00355409
C        7.36842759       0.03240835       3.75573661       0.00926563      -0.00034153      -0.00814385
C        6.13225300       2.14536780       3.96914581      -0.01274483       0.01118541      -0.00252956
C        4.87092782       4.25409443       3.90043778      -0.00382328       0.00263486       0.00431160
P        3.71325296       6.36776456       2.38062448      -0.00802013       0.00353835       0.01239493
C        2.43603739       8.65834381       3.29805039      -0.00324674      -0.00336571      -0.01180832
C        9.84444972       0.03296658       3.76117625       0.00122750       0.00260445      -0.00675734
C        8.60594625       2.15393130       3.95140713       0.00327643      -0.00284317      -0.00696553
C        7.36374936       4.28160881       3.93832771       0.00608520       0.00189427      -0.00418378
C        6.12703679       6.41054593       3.68663449      -0.00017018      -0.00972469      -0.00351135
C        4.92411340       8.58284242       3.51622565      -0.00412454      -0.00527061       0.00046288
C       -0.03206518       1.42121479       3.95239960       0.00894717       0.00239661       0.01116104
C       -1.24722159       3.56631611       3.95670374       0.00151700      -0.00042561       0.00948321
C       -2.48690652       5.70318011       3.82851832       0.00195172      -0.00245180       0.00438253
C       -3.72757586       7.83271381       3.79005603       0.00581984      -0.01266198       0.00133856
C       -4.96482222       9.96315392       3.84816554      -0.00294077       0.00380560       0.00425893
C        2.43938802       1.39872792       3.99593515      -0.00192573       0.01177104      -0.00232057
C        1.19694151       3.50678522       4.02522596       0.00019239      -0.00195469       0.00432427
C       -0.01825613       5.66313686       3.53435014      -0.00919915       0.00282001       0.00088171
C       -1.25579193       7.83527901       3.59937418      -0.00233295       0.00779982       0.01321256
C       -2.49035241       9.96141331       3.84054507      -0.00963579       0.00086524      -0.00543421
C        4.91061468       1.41804471       3.95458108      -0.01123287      -0.00078519       0.01013134
C        3.67980329       3.50178963       4.04098041      -0.00214371       0.00343453       0.00351945
C        1.19414494       7.94333393       3.17150622      -0.00061922      -0.00321913      -0.00005901
C       -0.03077068       9.98918435       3.70303759       0.00873314      -0.00649279       0.00178695
C        7.37071571       1.44180899       3.91480636      -0.00577051       0.00404888      -0.00613067
C        6.12490763       3.56408650       3.96401216      -0.00078597       0.01396656       0.00591131
C        4.88322649       5.67422035       3.58242265      -0.00777111      -0.00466504       0.01165238
C        3.68415148       7.93564898       3.20300046      -0.00801088      -0.00360533      -0.00384605
C        2.43829184      10.03576352       3.60916277       0.00657195      -0.00518794       0.00127622
C        9.84207602       1.44258025       3.91401393       0.00903076       0.00071332       0.00435885
C        8.60561272       3.57622673       3.96682888       0.00300080      -0.00298839      -0.00112869
C        7.36267675       5.70561548       3.84650447       0.00277363      -0.00451951      -0.00183934
C        6.13643627       7.83767751       3.63809445       0.00352929      -0.00599488      -0.00615315
C        4.90921928       9.99075796       3.71913066      -0.00526097      -0.00229911       0.00696411
Y        2.72140474       6.19023545       5.07974010      -0.00278135      -0.01000492       0.00024497
O        3.96555327       6.08722600       6.76884667       0.00321305      -0.00125578      -0.01172786
O        2.56739437       6.33890765       7.31203384       0.00280846       0.00610157      -0.00338792
H        2.67929767       5.94677011       8.19503053       0.01632170       0.00588365       0.00468008
