50
Lattice="12.336457 0.0 0.0 -6.168228499999997 10.683685154694365 0.0 0.0 0.0 15.0" Properties=species:S:1:pos:R:3:forces:R:3 energy=-442.95192210240833 free_energy=-442.95192210240833 stress="0.0038296785982227218 2.810897619237535e-05 -2.4605966062956142e-05 2.810897619237535e-05 -0.0018170203872387447 -3.1445638006120286e-06 -2.4605966062956142e-05 -3.1445638006120286e-06 -3.4695406165629588e-06" pbc="T T T"
C       -0.00534011      -0.02341067       3.87434666       0.00981703      -0.00096678       0.00863707
C       -1.22547188       2.12900512       3.98014967       0.00282279      -0.00576852      -0.00528410
C       -2.45478131       4.26423392       3.93545090      -0.00685567      -0.00408773      -0.00412549
C       -3.70057434       6.38902085       3.82665726      -0.00158855       0.00692855       0.00437424
C       -4.94142249       8.51921432       3.77530396      -0.00420510       0.00084787       0.00037323
C        2.46566650      -0.03106544       3.93859669       0.00938567      -0.00568030       0.01076831
C        1.23940740       2.09503254       4.05675904       0.00298659       0.00632226      -0.00868882
C        0.04551903       4.24303474       3.90517092       0.00318281       0.00993096       0.00358952
C       -1.20053602       6.38567133       3.67538621      -0.00504502      -0.00015648       0.00404778
C       -2.46190478       8.52041096       3.77242865      -0.00070671      -0.01323980      -0.00673242
C        4.93710903      -0.02195713       3.86531412      -0.00625047      -0.00056445       0.01590890
C        3.69288193       2.09580422       4.05716556      -0.00674397       0.00684422      -0.00401377
O        2.46583997       4.14462189       4.24535910       0.00510408      -0.00938884       0.00687597
P        1.20270709       6.32842760       2.25293514      -0.01778568       0.00193272      -0.00551248
C       -0.01405279       8.55968055       3.47986709       0.00360659       0.00466278      -0.00643589
C        7.39746541       0.01167938       3.74391940      -0.00092958      -0.00053406      -0.00918262
C        6.15775877       2.12983557       3.97605750       0.00863018      -0.00995796       0.00437742
C        4.88806688       4.24381146       3.91439112      -0.00044164       0.00801504       0.00116704
P        3.73539284       6.32730629       2.26346024      -0.00965271      -0.00307468      -0.00216599
C        2.46635911       8.65130897       3.19255025       0.00202161      -0.00911628       0.00834644
C        9.87153788       0.01118835       3.74801716      -0.00836913      -0.00526844      -0.00266202
C        8.63450166       2.13572124       3.94404178       0.00418833       0.00268762       0.00591717
C        7.38984083       4.26395415       3.93580890      -0.00696429       0.00196082       0.00349903
C        6.13529301       6.38512732       3.67952949       0.00405849      -0.00479076       0.00769996
C        4.94602337       8.55834880       3.48791163       0.00745148       0.00367346      -0.00458060
C       -0.00476618       1.39857566       3.98336837       0.00819503       0.00046571      -0.00690239
C       -1.21466408       3.54973979       3.97000996       0.00154870      -0.00165789       0.00256311
C       -2.44894229       5.68564282       3.83931076      -0.00904036      -0.00341924      -0.00991620
C       -3.70109076       7.81119841       3.79743321      -0.00742921       0.00440308      -0.00036708
C       -4.94074188       9.93969975       3.86595736       0.00945449      -0.00132091       0.00214757
C        2.46610699       1.37867538       4.03944732      -0.00114737       0.00168962       0.00173738
C        1.22566017       3.48715208       4.06810042       0.00409188       0.00898990       0.00496610
C        0.06102304       5.66261014       3.57084076      -0.00223920       0.00806291      -0.00144968
C       -1.22134680       7.81460896       3.62521472       0.00582850      -0.00421704      -0.00681136
C       -2.46398859       9.94109702       3.86019469       0.00215648      -0.01620743       0.00987433
C        4.93672984       1.39967851       3.97754158      -0.00584588       0.00373808      -0.00166811
C        3.70736445       3.48784424       4.07695840      -0.00136517       0.00767710      -0.01217421
C        1.21985510       7.92144491       3.07231462       0.00148692      -0.00666037       0.00496233
C       -0.00075952       9.96616542       3.70444999      -0.00322871       0.00718469      -0.00105527
C        7.39737803       1.42333351       3.90812223       0.01445690      -0.00548038       0.00581157
C        6.14860311       3.55034277       3.97361554      -0.00119501      -0.00656322      -0.00732182
C        4.87422405       5.66234665       3.57941674      -0.00354524       0.00101580      -0.00492036
C        3.71239489       7.91861713       3.08241591       0.00149907       0.01218683       0.00912303
C        2.46649669      10.01524272       3.57350125      -0.00800325       0.00368412      -0.00270680
C        9.87113435       1.42276581       3.91238477      -0.00268161      -0.00435714      -0.00071849
C        8.63572949       3.55855893       3.96435115      -0.00990877       0.00233551      -0.00684719
C        7.38441919       5.68526588       3.83979352       0.00486993       0.00157310      -0.00133851
C        6.15416419       7.81404756       3.63034031       0.00387805      -0.00676622      -0.00566509
C        4.93276689       9.96479774       3.71252369       0.00280151       0.00431666      -0.00154251
Y        2.45324181       6.39924783       4.55647354       0.00764521       0.00811553       0.00402178
