51
Lattice="12.336457 0.0 0.0 -6.168228499999997 10.683685154694365 0.0 0.0 0.0 15.0" Properties=species:S:1:pos:R:3:initial_magmoms:R:1:forces:R:3 energy=-437.06354049083853 free_energy=-437.06354049083853 stress="-0.0035424727075577854 0.0006214166503968142 1.9555336978673028e-06 0.0006214166503968142 -0.007877248920050461 2.5732255502565632e-06 1.9555336978673028e-06 2.5732255502565632e-06 -6.8447536666575554e-06" pbc="T T T"
C       -0.08767206      -0.00061720       3.62262560       0.00000000      -0.00279107       0.00618388       0.00987204
C       -1.30502282       2.16156341       3.73932570       0.00000000       0.00011916       0.00493345      -0.00811851
C       -2.54631817       4.29692082       3.72183986       0.00000000       0.00643715      -0.00488044      -0.00724280
C       -3.77985611       6.42379773       3.64998889       0.00000000       0.00439630      -0.00003623      -0.00573235
C       -5.02921788       8.54243864       3.64132304       0.00000000      -0.00107800      -0.00261190       0.00310881
C        2.38062449      -0.03922312       3.43654917       0.00000000       0.00555213       0.00006739       0.00012320
C        1.18413716       2.07086565       3.72876190       0.00000000      -0.00020332      -0.00059605       0.00190396
C       -0.16043913       4.31446453       4.26818760       0.00000000      -0.00478318      -0.00717980       0.00294696
C       -1.34589847       6.44823975       4.03562696       0.00000000      -0.00792048       0.00152893       0.00993073
C       -2.54822288       8.55172306       3.65950498       0.00000000      -0.00115399       0.00190695       0.00442795
C        4.85665646      -0.00337873       3.38625183       0.00000000      -0.00097329      -0.00149354       0.00289336
C        3.60250108       2.06729888       3.08992148       0.00000000      -0.00325639       0.00347483       0.00359446
P        1.16614841       6.53285031       5.24649244       0.00000000       0.00272145       0.00102821       0.00570956
C       -0.10032175       8.61140133       3.92561212       0.00000000       0.00017014       0.00595141       0.00706435
C        7.31802983       0.04112246       3.52825204       0.00000000      -0.00228218      -0.00984110      -0.00702604
C        6.10144327       2.14507803       3.16722732       0.00000000      -0.00177888      -0.00527264      -0.01086481
C        4.93450964       4.34483237       2.99302272       0.00000000      -0.00093187       0.00464941       0.00024228
P        3.48193440       6.24970589       4.48065038       0.00000000       0.00575184       0.00739374      -0.00425555
C        2.36767737       8.66033702       4.02822942       0.00000000       0.00608700      -0.00407611      -0.00350671
C        9.79337275       0.04032174       3.64121862       0.00000000      -0.00530863       0.00304851      -0.00124235
C        8.56892749       2.16553422       3.46368813       0.00000000      -0.00180457      -0.00058806      -0.01525616
C        7.34782000       4.29651331       3.37447610       0.00000000       0.00603541       0.00792716      -0.00391749
C        6.09781106       6.42479876       3.61408172       0.00000000       0.00135698      -0.00312409       0.00286218
C        4.84298038       8.56806128       3.83572834       0.00000000       0.00292554      -0.00416264      -0.00502890
C       -0.07979021       1.42646662       3.69709859       0.00000000      -0.00218319       0.00873264       0.00187426
C       -1.32196210       3.58078671       3.89444633       0.00000000      -0.00001553      -0.00522406       0.00336547
C       -2.55427029       5.71975905       3.78180037       0.00000000      -0.00040077      -0.00532100       0.00495175
C       -3.78710339       7.84182735       3.64987019       0.00000000       0.00033054      -0.00092460      -0.00485879
C       -5.02858631       9.95674121       3.57066061       0.00000000      -0.00002061       0.00202736      -0.00024988
C        2.37501139       1.37100035       3.38341279       0.00000000       0.00095406      -0.00022508       0.00503282
P        1.38213288       3.55524212       4.61270386       0.00000000      -0.00443048      -0.00414290      -0.00666269
C       -0.18723851       5.72131514       4.40311560       0.00000000      -0.01126010      -0.00668982       0.00703430
C       -1.32916947       7.86966381       3.89354740       0.00000000      -0.00125248       0.00547497       0.00244968
C       -2.54371742       9.96019794       3.47148525       0.00000000       0.00407144      -0.00156230      -0.00536029
C        4.86333434       1.41915282       3.17322696       0.00000000      -0.00385316      -0.00438573       0.00078316
S        3.44438491       3.65592859       2.35298614       0.00000000       0.00207775      -0.00032958       0.00204752
C        1.12554706       8.00864225       4.28173441       0.00000000       0.00491699       0.00196956       0.00198517
C       -0.08385166      10.00441433       3.58472509       0.00000000      -0.00288648       0.00142807       0.00879219
C        7.33312706       1.45150811       3.34936752       0.00000000      -0.00402827      -0.00867614      -0.00123861
C        6.12316543       3.57551117       3.14247058       0.00000000       0.00348778       0.00425285      -0.00809927
C        4.87596473       5.68107956       3.54308268       0.00000000      -0.00198248       0.00639448      -0.00320470
C        3.59875904       7.93818042       4.09801156       0.00000000       0.00844179       0.00232378       0.01057767
C        2.38112614      10.04032584       3.70202465       0.00000000      -0.00110418      -0.00316495       0.00497636
C        9.80180210       1.46046720       3.59337675       0.00000000      -0.00210688       0.00470135       0.00495284
C        8.57405134       3.58622309       3.49557883       0.00000000       0.00368420       0.00123054      -0.00021508
C        7.32813031       5.71304407       3.52639592       0.00000000       0.00491705       0.00700671      -0.00838942
C        6.07385992       7.83988161       3.73267242       0.00000000       0.00039477      -0.00734103       0.00019263
C        4.84842844       9.99189841       3.69705694       0.00000000      -0.00368266       0.00086100      -0.00406978
Y        4.04852998       3.76394972       5.21350186       0.00000000      -0.00126634      -0.00570101       0.00768606
O        5.59413996       3.74157459       8.13758089       1.00000000       0.00011449       0.00004627      -0.00094625
O        5.02964756       3.72996107       6.96506714       1.00000000      -0.00020446       0.00300735      -0.00589533
