50
Lattice="12.336457 0.0 0.0 -6.168228499999997 10.683685154694365 0.0 0.0 0.0 15.0" Properties=species:S:1:pos:R:3:forces:R:3 energy=-429.3612760178379 free_energy=-429.3612760178379 stress="-0.0057404139239663156 1.2436890829193762e-06 2.4242203390602615e-06 1.2436890829193762e-06 -0.006859019207850613 2.4476142471522155e-07 2.4242203390602615e-06 2.4476142471522155e-07 2.0494735153284653e-05" pbc="T T T"
C        0.03647478       0.00248848       3.97942443      -0.00809953      -0.00154908       0.00020289
C       -1.21058133       2.13043334       3.84431555      -0.00510314       0.00544814      -0.00160703
C       -2.44284908       4.26925490       4.05815992       0.00770298       0.00416469      -0.01703352
C       -3.65932510       6.41428939       4.20812006       0.00879901      -0.00419969       0.00104785
C       -4.90608641       8.54532933       4.11423454       0.00103683       0.00253494      -0.00814875
C        2.49900017      -0.01512896       3.93351517       0.00927849      -0.00592427       0.00545633
C        1.24014969       2.03294699       3.35774062      -0.00756804      -0.01036029       0.00865385
C       -0.21592594       4.27048400       3.11363371      -0.00261376      -0.00241359      -0.00680275
C       -1.27060641       6.42719513       3.70928424       0.00745198      -0.00423164       0.00626702
C       -2.42738830       8.53937418       4.06004771       0.00491657      -0.00299949      -0.00067903
C        4.96779425      -0.01398317       3.99353713      -0.00134977       0.00289923       0.01177819
C        3.76215360       2.02237143       3.46699566      -0.00143809       0.00170419       0.01006591
S        1.05360704       6.56570564       2.25520371       0.00497291      -0.01293366      -0.00519023
C        0.02614599       8.55008164       3.75629048      -0.01354291       0.00156325       0.00225029
C        7.43395341      -0.00505495       4.03297952       0.00004456      -0.00468594       0.00076792
C        6.20800349       2.12426576       3.97587031      -0.00563325      -0.00290758      -0.00344763
C        5.15488361       4.28256506       3.49221425      -0.00744947      -0.00034238      -0.00230890
S        3.84291218       6.43813620       2.64053653       0.00444373       0.00171299       0.01217446
C        2.49869772       8.59070890       3.57927216       0.00092838       0.00714832       0.00385954
C        9.90300440       0.00069316       4.02340705       0.00760409       0.00467418      -0.00627862
C        8.67138928       2.13186095       4.15592446       0.00557166       0.00182722      -0.00238059
C        7.45530113       4.27115467       4.19077927      -0.00143448      -0.00178793       0.00088333
C        6.24927258       6.42418592       3.95379213      -0.00639658       0.00283134      -0.00794833
C        4.97666868       8.55736231       3.84891987      -0.00272314       0.00164961      -0.00316713
C        0.02615854       1.41631706       3.75630148      -0.01348714      -0.00153150       0.00217215
C       -1.27058686       3.53921177       3.70933899       0.00780917       0.00420461       0.00648741
C       -2.44284200       5.69712251       4.05813491       0.00742383      -0.00375414      -0.01689008
C       -3.66507635       7.83452533       4.15588597       0.00566438      -0.00177620      -0.00215495
C       -4.90249799       9.97146285       4.03296838      -0.00000718       0.00442925       0.00082725
C        2.49870563       1.37567064       3.57909077       0.00099060      -0.00707528       0.00419476
S        1.05364754       3.40072789       2.25523341       0.00462257       0.01330985      -0.00487306
C       -0.21597569       5.69594960       3.11351304      -0.00280880       0.00204307      -0.00643803
C       -1.21059436       7.83596491       3.84426528      -0.00510451      -0.00542722      -0.00144926
C       -2.43346961       9.96569659       4.02333120       0.00786184      -0.00463850      -0.00623684
C        4.97666650       1.40902456       3.84879681      -0.00267515      -0.00147346      -0.00309817
S        3.84301883       3.52824145       2.64031944       0.00454275      -0.00172170       0.01233476
C        1.24015866       7.93345886       3.35778805      -0.00764652       0.01040510       0.00858462
C        0.03646816       9.96390449       3.97940601      -0.00805269       0.00157887       0.00015123
C        7.43036919       1.42107559       4.11421577       0.00099932      -0.00279302      -0.00802509
C        6.24929651       3.54220975       3.95374471      -0.00676944      -0.00298724      -0.00796435
C        5.15485409       5.68382047       3.49228497      -0.00717105       0.00030232      -0.00222917
C        3.76214387       7.94402022       3.46717514      -0.00154360      -0.00171281       0.01023642
C        2.49900192       9.98153780       3.93358995       0.00922405       0.00568822       0.00562492
C        9.90908656       1.42701860       4.06009663       0.00480210       0.00302379      -0.00058331
C        8.67712719       3.55209141       4.20812262       0.00899175       0.00445391       0.00130950
C        7.45529547       5.69524378       4.19077066      -0.00127983       0.00164712       0.00109091
C        6.20800243       7.84212977       3.97593245      -0.00561410       0.00283203      -0.00338246
C        4.96780720       9.98036856       3.99362027      -0.00154964      -0.00266759       0.01174857
Y        1.96855377       4.98341733       4.44141936       0.00860577      -0.00013383       0.00433698
O        0.91286260       4.98572807       5.93257895      -0.00722749      -0.00004815      -0.00418975
