51
Lattice="12.336457 0.0 0.0 -6.168228499999997 10.683685154694365 0.0 0.0 0.0 15.0" Properties=species:S:1:pos:R:3:initial_magmoms:R:1:forces:R:3 energy=-440.7136609617922 free_energy=-440.7136609617922 stress="-0.005620688521491049 0.0010312498298426615 1.770871169867566e-05 0.0010312498298426615 -0.000824870340500559 -1.1712817754008532e-05 1.770871169867566e-05 -1.1712817754008532e-05 4.337550972935665e-06" pbc="T T T"
C        0.00613324      -0.07588160       3.60875701       0.00000000      -0.00158286       0.00002887       0.00160717
C       -1.22840674       2.06429219       3.73060415       0.00000000      -0.00461673       0.00001187      -0.00877568
C       -2.49134830       4.20365795       3.78620683       0.00000000      -0.00054053       0.00036549      -0.00743870
C       -3.70278605       6.34835792       3.69266800       0.00000000       0.00135465       0.00099042      -0.00013681
C       -4.92008323       8.48604009       3.59552245       0.00000000      -0.00624168      -0.00323065       0.00490058
C        2.49501311      -0.05362052       3.60403088       0.00000000      -0.00341623      -0.00013581       0.00042062
C        1.25312072       2.05080551       3.71421409       0.00000000       0.00516063      -0.00248897      -0.00217733
C       -0.08316514       4.23784104       4.06402047       0.00000000      -0.00494511      -0.00086589      -0.00352004
C       -1.27327997       6.35641706       4.03030979       0.00000000       0.00050041      -0.00540952      -0.00898705
C       -2.45870357       8.48682947       3.75133520       0.00000000       0.00486241       0.00045586      -0.00925031
C        4.94851552      -0.06806465       3.62858698       0.00000000       0.00125845      -0.00085007      -0.00120087
C        3.75403467       2.04885567       3.55893278       0.00000000       0.00010045      -0.00274771      -0.00274574
B        1.10599972       6.47909738       4.71031954       0.00000000      -0.00114504      -0.00157140       0.00599801
C        0.00978574       8.49192255       3.90712872       0.00000000       0.00219527       0.00288978      -0.00185427
C        7.41952233      -0.08377965       3.63813105       0.00000000       0.00594420       0.00116658      -0.00010581
C        6.19606492       2.05687149       3.52020510       0.00000000      -0.00215544      -0.00424448       0.00465433
C        5.00351927       4.19822512       3.50754049       0.00000000      -0.00337992       0.00120818       0.00218990
N        3.77879022       6.34484763       3.65148813       0.00000000       0.01007100       0.00414042      -0.00110644
C        2.48365133       8.44330322       3.77558538       0.00000000       0.00205439       0.00161797       0.00050344
C        9.88040956      -0.08546977       3.61408149       0.00000000       0.00401040      -0.00524925       0.00173884
C        8.65014822       2.05840112       3.60989614       0.00000000       0.00257962       0.00040896       0.00280776
C        7.41338843       4.20837850       3.56554422       0.00000000       0.00020898       0.00088225      -0.00426808
C        6.18624973       6.34531130       3.53954269       0.00000000      -0.00338148       0.00384831       0.00295269
C        4.94571758       8.45575513       3.57409749       0.00000000      -0.00348864       0.00040478       0.00706937
C        0.00486537       1.34914309       3.68610701       0.00000000      -0.00068186       0.00026991      -0.00303270
C       -1.26852305       3.48500946       3.86483753       0.00000000      -0.00543217       0.00014281      -0.00290159
C       -2.49619941       5.63193878       3.83506367       0.00000000      -0.00041376      -0.00164923      -0.00273021
C       -3.69166260       7.77397775       3.67907237       0.00000000       0.00085242       0.00037150      -0.00004243
C       -4.91684136       9.91264452       3.59682220       0.00000000      -0.00479452      -0.00292236       0.00453817
C        2.51578923       1.37837458       3.61134483       0.00000000       0.00084446      -0.00113011       0.00309723
B        1.14280402       3.46731298       3.92291178       0.00000000       0.00347697      -0.00419098       0.00114447
C       -0.09306082       5.64232207       4.23972940       0.00000000      -0.00278038      -0.00201022       0.00347236
C       -1.24015662       7.78598765       3.93174627       0.00000000       0.00346843      -0.00509110      -0.00218740
C       -2.45161717       9.91289502       3.65452999       0.00000000      -0.00015050       0.00335089      -0.00160475
C        4.96173771       1.35743822       3.54009978       0.00000000      -0.00190198      -0.00297165       0.00656441
O        3.81675383       3.44597989       3.50692978       0.00000000       0.00091826      -0.00637170      -0.00514466
C        1.25292601       7.82061322       4.07484399       0.00000000       0.00142399       0.00397764      -0.00151202
C        0.01193367       9.90573946       3.70659529       0.00000000       0.00380853       0.00387836      -0.00388707
C        7.41630167       1.34626690       3.57065106       0.00000000       0.00233015      -0.00032504      -0.00379951
C        6.18963850       3.48475347       3.50108361       0.00000000      -0.00264159      -0.00271504       0.00311586
C        4.95220690       5.63136759       3.53971128       0.00000000      -0.00037912       0.00504759       0.00800973
C        3.73003965       7.70620725       3.65414972       0.00000000       0.00163724       0.00144864      -0.00023973
C        2.48423447       9.87375828       3.64861426       0.00000000       0.00523172      -0.00033497      -0.00187189
C        9.87914340       1.34294972       3.64303958       0.00000000      -0.00178147      -0.00369701       0.00424956
C        8.63445445       3.48656126       3.64004176       0.00000000       0.00163613       0.00160573       0.00364021
C        7.40548591       5.62856999       3.58452134       0.00000000      -0.00204986       0.00418481      -0.00101034
C        6.18320296       7.76473668       3.55982489       0.00000000      -0.00845484       0.00087947       0.00090605
C        4.94259586       9.88503501       3.59724926       0.00000000       0.00134545      -0.00284838       0.00592183
Zn       2.45802832       4.93841200       3.93602077       0.00000000       0.01625780       0.00865586       0.00429036
O        2.67750058       7.11309012       6.20794067       1.00000000      -0.00645710      -0.00016414       0.00280268
O        1.89091612       6.02797821       5.90474991       1.00000000      -0.01071959       0.01098274      -0.00506424
