51
Lattice="12.336457 0.0 0.0 -6.168228499999997 10.683685154694365 0.0 0.0 0.0 15.0" Properties=species:S:1:pos:R:3:initial_magmoms:R:1:forces:R:3 energy=-442.14253380790694 free_energy=-442.14253380790694 stress="-0.0008287257615747218 -0.00028797508604771474 -1.0705177459991443e-05 -0.00028797508604771474 -0.0004911558773668988 1.064351952262034e-05 -1.0705177459991443e-05 1.064351952262034e-05 2.3778869217314985e-05" pbc="T T T"
C        0.02257080      -0.04577496       3.92840429       0.00000000       0.00019829      -0.00080088      -0.00370525
C       -1.20369660       2.10929317       3.75274559       0.00000000       0.00156911      -0.00158995       0.00209477
C       -2.44186405       4.24149588       3.83332104       0.00000000       0.00110660       0.00279810      -0.00082425
C       -3.67343726       6.37203649       4.03384362       0.00000000      -0.00141108      -0.00114800      -0.00321014
C       -4.91455506       8.50375309       4.08324883       0.00000000      -0.00017012      -0.00164349      -0.00226890
C        2.49255631      -0.05682334       3.98232318       0.00000000      -0.00013744       0.00071165      -0.00105976
C        1.26614160       2.05071888       3.69008632       0.00000000      -0.00257043      -0.00562005       0.00240418
C        0.00973893       4.29526567       3.47940988       0.00000000      -0.00175016       0.00832113       0.00243688
C       -1.22311445       6.38942418       3.80374530       0.00000000      -0.00342688       0.00041400      -0.00517651
C       -2.43870207       8.50340063       4.02856205       0.00000000      -0.00055501      -0.00016066      -0.00137578
C        4.96389962      -0.04993392       3.94855325       0.00000000       0.00113613       0.00341743       0.00118175
C        3.72251532       2.05419320       3.77700089       0.00000000       0.00130997      -0.00319373      -0.00095439
N        1.07464053       6.49455770       3.13032649       0.00000000      -0.01676033       0.01654597      -0.00232364
C        0.01805301       8.50357869       3.83652920       0.00000000       0.00167769      -0.00024221       0.00389040
C        7.43687091      -0.05143990       3.85226419       0.00000000       0.00033865       0.00071355       0.00209582
C        6.19162803       2.11048875       3.86020511       0.00000000       0.00038765      -0.00091372      -0.00005532
C        4.96360660       4.30532088       3.79890567       0.00000000       0.00246565       0.00277661      -0.00068436
O        3.80241917       6.41303512       3.80525744       0.00000000       0.03434197       0.03515959      -0.00254038
C        2.51158276       8.45264637       3.70749354       0.00000000       0.00245413       0.00006970       0.00350345
C        9.89255745      -0.04925325       3.84800528       0.00000000       0.00014409       0.00293902       0.00196444
C        8.66264391       2.09875252       3.85265358       0.00000000      -0.00038143      -0.00105918       0.00175503
C        7.42759063       4.24099824       3.94331071       0.00000000      -0.00084921       0.00071480      -0.00086456
C        6.20003084       6.38452337       4.05221014       0.00000000       0.00316994       0.00379356      -0.00023615
C        4.95959685       8.50349860       3.96433136       0.00000000      -0.00067881       0.00371129      -0.00176749
C        0.03170278       1.38123579       3.78817240       0.00000000       0.00126420       0.00270136      -0.00125530
C       -1.19545787       3.54909649       3.68463249       0.00000000      -0.00189930       0.00033525       0.00034518
C       -2.44133850       5.66458374       3.90852683       0.00000000      -0.00078579      -0.00350156      -0.00176709
C       -3.67345438       7.79408040       4.07437479       0.00000000      -0.00048616       0.00231928      -0.00347677
C       -4.91360111       9.92732684       4.01483081       0.00000000       0.00079221      -0.00018503      -0.00332826
C        2.49311149       1.36028227       3.82459665       0.00000000       0.00078611       0.00297613      -0.00085581
B        1.29228168       3.51526727       3.34786330       0.00000000      -0.00080572      -0.00351484      -0.00074568
C       -0.01434062       5.71727111       3.48689282       0.00000000       0.00087535      -0.00579351      -0.00106730
C       -1.20768851       7.79974023       3.89651644       0.00000000      -0.00161727       0.00157205      -0.00291242
C       -2.43665788       9.92539193       4.00982946       0.00000000      -0.00010858      -0.00110412       0.00218452
C        4.95551526       1.37934701       3.87290526       0.00000000       0.00018515      -0.00186036      -0.00104243
B        3.70705039       3.52630669       3.50979043       0.00000000       0.00069035      -0.00626927      -0.00526591
C        1.22934133       7.75571143       3.64930649       0.00000000       0.00008057       0.00258070       0.00295481
C        0.03082905       9.91843581       3.89578767       0.00000000       0.00086455      -0.00105910       0.00604869
C        7.42705456       1.38396063       3.86668068       0.00000000       0.00043941       0.00039518       0.00258668
C        6.18108641       3.54943498       3.86834170       0.00000000      -0.00031655       0.00322583      -0.00066139
C        4.98865335       5.70134613       3.92373625       0.00000000      -0.00574890      -0.00421627       0.00319276
C        3.75964722       7.80199704       3.79991384       0.00000000      -0.00389936      -0.00595393       0.00214900
C        2.49873383       9.89465162       3.80743869       0.00000000      -0.00059757      -0.00202479       0.00227915
C        9.89998691       1.38924712       3.82314479       0.00000000      -0.00076411      -0.00031592       0.00148360
C        8.66475543       3.52465758       3.88632408       0.00000000      -0.00092199       0.00023615       0.00096253
C        7.43122961       5.65940197       4.02873230       0.00000000       0.00020180      -0.00309890      -0.00035586
C        6.19474572       7.80039720       4.06354296       0.00000000       0.00304703       0.00040817      -0.00173733
C        4.95612590       9.93179751       3.92016593       0.00000000       0.00116343      -0.00049715      -0.00122774
Zn       2.28265410       5.88178988       1.76054070       0.00000000      -0.00057638       0.01702850      -0.10007588
O        1.35507875       6.82768356       5.65147677       1.00000000      -0.00164578      -0.01195777      -0.05564572
O        2.53486767       4.04359447       2.90163576       1.00000000      -0.01182566      -0.04814064       0.16295413
