52
Lattice="12.336457 0.0 0.0 -6.168228499999997 10.683685154694365 0.0 0.0 0.0 15.0" Properties=species:S:1:pos:R:3:forces:R:3 energy=-440.6242193918252 free_energy=-440.6242193918252 stress="-0.003890815311857426 -0.0017802359571642045 -1.938115968320361e-05 -0.0017802359571642045 -0.007336426547107651 1.9373085170199658e-05 -1.938115968320361e-05 1.9373085170199658e-05 1.0381235278763636e-05" pbc="T T T"
C       -0.01382365      -0.04610033       3.81824900       0.00422051      -0.00064879      -0.00064964
C       -1.25131961       2.09570732       3.85068005      -0.00055298      -0.00007277       0.00143562
C       -2.49762117       4.23671165       3.73028886       0.00307712      -0.00342583      -0.00099421
C       -3.71946630       6.37376059       3.68392330      -0.00713782       0.00509691      -0.00939327
C       -4.94276912       8.50458372       3.73192834      -0.00566853       0.00544458      -0.00440927
C        2.45710434      -0.08503129       3.65408692       0.00854735      -0.00309804       0.00026791
C        1.25476291       2.02110978       3.93964127      -0.00867334       0.00165046       0.00609209
C       -0.07088682       4.27049332       4.00113790       0.00067516      -0.00699693       0.00873663
C       -1.27960844       6.39341261       3.83738451       0.00267993       0.00311949       0.00784041
C       -2.47345672       8.50249106       3.69292581      -0.00443211       0.00476617      -0.00753155
C        4.92488249      -0.04411276       3.56985084       0.00281035      -0.00226629       0.00172875
C        3.65702144       2.02691170       3.34208849       0.00288738      -0.00593230       0.00356383
B        1.14362537       6.42500908       4.40922863      -0.00814318       0.00665816       0.00449648
C       -0.01430198       8.52787455       3.87029028      -0.00973109       0.00095845      -0.01030328
C        7.38962683      -0.02588499       3.70895137      -0.00916793       0.00009870      -0.00257900
C        6.14232641       2.11219149       3.47031124       0.00292959       0.00635407       0.00326385
C        4.91858142       4.31795246       3.46938326      -0.00703839      -0.00307543       0.01017588
N        3.77824442       6.41545432       4.09004577       0.01147908      -0.00665173      -0.00558305
C        2.47289995       8.52517495       4.00037234       0.00303939      -0.00244903       0.00175946
C        9.85549025      -0.02998284       3.81529907       0.00293153       0.00753432      -0.00722228
C        8.61428796       2.10571287       3.67060197       0.00496190      -0.00699925       0.00308573
C        7.37232010       4.24664532       3.60293357      -0.00042135      -0.00402522       0.00276989
C        6.16683152       6.40102768       3.71981972      -0.00921792       0.00027800      -0.00097905
C        4.93147324       8.51374778       3.85255621       0.00238633       0.00266741       0.00741764
C       -0.01192869       1.37686755       3.89237209      -0.00742930      -0.00195443       0.00130917
C       -1.26336697       3.51739990       3.84207497       0.00093264      -0.00393260       0.00653500
C       -2.49885461       5.66242026       3.72446660      -0.00008697       0.00282549      -0.00327406
C       -3.70964973       7.79347554       3.69610583      -0.00676525       0.00932458      -0.00505331
C       -4.95084391       9.91738635       3.74541630       0.00759344       0.00282809       0.00800259
C        2.45911125       1.31894896       3.63443579      -0.00370887      -0.00304300       0.00205863
P        1.52375136       3.68285539       4.39935427       0.00934430       0.00971416       0.00175934
C       -0.08390114       5.68380030       4.04282064       0.00136283      -0.00603810       0.00571377
C       -1.24353424       7.80653840       3.80064063      -0.00725461       0.00413569      -0.00294726
C       -2.47051432       9.91444648       3.62149682       0.00675560       0.00034642       0.00459055
C        4.91562104       1.38212703       3.42403181       0.00671147      -0.00322439       0.01590184
P        3.37538579       3.69018543       2.82468832       0.00628993       0.00880946      -0.00086712
C        1.22768631       7.85469409       4.09356526      -0.00587764       0.00365350      -0.01246149
C       -0.01330809       9.94567776       3.70512071      -0.00661031      -0.00530028      -0.00976383
C        7.37751368       1.39960797       3.60145159      -0.00067199       0.00193660       0.00868831
C        6.12189094       3.55135566       3.49839215      -0.00329011       0.00609438      -0.01162981
C        4.92170793       5.72933479       3.75226261       0.00091950      -0.00544843      -0.01105891
C        3.71583109       7.77816708       3.99640871       0.00760940      -0.00853412      -0.00484172
C        2.46058362       9.94289739       3.83259374      -0.00217772       0.00564274       0.00668664
C        9.85178010       1.39370624       3.77355871       0.00597659       0.00269859      -0.00848386
C        8.60610886       3.53085233       3.65365019       0.00351352      -0.00969851       0.00349302
C        7.38246539       5.66744864       3.65819473      -0.00918118      -0.00107898      -0.00207626
C        6.16145919       7.80873441       3.77580136      -0.00391393       0.00135054       0.00329943
C        4.91993546       9.93407517       3.83539965       0.00326647       0.00376126      -0.00850408
Zn       2.57735318       5.36513544       5.51251921       0.00879910      -0.00581707       0.01041120
O        3.62165020       5.92507966       6.96290093      -0.00556742      -0.00580188      -0.01009619
O        2.62445440       5.78689070       8.04503728       0.01585041      -0.00243294      -0.00170927
H        3.10736698       5.14635349       8.59683368      -0.00483085       0.00019814       0.00132814
