52
Lattice="12.336457 0.0 0.0 -6.168228499999997 10.683685154694365 0.0 0.0 0.0 15.0" Properties=species:S:1:pos:R:3:forces:R:3 energy=-438.5805401302421 free_energy=-438.5805401302421 stress="0.00044412726299807937 -0.0032167895748079858 3.125907088696352e-05 -0.0032167895748079858 -0.005424790548058503 -3.211877751708914e-05 3.125907088696352e-05 -3.211877751708914e-05 -4.649448613182495e-05" pbc="T T T"
C        0.03776068      -0.01946128       3.73901925       0.00242744       0.00678843       0.01111499
C       -1.21176981       2.11753233       3.69092425       0.00760814      -0.00075670      -0.00562085
C       -2.43316077       4.26491951       3.73584177      -0.00189867      -0.00798639       0.00702837
C       -3.65455424       6.39116756       3.82644529       0.00302957      -0.00291964      -0.00077783
C       -4.89261064       8.52290580       3.83240430       0.00206859       0.00753733      -0.00174223
C        2.49373187      -0.01482804       3.77228748       0.00101678       0.00520847       0.00164005
C        1.22342793       2.09440644       3.73178555       0.00627089      -0.00484003      -0.00134178
C        0.00948607       4.17801465       3.85618657       0.00457148      -0.00310034      -0.01142699
C       -1.14449603       6.35998652       3.89792873      -0.00784173       0.00067217       0.00824538
C       -2.41069570       8.51624221       3.87149413       0.00003652      -0.00005616       0.01387427
C        4.96282453      -0.01153543       3.73562732      -0.00513550      -0.00201022       0.00278267
C        3.69972793       2.09322860       3.40847319      -0.00761868      -0.00617698      -0.00937030
P        1.68914424       6.22217875       4.38228553       0.01281450       0.00612700      -0.00009956
C        0.04680945       8.54339017       3.96577556       0.00887486       0.00402309       0.00694555
C        7.41951266       0.02197098       3.73725758       0.00428415      -0.00216131       0.00283940
C        6.18145261       2.13768633       3.54363130      -0.00539460       0.00721558       0.00603067
C        4.98552127       4.28908930       3.45810650      -0.00019432      -0.00368002      -0.00829480
B        3.58359748       6.40371491       3.86613306      -0.00539728       0.00145901      -0.00416290
C        2.51538482       8.62653029       3.88020540       0.00282241      -0.00618205       0.00895575
C        9.90540448       0.01743917       3.70799475      -0.00214783      -0.00518057      -0.00493089
C        8.65479958       2.14174173       3.64906645       0.00067987       0.00283597       0.00615786
C        7.43092718       4.27100802       3.67922370      -0.00053268       0.00757585      -0.00259866
C        6.18596583       6.39959268       3.80304700      -0.00253438      -0.00466721      -0.00151916
C        4.97749428       8.55311796       3.78582481      -0.00259811       0.00137965      -0.00193519
C        0.02314928       1.40459590       3.71118074       0.00575232       0.00084777      -0.00919051
C       -1.20958421       3.52654368       3.72763086       0.00145916      -0.00368456       0.00381906
C       -2.40561421       5.67878224       3.81725194      -0.00394442      -0.00685293      -0.00080958
C       -3.65171658       7.81218909       3.85648196       0.00035213      -0.00040390      -0.01009478
C       -4.89767291       9.95084097       3.79519365       0.00176891       0.01199972       0.01253502
C        2.46993600       1.41184416       3.65521715      -0.00032897      -0.00281814      -0.00641010
O        1.18551168       3.44954580       3.97416429       0.00309430      -0.00852880      -0.00926440
C        0.07906794       5.57567625       3.93240173      -0.00722262      -0.00056371       0.00095450
C       -1.16870899       7.79672405       3.92966305       0.00432640       0.00494886      -0.00090159
C       -2.43085226       9.94827618       3.80488039      -0.00517344      -0.00166865      -0.00892440
C        4.94494557       1.41642018       3.55140214      -0.00698544      -0.00003122      -0.00451947
P        3.62684563       3.63996474       2.59623587       0.00224263      -0.00618009       0.00198880
C        1.31121922       7.90953418       4.08068617       0.00576924      -0.00255433      -0.00080554
C        0.02860521       9.97357773       3.81845238       0.00314822       0.00252271      -0.00398144
C        7.41544649       1.43652971       3.63614499      -0.00196805       0.00327111       0.00230235
C        6.20048418       3.55524478       3.54784720       0.00034178       0.00784673      -0.00623179
C        4.93431606       5.68579898       3.72440639      -0.00787999      -0.00582187       0.00198313
C        3.72837902       7.90037793       3.81785117      -0.00002067       0.00009038       0.00445340
C        2.49607905      10.02710536       3.76249703       0.00043438      -0.01023344       0.00066514
C        9.89733069       1.43176191       3.67012862       0.00495184      -0.00277540      -0.00195508
C        8.66213160       3.56174952       3.67975736      -0.00517419       0.00277374       0.00422852
C        7.43381532       5.69178813       3.77546287       0.00443693       0.00301824      -0.00162928
C        6.20775795       7.82151432       3.82073709       0.00025828      -0.00017233      -0.00455711
C        4.97118531       9.97570949       3.74065524       0.00163495       0.00195196      -0.00572134
Zn       2.27338706       5.57761420       6.41899341      -0.00194625       0.00203250       0.00365617
O        2.92922662       4.56665008       7.79688683       0.00233101       0.00143419       0.00484584
O        2.10941846       5.68923470       8.44408286      -0.01626914       0.00136148       0.00553909
H        2.85866792       6.08024040       8.92015338      -0.00060069       0.00708504       0.00623155
