50
Lattice="12.336457 0.0 0.0 -6.168228499999997 10.683685154694365 0.0 0.0 0.0 15.0" Properties=species:S:1:pos:R:3:forces:R:3 energy=-428.9784716308811 free_energy=-428.9784716308811 stress="0.0020062225009425377 -5.489478586664924e-07 -3.852375922288328e-05 -5.489478586664924e-07 -0.014901738868902403 -1.6664997523098836e-06 -3.852375922288328e-05 -1.6664997523098836e-06 6.172460897576058e-06" pbc="T T T"
C       -0.00586197      -0.02362959       3.52196503      -0.00167629       0.00105001      -0.01467735
C       -1.21535409       2.15582921       3.60627661       0.00240688      -0.00089289      -0.00074215
C       -2.43972310       4.27543876       3.68921897       0.00127671      -0.00053544       0.00152858
C       -3.69638482       6.38607994       3.65509572       0.00465903       0.00215526      -0.00281388
C       -4.95212903       8.50212998       3.58158597      -0.00883847      -0.00279230      -0.00981188
C        2.46142516      -0.10214990       3.51813017      -0.00219244      -0.00268166      -0.00681471
C        1.24938754       2.03494560       3.66798663       0.00686249      -0.00069612      -0.00189014
C        0.07138635       4.27598765       3.81819453      -0.00630193       0.00172282       0.00417091
C       -1.18602284       6.39600001       3.70797093      -0.00334826       0.00064858       0.01265139
C       -2.45922201       8.49676534       3.55527851       0.00351942       0.00558902      -0.00748231
C        4.92798752      -0.02682679       3.57080952       0.00305050       0.01148945      -0.01057241
C        3.65949288       1.98164821       3.90262586      -0.00589282      -0.00016923       0.00456303
B        1.40426124       6.45819804       3.89125681      -0.01426014       0.00300495       0.00834315
C        0.00037138       8.56359206       3.56517460       0.00589906      -0.00340116       0.00378120
C        7.38342196       0.05421863       3.51218310      -0.00360196       0.00144333      -0.00028169
C        6.14438856       2.14208189       3.69503230      -0.00548252       0.00877689       0.01194096
C        4.91095079       4.28154419       3.88490595       0.00384016       0.00076939      -0.00014388
P        3.31498491       6.34759929       4.38795323      -0.00597417       0.00453299      -0.01045982
C        2.45305285       8.67559062       3.65820061      -0.00103145       0.00635636       0.00763975
C        9.87543050       0.05648892       3.52874366       0.00602326      -0.00925645       0.00022907
C        8.63267306       2.16901218       3.59198325      -0.00297194      -0.00310087      -0.00900792
C        7.38667497       4.27472282       3.69366060       0.00685842       0.00170969       0.00743049
C        6.14047807       6.40883985       3.75074631       0.00702557      -0.00606839       0.00460979
C        4.92133912       8.57508050       3.72164138      -0.00354617      -0.01076435       0.00846473
C        0.00043384       1.40272448       3.56722614       0.00564836       0.00323012       0.00157564
C       -1.18609558       3.57034204       3.70866543      -0.00195129      -0.00071831       0.01238202
C       -2.43972618       5.69096113       3.68911142       0.00119448      -0.00054852      -0.00054344
C       -3.70389415       7.79724224       3.59108396      -0.00115264       0.00371190      -0.00591903
C       -4.95291155       9.91213896       3.51287581      -0.00605237      -0.00110662       0.00127219
C        2.45300417       1.29063038       3.66170759       0.00053281      -0.00654252       0.00811163
B        1.40409685       3.50818001       3.89348881      -0.01310145      -0.00338865       0.00705464
C        0.07147799       5.69030375       3.81754635      -0.00774789       0.00033343       0.00289681
C       -1.21540898       7.81051595       3.60538720       0.00332249       0.00004749      -0.00177088
C       -2.46094602       9.90990892       3.53051544       0.00378583       0.00779692      -0.00233344
C        4.92137111       1.39122623       3.72370690      -0.00359622       0.01032849       0.00980055
P        3.31493132       3.61904400       4.38909755      -0.00387532      -0.00251331      -0.00795471
C        1.24941172       7.93133102       3.66494845       0.00587847      -0.00054810      -0.00255652
C       -0.00596059       9.98999099       3.52112083      -0.00062427      -0.00063281      -0.01291279
C        7.38436931       1.46415766       3.58234698      -0.00960001       0.00323763      -0.01098399
C        6.14055852       3.55744463       3.75164316       0.00649613       0.00572897       0.00571737
C        4.91081578       5.68484031       3.88370142       0.00512829      -0.00319432       0.00347889
C        3.65943968       7.98433772       3.89890432      -0.00719608       0.00254475       0.00709280
C        2.46132553      10.06850959       3.51570498       0.00006307       0.00214841      -0.00656982
C        9.87733269       1.46959638       3.55523541       0.00201417      -0.00676257      -0.00672912
C        8.64017462       3.58017338       3.65564756       0.00301196      -0.00125792      -0.00282088
C        7.38660814       5.69145938       3.69337745       0.00797630       0.00022456       0.00640199
C        6.14434283       7.82421098       3.69391665      -0.00493370      -0.00869436       0.00999845
C        4.92793883       9.99323365       3.56943143       0.00424378      -0.01273404      -0.00973695
Zn       2.80715218       4.98559199       6.43956502       0.00971682       0.00040715      -0.00129458
O        2.94357976       4.99123758       8.16536364       0.01451536       0.00001234      -0.00431173
