52
Lattice="12.336457 0.0 0.0 -6.168228499999997 10.683685154694365 0.0 0.0 0.0 15.0" Properties=species:S:1:pos:R:3:forces:R:3 energy=-437.65786437691986 free_energy=-437.65786437691986 stress="0.004107409778807511 0.0007369218037134864 -5.5379217890304205e-06 0.0007369218037134864 -0.004375187653381746 -1.256371924986453e-05 -5.5379217890304205e-06 -1.256371924986453e-05 -2.375877232152524e-05" pbc="T T T"
C        0.00611848      -0.06961285       3.95486969       0.00032090       0.00111743       0.00459841
C       -1.20573857       2.09619988       4.04502318      -0.00679612       0.01102587      -0.00052148
C       -2.43619776       4.21622441       3.97475574       0.00299976      -0.00462685       0.00756847
C       -3.69420002       6.33489435       3.85848065      -0.00217909       0.00585954       0.01579574
C       -4.94968505       8.45490486       3.81943145      -0.00012567      -0.00101027      -0.00255990
C        2.46871653      -0.12836923       4.00131278       0.00554978      -0.00624068      -0.00223443
C        1.26937787       2.02607009       4.09618871      -0.00320517       0.00162623      -0.00346236
C        0.09157135       4.23378785       3.88669763       0.00182545      -0.00954710      -0.00440870
C       -1.22484250       6.34440439       3.67060638      -0.00323123      -0.00327456      -0.00509846
C       -2.45774056       8.45970302       3.81010346      -0.00163112       0.00996693       0.00533245
C        4.93613463      -0.07260883       3.95413167       0.00546339      -0.00288935       0.00300346
C        3.67757070       2.02060169       4.10215989       0.00277953      -0.00444946      -0.00041883
P        1.18168622       6.33704106       2.42229350       0.00032103       0.00043428      -0.01537161
C        0.00399353       8.51203781       3.57861374      -0.00346322       0.00545190      -0.00087472
C        7.39899529      -0.02601307       3.88917707      -0.00518494      -0.00022130       0.00529589
C        6.15681542       2.08892392       4.05863640       0.00129160      -0.00456887       0.01303102
C        4.86680749       4.22192481       3.92567509      -0.00275221       0.00452332       0.00712063
S        3.67977592       6.29863339       2.66508477       0.00417480      -0.00375278      -0.00416117
C        2.46680488       8.57934223       3.42397799       0.00001032      -0.00373795      -0.00343287
C        9.87924852      -0.02682816       3.89091076       0.00018166      -0.00265121       0.00467601
C        8.64399054       2.09683517       4.03984958       0.00054314      -0.00691931       0.00612067
C        7.39095036       4.21348722       3.98997658       0.00143117       0.00051006      -0.00523831
C        6.16640965       6.33996127       3.69793945      -0.00183430       0.00205083      -0.00441192
C        4.93368099       8.50648776       3.61719700       0.00595582      -0.00422807       0.00374243
C        0.01871795       1.36205873       4.04642326      -0.00883203       0.00623576       0.00555072
C       -1.17244638       3.51831758       4.00153483       0.00221930       0.00283248      -0.00109228
C       -2.45173723       5.63186032       3.86111382      -0.00433166      -0.00349167      -0.00093925
C       -3.70092569       7.75169377       3.82664942      -0.00031160       0.00572996      -0.00154447
C       -4.94193824       9.87470941       3.92551890       0.00343619      -0.00322199      -0.00133064
C        2.47186903       1.28696845       4.08867292      -0.00002507      -0.00221526      -0.00546700
B        1.49866464       3.52767092       4.11043138      -0.00912217       0.01310993      -0.00692270
C       -0.00442459       5.60858574       3.52731617       0.00159062      -0.00933650       0.00680524
C       -1.22338500       7.76763662       3.65672150      -0.00553989       0.00720731      -0.00236425
C       -2.45921124       9.87479950       3.92410621       0.00695115       0.00546315      -0.00653845
C        4.92932268       1.35760077       4.05556118       0.00519713      -0.00862446       0.00270152
B        3.45719058       3.52534106       4.11994437      -0.00519223       0.01076463       0.00514247
C        1.23479362       7.88729268       3.24687676      -0.00295269      -0.00354892      -0.00194597
C        0.00056309       9.92897443       3.82533132      -0.00092924       0.00350437      -0.01365482
C        7.39940803       1.38981942       4.01999894      -0.00131648      -0.00348822       0.00000993
C        6.13062041       3.51094672       4.02443073      -0.00222663      -0.00185796       0.00726091
C        4.97211426       5.58512448       3.55779601       0.00473707      -0.00130465      -0.01118807
C        3.70385870       7.90315727       3.30003943       0.00558474      -0.00527915       0.00965006
C        2.47136794       9.96809217       3.76605465      -0.00412628       0.00116033      -0.00461119
C        9.88653937       1.39254708       4.01473336       0.00103863       0.00062176       0.00161210
C        8.64658294       3.51529981       4.02851378       0.00337507      -0.00630258      -0.00072628
C        7.40083676       5.62856589       3.87594371      -0.00237194       0.00530869      -0.00737092
C        6.15307313       7.75978882       3.67995006       0.00131879      -0.00028107       0.00031605
C        4.94025622       9.92836845       3.83540862       0.00309515      -0.00227603      -0.00495420
Zn       2.47465294       4.79760918       5.39322469       0.00055327       0.00184128       0.00295662
O        2.64824450       6.37070768       6.34128017       0.00052870       0.00614720       0.00320041
O        2.23818130       5.34573766       7.38719714       0.00527420      -0.01234834       0.00614772
H        3.06274961       5.35975078       7.90097757      -0.00006738       0.00920130      -0.00479372
