51
Lattice="12.336457 0.0 0.0 -6.168228499999997 10.683685154694365 0.0 0.0 0.0 15.0" Properties=species:S:1:pos:R:3:initial_magmoms:R:1:forces:R:3 energy=-432.8628939116068 free_energy=-432.8628939116068 stress="0.0030696056421074167 0.0009473800549368474 -2.925997773028086e-05 0.0009473800549368474 -0.004989313413033724 -9.729837699897401e-06 -2.925997773028086e-05 -9.729837699897401e-06 -1.258340625972079e-05" pbc="T T T"
C       -0.00320520      -0.03293760       3.81537145       0.00000000       0.00138695       0.00071519      -0.00375466
C       -1.21570116       2.13291170       3.91691677       0.00000000       0.00236798      -0.00308972       0.00211060
C       -2.44513726       4.25353129       3.86300705       0.00000000       0.00208935       0.00330237      -0.00197372
C       -3.70147184       6.37280080       3.74587513       0.00000000      -0.00599632      -0.00146986       0.00634530
C       -4.95772498       8.49202182       3.68894069       0.00000000      -0.00569619      -0.00017694       0.00099948
C        2.45970189      -0.09076147       3.85536954       0.00000000       0.00343795       0.00529399       0.00287449
C        1.25917790       2.06086189       3.96695804       0.00000000      -0.00003956       0.00646299       0.00007246
C        0.07753773       4.27214955       3.77053908       0.00000000      -0.00306366       0.00187506      -0.00331997
C       -1.23434796       6.38225884       3.54744032       0.00000000      -0.00267010       0.00064192      -0.00059826
C       -2.46722615       8.49826482       3.67159819       0.00000000      -0.00251206      -0.00092186      -0.00393664
C        4.92740627      -0.03502470       3.81534590       0.00000000       0.00288857       0.00213901       0.01090349
C        3.66986489       2.05424818       3.99328765       0.00000000       0.00285121       0.00429673       0.00323636
P        1.16732095       6.36768446       2.29937780       0.00000000      -0.00061017       0.00985785      -0.00982745
C       -0.00748168       8.55149974       3.43420226       0.00000000      -0.00044970      -0.00572863       0.00129870
C        7.38964927       0.01238908       3.74875896       0.00000000      -0.00089302      -0.00958427       0.01258293
C        6.15084247       2.12285942       3.96092856       0.00000000       0.00397895       0.00189350      -0.00201864
C        4.86802547       4.25603265       3.87383312       0.00000000      -0.00510292       0.00340985      -0.00596101
S        3.64716654       6.30624257       2.64428285       0.00000000       0.00090951      -0.00198858       0.00187925
C        2.45557966       8.61700092       3.29608137       0.00000000      -0.00009471       0.00070478      -0.00636808
C        9.87022457       0.00993016       3.75510815       0.00000000      -0.00056196      -0.00067652      -0.00317010
C        8.63608622       2.13244587       3.92322132       0.00000000       0.00290113      -0.00099208       0.00111719
C        7.38679310       4.25045126       3.90011670       0.00000000      -0.00243377      -0.00566652       0.00360996
C        6.15930753       6.37642378       3.61329796       0.00000000       0.00186980      -0.00542517      -0.00410807
C        4.92487139       8.54079839       3.50304278       0.00000000      -0.00435076      -0.00233611      -0.00518056
C        0.00865393       1.39796730       3.91000868       0.00000000       0.00276371       0.00006409       0.00920587
C       -1.18461534       3.55492443       3.88264649       0.00000000       0.00048614      -0.00186993       0.00329343
C       -2.46005745       5.66942234       3.74566815       0.00000000      -0.00312368       0.00449300       0.00472098
C       -3.70926156       7.78955310       3.69835271       0.00000000      -0.00606093      -0.00083777       0.00131822
C       -4.95069047       9.91209148       3.78358513       0.00000000       0.00226634       0.00259670      -0.00115412
C        2.46280790       1.32363556       3.95627913       0.00000000       0.00106951       0.00764904      -0.00768622
B        1.47184195       3.56275495       4.01275496       0.00000000      -0.00828409       0.00207755       0.00774313
C       -0.01451033       5.64507430       3.41015867       0.00000000      -0.00093576       0.00229312      -0.00172364
C       -1.23380403       7.80576704       3.51971553       0.00000000      -0.00214629      -0.00130702      -0.00370587
C       -2.46838935       9.91336552       3.77955300       0.00000000       0.00276219       0.00162948      -0.00076636
C        4.92181924       1.39214781       3.94167886       0.00000000       0.00370138       0.00498923      -0.00452214
B        3.46535775       3.55913369       4.05594271       0.00000000       0.01181020      -0.00022934      -0.01470023
C        1.22400043       7.92360612       3.11367630       0.00000000       0.00180518      -0.00084775       0.00026170
C       -0.00891109       9.96834972       3.67913245       0.00000000      -0.00226896      -0.00638232       0.00108794
C        7.39161759       1.42544199       3.90112857       0.00000000       0.00355554      -0.00565635       0.00023528
C        6.13058546       3.54469148       3.95137909       0.00000000      -0.00575044       0.00183781      -0.00415556
C        4.96557450       5.61709295       3.50653658       0.00000000      -0.00036136       0.00331167      -0.00167237
C        3.69153815       7.93316570       3.20835542       0.00000000      -0.00309122      -0.00170543      -0.00783477
C        2.46159565      10.00786601       3.62552583       0.00000000       0.00016414      -0.00341851       0.00036162
C        9.87773725       1.42871151       3.88589201       0.00000000       0.00167826      -0.00158697       0.00068807
C        8.63995144       3.55123708       3.92206033       0.00000000       0.00277888       0.00079399       0.00882654
C        7.39515835       5.66580574       3.78012074       0.00000000      -0.00113270      -0.00803951       0.00224305
C        6.14417331       7.79485835       3.56931477       0.00000000      -0.00523144      -0.00444199       0.00307024
C        4.93103883       9.96516734       3.70090348       0.00000000      -0.00124915      -0.00137689       0.00355995
Zn       2.44405691       4.77539395       5.38232596       0.00000000       0.00223166      -0.00001539       0.00670451
O        2.72174376       4.89718577       8.02870779       1.00000000       0.00340819       0.01041466       0.00039590
O        2.42980551       5.70373131       7.03641913       1.00000000       0.00894817      -0.00697218      -0.00260818
