51
Lattice="12.336457 0.0 0.0 -6.168228499999997 10.683685154694365 0.0 0.0 0.0 15.0" Properties=species:S:1:pos:R:3:initial_magmoms:R:1:forces:R:3 energy=-436.01870115225483 free_energy=-436.01870115225483 stress="-0.0044481681174067455 -0.0021896074193008485 -2.0313804244723695e-05 -0.0021896074193008485 -0.007798281841665423 2.2351409476637727e-06 -2.0313804244723695e-05 2.2351409476637727e-06 4.146657577306073e-06" pbc="T T T"
C       -0.02903365      -0.05850590       3.72521496       0.00000000      -0.00252947       0.00760658      -0.00255208
C       -1.26855919       2.08200797       3.79075558       0.00000000      -0.00352460      -0.00156882      -0.00001944
C       -2.51387483       4.22413778       3.66686212       0.00000000       0.00341555      -0.00206818       0.00669305
C       -3.73238782       6.36293395       3.58583806       0.00000000      -0.00203839      -0.00012359       0.00576365
C       -4.95678980       8.49447311       3.62287532       0.00000000      -0.00164576       0.00146651       0.00278664
C        2.44219223      -0.09507549       3.56376139       0.00000000      -0.00163919      -0.00024503       0.00317672
C        1.23627803       2.00429888       3.89299895       0.00000000      -0.00696713      -0.00605786      -0.00419498
C       -0.09518095       4.25387217       4.00048787       0.00000000       0.00318773      -0.00285497      -0.00157761
C       -1.29574599       6.38107041       3.77716357       0.00000000      -0.00501333      -0.00214811      -0.00113274
C       -2.48806790       8.49126010       3.59425989       0.00000000       0.00388502       0.00064084      -0.01249399
C        4.90875204      -0.05393573       3.48235624       0.00000000       0.00825315      -0.00438317       0.00329131
C        3.64043701       2.02019087       3.28903486       0.00000000      -0.00152196       0.00187944       0.00476060
B        1.11408744       6.42850760       4.35533714       0.00000000       0.00264487      -0.00362663       0.00211338
C       -0.03106756       8.51789401       3.78273684       0.00000000       0.00000401      -0.00370907      -0.00090220
C        7.37372599      -0.03819226       3.62077759       0.00000000       0.00490333      -0.00113221      -0.00568342
C        6.12680430       2.10191773       3.39737978       0.00000000      -0.00073087      -0.00121714       0.00771581
C        4.90387449       4.30695293       3.42301480       0.00000000       0.00162479       0.00040938       0.00078055
N        3.78790996       6.41354918       4.06882916       0.00000000      -0.00771144      -0.00314409      -0.00541031
C        2.46018028       8.51309647       3.92112823       0.00000000      -0.00468380       0.00363940       0.00318324
C        9.83995038      -0.04252555       3.72267376       0.00000000       0.00336857       0.00271834       0.00200097
C        8.59894375       2.09278670       3.59215147       0.00000000      -0.00256368       0.00881437       0.00126885
C        7.35868023       4.23530515       3.52220535       0.00000000      -0.00380280       0.00254212       0.00488644
C        6.15648208       6.39241015       3.63072265       0.00000000      -0.00029199      -0.00640133      -0.00821126
C        4.91859188       8.50375506       3.75878816       0.00000000       0.00242312      -0.00194878      -0.00257307
C       -0.02968368       1.36207092       3.82561295       0.00000000      -0.00575821       0.00322913      -0.00306685
C       -1.28286713       3.50359761       3.80438858       0.00000000       0.00254892      -0.00525869       0.00923299
C       -2.51335769       5.65054830       3.65079527       0.00000000      -0.00334337      -0.00319021      -0.00703142
C       -3.72367165       7.78276695       3.59056680       0.00000000       0.00081628       0.00224519      -0.00443269
C       -4.96533919       9.90654471       3.64533741       0.00000000      -0.00488593       0.00369598       0.00081011
C        2.44241226       1.30881339       3.57060897       0.00000000      -0.00442143      -0.00038635       0.00290533
P        1.48652594       3.64518268       4.42188095       0.00000000       0.00010104      -0.00051259      -0.00559863
C       -0.10538448       5.67020857       4.01561360       0.00000000      -0.00473532      -0.00253492      -0.00104865
C       -1.25894265       7.79464056       3.71675777       0.00000000       0.00020350      -0.00160609      -0.00375097
C       -2.48559650       9.90381281       3.52588601       0.00000000       0.00415534       0.00109069       0.00470702
C        4.89946739       1.37369275       3.35418590       0.00000000      -0.00007038      -0.00340664       0.00520403
P        3.35328552       3.68713676       2.79504662       0.00000000       0.00594946       0.00870567      -0.00419686
C        1.21142894       7.84689593       4.01515870       0.00000000      -0.00333599       0.00317734       0.00028700
C       -0.02982142       9.93460082       3.61287388       0.00000000       0.00761002      -0.00523920       0.00053948
C        7.36207802       1.38755930       3.51978002       0.00000000       0.00058092       0.00170946       0.00622803
C        6.10746893       3.54057449       3.43069046       0.00000000       0.00013564       0.00100113      -0.01212140
C        4.91799002       5.71982752       3.69936635       0.00000000       0.00131273      -0.00395622      -0.00090266
C        3.70739540       7.77283122       3.93079696       0.00000000      -0.00399645       0.00595396       0.00460759
C        2.44543118       9.93019430       3.74383654       0.00000000       0.00302442       0.00277425       0.00166932
C        9.83608870       1.38098755       3.69348191       0.00000000      -0.00354370       0.00324926      -0.00503870
C        8.59127805       3.51801989       3.57825888       0.00000000      -0.00144997       0.00888411      -0.00120702
C        7.37051113       5.65662228       3.56415861       0.00000000       0.00012525      -0.00217413       0.00251575
C        6.14822289       7.79955382       3.67526906       0.00000000       0.00196499      -0.00680916      -0.00345456
C        4.90499731       9.92307745       3.73587029       0.00000000       0.00382135       0.00163816       0.00615290
Zn       2.61125199       5.36723774       5.37397591       0.00000000       0.00001576      -0.00099029       0.00953623
O        3.03487059       5.87565000       8.14405833       1.00000000       0.00585508       0.00959189       0.00188652
O        3.59798677       6.10690177       7.00826652       1.00000000       0.00827435      -0.00996975      -0.00810200
