52
Lattice="12.336457 0.0 0.0 -6.168228499999997 10.683685154694365 0.0 0.0 0.0 15.0" Properties=species:S:1:pos:R:3:forces:R:3 energy=-443.82835452209076 free_energy=-443.82835452209076 stress="-0.004479515766982527 0.0007760007776388696 -3.507119945212623e-05 0.0007760007776388696 0.00029666861734668477 -4.379911063715946e-06 -3.507119945212623e-05 -4.379911063715946e-06 3.6745954966327367e-06" pbc="T T T"
C       -0.03479605       0.02465426       3.70548480      -0.00847225      -0.00375823      -0.00149220
C       -1.27362906       2.15378167       3.78025332       0.00390520      -0.00649421       0.00340233
C       -2.54123033       4.29556279       3.69317694       0.00352456      -0.00385152       0.00204441
C       -3.75864039       6.44142663       3.58609546      -0.00175622       0.00185043       0.00329769
C       -4.97217731       8.58213108       3.59759400      -0.00220141      -0.00244120       0.00286982
C        2.44501705       0.05205622       3.65450498      -0.00340715      -0.00694905       0.00119997
C        1.21726413       2.15977815       3.88061411       0.00353036       0.00873457      -0.00159637
C       -0.13170957       4.30303317       4.03010705      -0.00032200       0.00064125      -0.00331160
C       -1.32125655       6.45171508       3.82322619       0.00299124      -0.00381197      -0.00338510
C       -2.51187659       8.58270916       3.65964841       0.00174151      -0.00049459      -0.00074145
C        4.89979595       0.02736643       3.64294012       0.00612158       0.00388838      -0.00318144
C        3.70560274       2.16441042       3.61014267      -0.00138728      -0.00311923       0.00040215
B        1.12056578       6.45918804       4.20843742       0.00015830       0.00635177       0.00259729
C       -0.04739631       8.57562146       3.82248846      -0.00377066      -0.00201714      -0.00111066
C        7.37490509       0.00772848       3.69069100      -0.00507044       0.00359838       0.00385193
C        6.14361996       2.15089515       3.54654099       0.00115559      -0.00289689       0.00658282
C        4.92452652       4.27983883       3.54285491       0.00421767      -0.00060408       0.00887778
N        3.73596873       6.42647305       3.93647409       0.00291161       0.00678572      -0.00315987
C        2.45244518       8.54758874       3.87718401      -0.00049077       0.01002612      -0.00764287
C        9.83857385       0.00930181       3.71871991      -0.00216749       0.00248968      -0.00530481
C        8.60224924       2.14922175       3.62771858      -0.00254781       0.00059119       0.00186141
C        7.35493797       4.29845644       3.53094684      -0.00493921       0.00390040       0.00024002
C        6.12052423       6.43143994       3.55024664      -0.00506359       0.00153073       0.00852543
C        4.90373506       8.55108664       3.70019685       0.00572604      -0.00515379       0.00537461
C       -0.03024329       1.45349384       3.79804702       0.00413170      -0.00222695      -0.00899433
C       -1.31588858       3.57289588       3.82877892       0.00517188      -0.00563760      -0.00309591
C       -2.54621965       5.72689388       3.68676241       0.00197960      -0.00207656      -0.00675470
C       -3.74440999       7.86891424       3.60216744       0.00028280       0.00184646      -0.00585862
C       -4.96334883      10.01161108       3.65164814      -0.00786940      -0.00532501       0.00271003
C        2.46596157       1.48480380       3.71650110      -0.00352242      -0.00403809      -0.00084836
B        1.12388558       3.57898985       4.17775326      -0.00386023       0.00504899       0.01207913
C       -0.13799792       5.72346330       4.03166387       0.00513112       0.00031618      -0.00688534
C       -1.28516141       7.87160787       3.77087695      -0.00026332      -0.00398008      -0.00377688
C       -2.50310685      10.01078198       3.64414290       0.00596550       0.00033352      -0.00526253
C        4.91083188       1.45347629       3.58111011       0.00103982       0.00079880       0.00570255
O        3.75292203       3.53826576       3.52550521       0.00375576      -0.00254933       0.00230836
C        1.20167439       7.88621898       3.96872368       0.00051186       0.00570687      -0.00768132
C       -0.03691819       9.99506650       3.70957952      -0.00040371      -0.00373155      -0.00839844
C        7.36817329       1.43689326       3.60723994      -0.00093419      -0.00173965      -0.00593495
C        6.12804455       3.57862879       3.50916420      -0.00065542      -0.00173031       0.00546732
C        4.88308939       5.71695893       3.64488787      -0.00213266       0.00356512       0.00551706
C        3.68683273       7.78875974       3.84671530       0.00309748       0.00589955      -0.00086048
C        2.44604565       9.97189534       3.75369422      -0.00416419       0.00891067      -0.00321173
C        9.83359710       1.43512761       3.69793352      -0.00126154       0.00181818       0.00137593
C        8.58276282       3.57835123       3.59884091      -0.00226175       0.00220085      -0.00109481
C        7.34534696       5.72018460       3.52964768      -0.00758663       0.00339170       0.00319094
C        6.12954495       7.85690912       3.60211665       0.00319612      -0.00407248       0.00536551
C        4.90077263       9.97930788       3.70873882      -0.00682219      -0.00715755      -0.00084209
Zn       2.44394153       5.07777463       4.85634994      -0.00604747      -0.01085981       0.00775978
O        3.44536942       4.05124965       6.10346222       0.00142557       0.01014496      -0.00282967
O        2.93366641       4.64427956       7.35322366       0.00794830      -0.00004631       0.00665066
H        3.76766223       4.97663641       7.73266623       0.00976024      -0.00360729      -0.00599842
