52
Lattice="12.336457 0.0 0.0 -6.168228499999997 10.683685154694365 0.0 0.0 0.0 15.0" Properties=species:S:1:pos:R:3:forces:R:3 energy=-444.7770191973482 free_energy=-444.7770191973482 stress="-0.00428794195739904 -0.0024809583493380434 -3.983330669166154e-05 -0.0024809583493380434 -0.0029188270821709113 1.1916866006590977e-05 -3.983330669166154e-05 1.1916866006590977e-05 1.119262853735219e-05" pbc="T T T"
C       -0.01336070      -0.00475880       3.82517476       0.00793022      -0.00167253       0.01171536
C       -1.25969933       2.12049325       3.78770108      -0.00309338      -0.00006937       0.00486859
C       -2.47819973       4.26790174       3.74569316       0.00971721      -0.00671759       0.00363069
C       -3.69312004       6.41221812       3.76253669       0.00222544       0.00085151      -0.00558800
C       -4.92680241       8.55632415       3.82434960       0.00301589      -0.00525298       0.00503866
C        2.45673667       0.00858733       3.74593077      -0.00082894       0.00045974       0.00774898
C        1.19249588       2.15494348       3.79522058      -0.00304370      -0.01117498       0.01242842
C       -0.02028871       4.20916971       3.88830694       0.00281025       0.00349436      -0.00286242
C       -1.22390943       6.39621434       3.82684392       0.00354570      -0.00094981       0.00168345
C       -2.46398594       8.54821475       3.77776107       0.00972189       0.00769075       0.00330807
C        4.92191314       0.00890361       3.63599919      -0.00764079      -0.00288502       0.00642361
C        3.65937124       2.10486212       3.36510274       0.00917063       0.00256217      -0.00468144
B        1.26714360       6.41001393       3.97973818      -0.00367144       0.00159472       0.00783345
C       -0.01086789       8.55913637       3.79889262      -0.00270323      -0.00154333      -0.00310701
C        7.39008156       0.00739882       3.69803438      -0.00575404       0.00331864      -0.00109777
C        6.15601754       2.14179938       3.47160207      -0.00561522       0.00480526       0.00740762
C        4.98769717       4.32752638       3.37674975      -0.00871233       0.00593127      -0.01127251
C        3.71077846       6.39386317       3.91283464      -0.00272579       0.00074324      -0.01228281
C        2.46758105       8.56077346       3.88125123      -0.00114547      -0.00280270      -0.00748139
C        9.85704714      -0.00510573       3.79743196       0.01003727       0.00435484       0.00385812
C        8.61892811       2.13572489       3.66577357       0.00034562      -0.00615853       0.00544716
C        7.40733433       4.28320707       3.60902356       0.00645482      -0.00216134       0.01295505
C        6.18906414       6.43224295       3.74555899      -0.01449855       0.00698588       0.00540980
C        4.93502508       8.53847564       3.87249745      -0.00515761       0.00851229      -0.00763146
C       -0.02724981       1.41708099       3.80775753      -0.00575611      -0.00445373      -0.00410428
C       -1.26411090       3.53207792       3.79395457       0.00657101      -0.00028438       0.00618477
C       -2.46818130       5.69328888       3.77279214       0.00480457      -0.00606017       0.00041965
C       -3.69608397       7.83896671       3.79547093       0.01245677       0.00434850      -0.00210347
C       -4.93870694       9.97629813       3.81957751       0.00494078      -0.00731004       0.00223506
C        2.44288613       1.43056337       3.64499906       0.00619151      -0.00129157      -0.00199772
N        1.14734200       3.50679506       3.95257022      -0.00814429      -0.00982589       0.00428709
C       -0.00932123       5.65426922       3.90280073       0.00554914       0.00331803       0.00174603
C       -1.22885448       7.82991638       3.80270551       0.00339077      -0.00038188      -0.01637151
C       -2.47298377       9.97607114       3.72138454      -0.00492871       0.00384197       0.00409416
C        4.91551268       1.43348288       3.47437539       0.00204446      -0.00752255      -0.00758509
P        3.52536029       3.70859142       2.64484342      -0.01353983       0.00216366      -0.01001701
C        1.23608663       7.87644023       3.87874174      -0.00364276      -0.00214421       0.00613542
C       -0.01446385       9.98501549       3.70698820      -0.00882306      -0.00207973       0.00912502
C        7.38406135       1.42911352       3.60417422      -0.00612301       0.00472580      -0.00024974
C        6.17757707       3.57145456       3.45679929      -0.00422745       0.00753464       0.01554381
C        4.93996398       5.73867333       3.67676289      -0.00794805       0.00137510       0.00083032
C        3.68950285       7.79758198       3.90779998      -0.00121300      -0.00195555      -0.00531155
C        2.45836403       9.97883889       3.79547595       0.00463726       0.00216074      -0.00940091
C        9.84702725       1.41550511       3.74909353       0.00052052       0.00075159      -0.00133983
C        8.62404502       3.56210527       3.66745161       0.01103511      -0.00943349      -0.00534777
C        7.41050064       5.70680579       3.70288744      -0.00828692       0.00507330      -0.01498457
C        6.17701174       7.84498310       3.83329385      -0.01028705       0.00682823      -0.00592857
C        4.92246712       9.95802817       3.84463116       0.00884683       0.00587738      -0.01080678
Zn       2.53230975       4.93537947       4.66119694      -0.00660063       0.00062845       0.00807522
O        2.63013425       4.16349443       6.42990221       0.00434217       0.00173028       0.00913033
O        2.64713536       5.28353501       7.37025853       0.00395229      -0.01727826      -0.00808471
H        3.39830090       5.00637279       7.92423595       0.00985324       0.00974727      -0.00792556
