51
Lattice="12.336457 0.0 0.0 -6.168228499999997 10.683685154694365 0.0 0.0 0.0 15.0" Properties=species:S:1:pos:R:3:initial_magmoms:R:1:forces:R:3 energy=-435.12415593354933 free_energy=-435.12415593354933 stress="0.006572987617662522 -0.0008188842663941632 1.4554110208220674e-05 -0.0008188842663941632 -0.008356577933853818 -3.240030093556251e-05 1.4554110208220674e-05 -3.240030093556251e-05 -1.2692205632626398e-05" pbc="T T T"
C       -0.00429763      -0.02134065       3.76024125       0.00000000      -0.00714023       0.00487311       0.00258069
C       -1.21400793       2.16241322       3.61592959       0.00000000       0.00808349       0.00290621      -0.00354519
C       -2.44308250       4.28920715       3.62067221       0.00000000      -0.00132205      -0.00701067       0.00182397
C       -3.69558244       6.39373069       3.77826654       0.00000000       0.00489711       0.00695341       0.00655213
C       -4.94483498       8.50950028       3.85350200       0.00000000      -0.00732954       0.00025182       0.00700652
C        2.46866439      -0.08973075       3.70544469       0.00000000      -0.00161904       0.00234093       0.00455425
C        1.26140130       2.04266001       3.56423915       0.00000000       0.00569689      -0.00933543      -0.00350589
C        0.07426524       4.29566501       3.58883799       0.00000000       0.00595246       0.00796041       0.00561698
C       -1.17621681       6.40389335       3.76851782       0.00000000      -0.00967175      -0.00712217       0.00294677
C       -2.45069307       8.50972805       3.78978099       0.00000000       0.00522727       0.00042190      -0.00318289
C        4.93265378      -0.01231898       3.61262511       0.00000000       0.00259789      -0.00208860       0.00732744
C        3.65243320       2.01953362       3.33589563       0.00000000       0.00183995       0.00201476      -0.00066638
B        1.48177089       6.41787541       3.97097102       0.00000000      -0.00202738      -0.01050019       0.01591639
C        0.01513461       8.56460573       3.79630686       0.00000000      -0.00486054       0.00348559      -0.00238758
C        7.38805895       0.05682138       3.65024550       0.00000000       0.01003013      -0.00262984       0.00812368
C        6.13625983       2.16908119       3.45211378       0.00000000      -0.00882470      -0.00629239       0.00324602
C        4.90328806       4.34131553       3.47560600       0.00000000       0.01541231       0.00312949       0.00758570
B        3.46017786       6.41224094       4.02519185       0.00000000       0.00061012       0.00243170       0.00666509
C        2.46674695       8.65289561       3.86494877       0.00000000      -0.00469322      -0.01092906       0.00682147
C        9.87433109       0.05515011       3.72671649       0.00000000       0.00004751      -0.00132109      -0.00789063
C        8.63234608       2.17586176       3.56831729       0.00000000      -0.00777572       0.00945366       0.00954875
C        7.38112684       4.29038791       3.60533761       0.00000000       0.00060029       0.01239622      -0.00351633
C        6.12455189       6.40496341       3.85460632       0.00000000       0.00256509      -0.01119513      -0.01363889
C        4.92114150       8.56295082       3.89385007       0.00000000       0.00690482      -0.00546889       0.00680208
C        0.00693048       1.40971874       3.65850317       0.00000000       0.00659325       0.00230890      -0.00543021
C       -1.18493733       3.58409915       3.57971606       0.00000000       0.00818617       0.00361990      -0.00221091
C       -2.43711949       5.70076861       3.71661691       0.00000000      -0.00642069      -0.01185234       0.01101445
C       -3.69621318       7.80659884       3.82593471       0.00000000       0.00096508       0.01021392      -0.00895231
C       -4.94727110       9.92229316       3.79418628       0.00000000      -0.00961984       0.00418184      -0.00157238
C        2.45953224       1.31443204       3.54889416       0.00000000       0.00616300      -0.00001261      -0.00301238
B        1.40754284       3.51557389       3.51321053       0.00000000       0.00509866      -0.00190235      -0.00588123
C        0.09220225       5.69760114       3.76709155       0.00000000      -0.00575824       0.00663509      -0.00626690
C       -1.20561342       7.82053989       3.79668223       0.00000000      -0.00118401      -0.00515163      -0.00294787
C       -2.45290465       9.92534255       3.71085910       0.00000000       0.00159833      -0.00082055      -0.00161312
C        4.91429989       1.42009670       3.44613150       0.00000000      -0.00576363      -0.00716140      -0.00272244
S        3.32634309       3.67589903       2.88634020       0.00000000      -0.00710984      -0.00954864      -0.00628467
C        1.26629072       7.91131508       3.87859522       0.00000000      -0.01103024       0.00356167       0.00102901
C        0.00143412       9.99402551       3.68974456       0.00000000       0.00707446       0.00171156      -0.01280471
C        7.37885504       1.47575920       3.54489288       0.00000000      -0.00466117      -0.00105260      -0.00165273
C        6.12014234       3.59035809       3.47749045       0.00000000       0.00494963       0.00314536      -0.00115512
C        4.85029556       5.70038035       3.81890397       0.00000000      -0.00183837       0.00379468      -0.01521197
C        3.66693849       7.91287868       3.93763406       0.00000000       0.00303322       0.00967216      -0.00613027
C        2.46294686      10.06189690       3.74734194       0.00000000       0.00345526      -0.01187312       0.00941993
C        9.87762436       1.47064756       3.63060864       0.00000000      -0.00114564       0.00610621       0.00213651
C        8.63845516       3.59098038       3.58407034       0.00000000      -0.00879423       0.00984393      -0.00136630
C        7.37951529       5.69880090       3.75516693       0.00000000       0.00817385       0.00697043      -0.00816012
C        6.14684123       7.82229919       3.89325445       0.00000000       0.00231937      -0.01837342       0.00747854
C        4.92800418       9.99095325       3.80372532       0.00000000      -0.00040730      -0.00396463      -0.00071346
Zn       2.42518404       4.92280027       5.12883519       0.00000000      -0.00314637      -0.00166874      -0.00407135
O        2.28699851       5.11104741       7.92638238       1.00000000      -0.00277633       0.01045342       0.01625994
O        2.71290705       4.27920474       7.03880733       1.00000000      -0.00315551       0.00643720      -0.01396209
