49
Lattice="12.336457 0.0 0.0 -6.168228499999997 10.683685154694365 0.0 0.0 0.0 15.0" Properties=species:S:1:pos:R:3:forces:R:3 energy=-426.3010613923961 free_energy=-426.3010613923961 stress="-0.0005290606419653458 0.0015849864582212635 -8.715016699999794e-06 0.0015849864582212635 -0.004969069175311439 5.541457081181862e-06 -8.715016699999794e-06 5.541457081181862e-06 -9.253017503985755e-07" pbc="T T T"
C        0.00228185       0.02037625       3.63671507       0.00237676      -0.00957042      -0.00549857
C       -1.23522630       2.15251649       3.36641831      -0.00352347       0.00029030       0.00092207
C       -2.49746440       4.29140461       3.46084936       0.00279724       0.00077359       0.00509555
C       -3.72668141       6.41397066       3.72142417       0.00081519       0.00542983      -0.00996099
C       -4.95328249       8.54698122       3.79415207       0.01231726       0.00169535      -0.00239427
C        2.46647303       0.00352659       3.82765894      -0.00242764      -0.00067174       0.00342035
C        1.27725435       2.10361607       3.37741428      -0.00191806      -0.00599516       0.00373428
C       -0.08898690       4.31581418       3.04368456      -0.00752389       0.00769616       0.01435678
C       -1.24681662       6.42483483       3.62350683      -0.00154496      -0.00524595       0.00301003
C       -2.47420031       8.54261610       3.85164333       0.00404827       0.01117285      -0.00001968
C        4.93316516      -0.00072449       3.90204225       0.00318942      -0.00073017      -0.00196110
C        3.72652262       2.13928917       3.99138023       0.00457779       0.00336230      -0.01331127
P        1.53705739       6.19216955       4.08018982       0.00055799       0.00320627       0.01746846
C       -0.00331708       8.55646707       3.93081051      -0.00415077      -0.00740041      -0.00676440
C        7.39468569       0.03225595       3.82207545      -0.00402091       0.00641506       0.00804861
C        6.16799105       2.14166796       3.85335568       0.00234191      -0.00730193      -0.01408395
C        4.92971975       4.22336010       4.02619042       0.00028852      -0.00289084       0.00628102
B        3.54403205       6.40885530       3.89833088      -0.00811184      -0.01158413      -0.00090566
C        2.47316194       8.63626655       3.89198409       0.00112335      -0.00390465       0.00933105
C        9.87659666       0.04502038       3.67253915      -0.00300158      -0.00434415      -0.00283507
C        8.63118924       2.15894269       3.62162426       0.00146783       0.00227220      -0.00871944
C        7.38254427       4.28126438       3.72995769      -0.00445050      -0.00467605       0.00221345
C        6.11651429       6.39860280       3.83131267       0.00098498       0.00973903       0.00139476
C        4.92889318       8.57454777       3.77622079       0.00934116       0.00123229       0.00226334
C        0.01034280       1.43956331       3.43841378      -0.00263846      -0.00650378       0.00788431
C       -1.27907678       3.57016426       3.24545888      -0.00440815       0.00054866      -0.00607559
C       -2.48959982       5.71320784       3.58913503       0.00019787       0.00058514       0.00315571
C       -3.71700719       7.83595809       3.79913017       0.01051117       0.00664945      -0.00401329
C       -4.94152226       9.97797952       3.75787280       0.00392280      -0.00556990      -0.00700279
C        2.47922421       1.43357853       3.75941133       0.00011261      -0.00176189       0.00759397
P        1.44979347       3.64693852       2.52966906      -0.00832712       0.01643056      -0.00358390
C       -0.02924038       5.68526445       3.41818460      -0.00361256      -0.00693844       0.00066991
C       -1.23765392       7.83248462       3.83143218      -0.00521222      -0.00218735      -0.00029863
C       -2.47362898       9.96811357       3.89253662       0.00071381       0.00958844       0.00137427
C        4.94543255       1.42125051       3.91425185       0.00422764      -0.00186689      -0.01346635
N        3.80868127       3.47047480       4.31743508      -0.01159169       0.00545609      -0.00699946
C        1.25486187       7.91531260       4.01556591      -0.00274868      -0.00096024       0.01650124
C       -0.00077126       9.98430187       3.89707900       0.00007390      -0.00341831       0.00286101
C        7.40087303       1.44765816       3.76320770       0.00272093       0.00453352      -0.00876534
C        6.16586384       3.55176636       3.84747248      -0.00267602      -0.01002161       0.00127441
C        4.87433388       5.65827995       3.92855516       0.00295881      -0.00172030      -0.00017820
C        3.68259194       7.91072650       3.83536873       0.00678555      -0.00375390      -0.00339185
C        2.46997256      10.04109586       3.79490242      -0.00631625       0.00004300       0.00290542
C        9.87374345       1.45638227       3.54493241      -0.00145555      -0.00252347      -0.00341875
C        8.61819886       3.57868932       3.59374115       0.00140523       0.00105662       0.00064680
C        7.36901159       5.70295851       3.75945689      -0.00347170       0.00305286      -0.00767976
C        6.14560850       7.83332582       3.79649088       0.01145512       0.00937567      -0.00134356
C        4.93824471      10.00563579       3.68940034       0.00153175      -0.00236523       0.00554686
Zn       2.39700835       4.49379594       5.26413431       0.00028716       0.00330165       0.00471821
