50
Lattice="12.336457 0.0 0.0 -6.168228499999997 10.683685154694365 0.0 0.0 0.0 15.0" Properties=species:S:1:pos:R:3:forces:R:3 energy=-438.5228716104185 free_energy=-438.5228716104185 stress="-0.00592641622355627 -0.0018717528325322666 3.783060045683392e-07 -0.0018717528325322666 -0.00015020576053085183 -8.337784267862893e-06 3.783060045683392e-07 -8.337784267862893e-06 3.5239192017369016e-06" pbc="T T T"
C        0.00550999      -0.02026601       3.77944130      -0.01374408       0.00432550       0.00611193
C       -1.24471799       2.09771456       3.81139842       0.00267249       0.00583388      -0.00502924
C       -2.46724475       4.24322492       3.81035359       0.00156808       0.00767143      -0.01020146
C       -3.66998190       6.39533397       3.75948586       0.00039223      -0.00712545      -0.00215025
C       -4.90228771       8.54499353       3.76355415      -0.00480023      -0.00270877       0.00526608
C        2.47513171       0.00161979       3.77161953      -0.00257057      -0.00063887       0.00305839
C        1.20614615       2.15301065       3.80138796       0.00212037       0.00226120       0.01243964
C       -0.02339650       4.21114811       4.03796236       0.00564576      -0.00347258       0.00191902
C       -1.22968774       6.37388958       4.05397824       0.00388663       0.00772553      -0.01087177
C       -2.44629907       8.53693495       3.89515902       0.00450310      -0.01259476      -0.00117813
C        4.94198866      -0.01060793       3.71800869       0.00649921       0.00163066       0.00582462
C        3.68502743       2.07564849       3.34206135      -0.00285810      -0.00343858      -0.00573652
B        1.14603151       6.43193031       4.77782983      -0.00686180      -0.00989838      -0.00394724
C        0.01014936       8.54341871       4.05130099       0.00704720       0.00399739      -0.01238157
C        7.40850771      -0.02885524       3.74772326       0.00662256      -0.00382778       0.00172933
C        6.18410876       2.10736660       3.44241398       0.00229623       0.00767529       0.00099729
C        5.04586374       4.29935330       3.16502749      -0.00098258      -0.01389871      -0.00524742
C        3.80066340       6.37840500       3.62509153       0.01313871       0.01344256      -0.00411790
C        2.46230407       8.49380605       3.93955323      -0.00758929       0.00556532      -0.00446921
C        9.86888487      -0.04435170       3.75575611       0.00173158      -0.00846233       0.01569759
C        8.63875377       2.10340317       3.65943346       0.00069602      -0.00401241       0.00512411
C        7.43968685       4.25626025       3.53413102      -0.00067434       0.01278586      -0.00806796
C        6.24200546       6.42412891       3.54078236      -0.00892842      -0.00129476      -0.00023858
C        4.95584922       8.51436282       3.73360794      -0.00748152      -0.00198306       0.00283584
C       -0.01010618       1.40325949       3.80416185       0.00003573       0.00465853       0.01804060
C       -1.25481429       3.51244605       3.88707891       0.00412608       0.00792676      -0.00478424
C       -2.46257547       5.66739424       3.86584784       0.00586402       0.00584189      -0.00473001
C       -3.67530511       7.82478364       3.80977756      -0.00180581      -0.01230056       0.00919743
C       -4.91895574       9.96565703       3.79300883      -0.01171339       0.00323239       0.00138404
C        2.46051948       1.42535614       3.64923154      -0.00056955      -0.00035404       0.01225654
N        1.15300796       3.50251881       3.98344024       0.00773180      -0.00440656       0.00278987
C       -0.04964813       5.63632284       4.20732789      -0.00829250      -0.00215701      -0.00122857
C       -1.22562452       7.82101822       4.03807037       0.01029854       0.00371155      -0.00890860
C       -2.45626779       9.96698524       3.80561907       0.00442457      -0.00817879      -0.00168758
C        4.93999831       1.40411331       3.48138393      -0.00008732       0.00621308      -0.00199327
P        3.58308998       3.61779700       2.46524284       0.00318049      -0.00674994      -0.00288598
C        1.23757045       7.86384108       4.20525599      -0.00353757       0.00163099      -0.00141884
C        0.00343705       9.96374964       3.83354342       0.00864609       0.00037924       0.00002121
C        7.40617585       1.39517389       3.60429666      -0.00092952      -0.00369840       0.00156833
C        6.21756424       3.53822180       3.34869469       0.00479392       0.00640822      -0.00797329
C        5.00857144       5.72759781       3.40223271      -0.00405507      -0.01037302      -0.00530578
C        3.71705862       7.75509273       3.77679652      -0.00582293       0.00728040      -0.00138186
C        2.46896000       9.92613674       3.80510548       0.00134614      -0.00550165      -0.00040418
C        9.86408465       1.38212051       3.74036569       0.00607352      -0.00645112       0.00026103
C        8.64453936       3.53190936       3.66145043      -0.00226018       0.00630946      -0.00427095
C        7.44850907       5.68683421       3.59552511      -0.00475498       0.00860555      -0.00834263
C        6.20625539       7.83241964       3.68054980      -0.00709649      -0.00058337      -0.00127402
C        4.94240307       9.93391954       3.76416129      -0.00571226      -0.00654069       0.01626175
Zn       2.63259955       4.84620217       4.19765303      -0.00505058      -0.00161356       0.01575727
O        1.95401952       5.87870981       5.69698375       0.00283800       0.00715254      -0.00831484
