50
Lattice="12.336457 0.0 0.0 -6.168228499999997 10.683685154694365 0.0 0.0 0.0 15.0" Properties=species:S:1:pos:R:3:forces:R:3 energy=-429.63607082623867 free_energy=-429.63607082623867 stress="0.007818566894493737 -0.0008179468553799162 -6.624097179423008e-06 -0.0008179468553799162 -0.007505778308340625 6.374023223357275e-06 -6.624097179423008e-06 6.374023223357275e-06 -1.1496019100129233e-05" pbc="T T T"
C       -0.01491733      -0.00908151       3.79978526      -0.00114476       0.00872176       0.00954831
C       -1.22367709       2.17606756       3.64626772       0.00190035       0.00011095       0.01133990
C       -2.45222599       4.30163363       3.67334302       0.00331981      -0.00475421      -0.00189129
C       -3.70667083       6.40430197       3.84125580       0.00529678       0.01407467      -0.01173494
C       -4.95644098       8.52082199       3.91098945      -0.00474348      -0.00442078       0.00194438
C        2.45807159      -0.07568697       3.76481321      -0.00809715      -0.00606250       0.00590921
C        1.25017913       2.05107482       3.56206704      -0.00140044      -0.00298233      -0.00516240
C        0.06634099       4.31045530       3.59560833      -0.00201090      -0.00262852      -0.00114591
C       -1.18128784       6.41267278       3.82991242      -0.01077594      -0.00515438       0.00475117
C       -2.46080388       8.52037378       3.86847366       0.00477224       0.00384632      -0.00215101
C        4.92114967       0.00095672       3.69953588       0.00273577      -0.00556131       0.00397003
C        3.64305341       2.02865299       3.36653100       0.00021261       0.00081468      -0.00783403
B        1.48940447       6.42092043       3.98675974       0.00381099       0.00207293      -0.00248268
C        0.00601160       8.57455746       3.88230921      -0.00898390       0.00580891      -0.00646093
C        7.37466646       0.07109246       3.74610979       0.01289313       0.00785339      -0.00513212
C        6.12437696       2.18056638       3.52466109      -0.00487181       0.00102054       0.00666725
C        4.88935513       4.35148523       3.49572672      -0.00475872      -0.01060348      -0.00522732
B        3.43925421       6.42547481       4.01293541       0.00231106      -0.00763005       0.01518497
C        2.45472072       8.66900108       3.93520905      -0.00408551      -0.00914010      -0.00083569
C        9.86339062       0.06969013       3.79142371       0.00223015       0.00199106       0.00564534
C        8.61965494       2.19004664       3.64019631       0.00750900      -0.00231036      -0.00664389
C        7.36721249       4.30270285       3.65794008       0.00530744       0.00252284       0.00406526
C        6.10672530       6.41520069       3.88222450       0.00217029      -0.00410095       0.00421392
C        4.90973524       8.57474231       3.93883247       0.00064204       0.01231884      -0.00787915
C       -0.00237030       1.42141377       3.67676518      -0.00141654       0.00372316       0.00951447
C       -1.19273518       3.59848213       3.61269868       0.00235198      -0.00344534      -0.00220869
C       -2.44508021       5.71186137       3.77848354      -0.00608809      -0.00307329       0.00068562
C       -3.70725358       7.81714826       3.89332194       0.00503032       0.01135260      -0.00693161
C       -4.95829498       9.93471765       3.84687499      -0.01059678      -0.00505418       0.00520900
C        2.44905480       1.32492469       3.57840267      -0.00061951      -0.00310913      -0.00687864
B        1.39536117       3.52473922       3.47356474      -0.00952314      -0.00695535      -0.01108908
C        0.08919321       5.70821422       3.79603820      -0.01038583      -0.00469951       0.00516021
C       -1.21490513       7.82985400       3.87484481      -0.00369939      -0.00203691      -0.00832317
C       -2.46391801       9.93711426       3.78901551      -0.00233597      -0.00024744       0.00900189
C        4.90218280       1.43158437       3.51688911      -0.00240455      -0.00828059      -0.00664540
S        3.31794214       3.67648466       2.88289474       0.00356495       0.01866515       0.00006388
C        1.25769547       7.92121751       3.94727414      -0.01319945       0.00047991      -0.00259778
C       -0.01021389      10.00637701       3.78422520       0.00956117       0.00705890      -0.00048966
C        7.36528637       1.48937359       3.63027053       0.00308829       0.00861537       0.00005350
C        6.10634564       3.60258878       3.52824829      -0.00203882      -0.00122739       0.00591884
C        4.83067626       5.71362689       3.82384858       0.00778440      -0.01062507      -0.00392970
C        3.65533155       7.92783771       3.97049986       0.00458480      -0.00137390       0.00504411
C        2.45089866      10.07807145       3.83591389       0.00582667      -0.00662305      -0.00832266
C        9.86695104       1.48528428       3.68783966       0.00518226      -0.00098016       0.00675616
C        8.62622933       3.60450652       3.64500413       0.00617216      -0.00348064      -0.00728296
C        7.36573309       5.71106492       3.80147393       0.00966803       0.00632333      -0.00209708
C        6.13458127       7.83238839       3.93587666      -0.00574898       0.00020708       0.00067375
C        4.91702772      10.00365617       3.85435580       0.00130104       0.01396219       0.00434507
Zn       2.48609151       4.88447320       5.10068978      -0.01181423      -0.00558732       0.00095530
O        3.08575576       4.04337961       6.52247526       0.01151617       0.00060365       0.00475627
