50
Lattice="12.336457 0.0 0.0 -6.168228499999997 10.683685154694365 0.0 0.0 0.0 15.0" Properties=species:S:1:pos:R:3:forces:R:3 energy=-430.82986722241975 free_energy=-430.82986722241975 stress="-0.0002835196435914845 0.0008197011370585655 -4.3069651115312936e-06 0.0008197011370585655 -0.005782750852489124 -8.996109831705723e-06 -4.3069651115312936e-06 -8.996109831705723e-06 6.781374437110494e-06" pbc="T T T"
C       -0.00976849       0.02611272       3.61101069      -0.00625620       0.00229554       0.01261198
C       -1.25315716       2.15890006       3.40495869       0.00419480       0.00019635       0.00609933
C       -2.51129136       4.29818202       3.53291599       0.00563753      -0.00250527      -0.01320184
C       -3.73835967       6.42179679       3.73726706       0.01005217       0.00160139       0.00364629
C       -4.96286392       8.55399970       3.75721088       0.00823090      -0.00803818       0.00202046
C        2.45601221       0.00818515       3.77121700      -0.00384714       0.01180632       0.00757478
C        1.25663703       2.10558619       3.33625803      -0.00362145      -0.00335963      -0.01665734
C       -0.10151246       4.31238874       3.13476414      -0.00061067       0.00529432      -0.00345720
C       -1.25226549       6.42696590       3.68334938      -0.00254773      -0.00261143       0.01285812
C       -2.48277418       8.55013956       3.84647245       0.00750416      -0.00149342       0.01705091
C        4.91952883       0.00900222       3.90434080       0.00611544      -0.01340837      -0.01116891
C        3.70639735       2.15658320       3.87996634      -0.00254461       0.00190977      -0.00168553
P        1.57431383       6.19176608       4.04754503       0.00169657       0.00377254       0.01306454
C       -0.00955740       8.56139157       3.96242222       0.00119635      -0.00249146      -0.00321102
C        7.38030169       0.04306898       3.87092020       0.01405778      -0.00031240      -0.00176450
C        6.15208290       2.15265975       3.86441628      -0.01590913       0.00534437      -0.00939140
C        4.89055661       4.23429829       3.93666949      -0.01200512      -0.00222328      -0.00575930
B        3.53494659       6.43042639       3.81550886       0.00579017       0.00413847       0.00138480
C        2.46419199       8.64949596       3.90917619      -0.00390772      -0.00096560       0.00920518
C        9.86297551       0.05499559       3.70233311       0.00092604      -0.00220490      -0.00210844
C        8.61616899       2.16911144       3.67812311       0.00394620      -0.00898589       0.00019946
C        7.36348622       4.29131732       3.76275761       0.00331793       0.01080209      -0.01377577
C        6.10084826       6.40785413       3.79622678      -0.01025593       0.00153797      -0.00348294
C        4.92072751       8.58619340       3.74793032      -0.00792033       0.00700323       0.00681184
C       -0.00553682       1.44698380       3.43307124      -0.00152118      -0.00017035      -0.00790969
C       -1.29395573       3.57537338       3.32077831       0.00391787      -0.00074319      -0.01498353
C       -2.49947073       5.71931490       3.64468986       0.00323766      -0.00286429      -0.00126952
C       -3.72627946       7.84407168       3.78546406       0.01498518      -0.00399911       0.00633493
C       -4.95245386       9.98247328       3.71096920      -0.00299153      -0.00114214       0.01307444
C        2.46497463       1.42964772       3.67778828      -0.00236312       0.01321279       0.00134806
P        1.41025171       3.66892365       2.53456037      -0.00134059      -0.00888961       0.00819909
C       -0.03876405       5.68253657       3.50167019      -0.00236129       0.00327535       0.00287618
C       -1.24580316       7.83954499       3.86017404       0.00187441      -0.00182914      -0.00058223
C       -2.48368256       9.97513169       3.86758548      -0.00208386      -0.00060037       0.00501201
C        4.92619274       1.43312557       3.88928604      -0.00950540      -0.00886654      -0.00321261
N        3.73614022       3.50635092       4.07610658      -0.00581164      -0.00238299      -0.01197293
C        1.25180715       7.91932830       4.03292897      -0.00303018      -0.00091837       0.00338069
C       -0.01368832       9.99219066       3.93140927       0.01537590      -0.00468170       0.00238828
C        7.38600285       1.45837947       3.81014502      -0.00681390       0.00190452      -0.00261414
C        6.14197373       3.56527035       3.84953789      -0.00826851       0.01084217      -0.00545156
C        4.86062840       5.67399704       3.85453443      -0.00743454      -0.00481429       0.00893030
C        3.67545362       7.92970101       3.81237179      -0.00545286       0.00308788       0.00447784
C        2.45693495      10.05393378       3.83779833       0.00838823      -0.00389983      -0.00339774
C        9.85772950       1.46567708       3.59097315       0.00594907      -0.00687447      -0.00621906
C        8.60210627       3.58812103       3.65402106       0.00699018      -0.00431551      -0.00208578
C        7.35501147       5.71177751       3.76405025       0.00205833       0.01256573      -0.00211875
C        6.13579558       7.84291243       3.75747024      -0.00582169       0.00270840       0.00433855
C        4.92637858      10.01632182       3.68350839      -0.00610043       0.00390789      -0.00103970
Zn       2.36876622       4.46193620       5.38911497       0.00211245      -0.01039016       0.00357192
O        3.10026334       4.08889909       6.95508580       0.00277142       0.00877481      -0.00793857
