50
Lattice="12.336457 0.0 0.0 -6.168228499999997 10.683685154694365 0.0 0.0 0.0 15.0" Properties=species:S:1:pos:R:3:forces:R:3 energy=-430.37470580335236 free_energy=-430.37470580335236 stress="-0.0032290081660663996 -0.001893290984837166 8.667031693666416e-06 -0.001893290984837166 -0.007437656105199271 2.329978943616596e-06 8.667031693666416e-06 2.329978943616596e-06 3.735010246299477e-06" pbc="T T T"
C       -0.02755399      -0.03263649       3.81459379      -0.00168148      -0.00558334      -0.00486032
C       -1.26694478       2.10920865       3.88610507       0.00279695      -0.00528410      -0.00124023
C       -2.51267203       4.24950614       3.76242499       0.00296513       0.00635319      -0.00477678
C       -3.73289930       6.38629617       3.66408063      -0.00562422      -0.00580682       0.00373754
C       -4.95638995       8.51799001       3.69621730      -0.00014867      -0.00063155       0.00100407
C        2.44464814      -0.07180137       3.66577539      -0.00382225       0.00570669      -0.00211488
C        1.24007522       2.02961551       3.98201893      -0.00037004       0.00746713       0.00235978
C       -0.08952815       4.28017559       4.08872321      -0.00025698      -0.00124676       0.00430214
C       -1.29054129       6.40444125       3.86211774       0.00107456       0.00137830       0.00201520
C       -2.48604369       8.51399007       3.67923860      -0.00532128       0.00353414       0.00199742
C        4.90970834      -0.02982546       3.55698298       0.00633768       0.00460302      -0.00149089
C        3.63867891       2.04151789       3.35089578      -0.00486913       0.00199058       0.01261269
B        1.15000642       6.44470246       4.39061459      -0.00716729       0.01044618       0.00703266
C       -0.02685972       8.54000720       3.83529723       0.00314074      -0.00749059       0.00173059
C        7.37371428      -0.01023220       3.67063760       0.00214342      -0.00396267       0.00051100
C        6.12705095       2.12689491       3.44173171       0.00141005      -0.00231602      -0.00220537
C        4.91080203       4.32989523       3.34933527       0.00283977       0.00153730       0.00025869
N        3.73288535       6.42626995       3.81110658       0.00495047       0.00693839       0.00096745
C        2.45844676       8.54059744       3.90424762       0.00332419       0.00627294      -0.00880026
C        9.84179493      -0.01356928       3.77886787       0.00086562      -0.00244651      -0.00836719
C        8.59912873       2.12065977       3.66450447      -0.00054237       0.00283284       0.00097188
C        7.35929796       4.26039805       3.56118363       0.00086565      -0.00445946      -0.00145765
C        6.15008333       6.41617352       3.60621098       0.00550919       0.00178121      -0.00320947
C        4.91646524       8.52949316       3.75984534      -0.00144887      -0.00499091      -0.00022002
C       -0.02695426       1.38880962       3.92147860       0.00458588      -0.00441947      -0.00039314
C       -1.27997462       3.53046763       3.90550767       0.00051879      -0.00178461      -0.00108813
C       -2.51211004       5.67485546       3.74238826       0.00013786       0.00500127       0.00372804
C       -3.72265319       7.80631255       3.67207200      -0.00463644      -0.00490542       0.00247310
C       -4.96408240       9.93040999       3.74005821      -0.00144761      -0.00035610      -0.00265493
C        2.44493632       1.33221978       3.66220483      -0.00618336       0.00442238       0.00247224
P        1.50538418       3.68044991       4.48312862       0.00302994       0.00851720       0.00505688
C       -0.09708420       5.69572738       4.09196939       0.00242656       0.00043104       0.00213527
C       -1.25604643       7.81725074       3.79037717      -0.00317243       0.00032394       0.00373638
C       -2.48376524       9.92685202       3.61630239       0.00054925       0.00813710      -0.00018118
C        4.89898952       1.39751966       3.41565035      -0.00090183       0.00621114       0.00302376
P        3.33538707       3.69340926       2.81529207      -0.00752958      -0.01439348      -0.00098631
C        1.21913300       7.86906551       4.03509376       0.00897469       0.00150105      -0.00446402
C       -0.02780392       9.95890533       3.67024588       0.00416252      -0.00681829       0.00570451
C        7.36204203       1.41571518       3.57847875       0.00093335      -0.00327111      -0.00165785
C        6.10923410       3.56512038       3.43113366       0.00259568      -0.00306400      -0.00020292
C        4.90239391       5.74869919       3.56801557       0.00349463       0.00500414       0.00333737
C        3.69758793       7.78988402       3.83759842      -0.00293996       0.00371677      -0.00122416
C        2.44626816       9.95894282       3.77401759       0.00197951       0.00249510      -0.00458594
C        9.83722206       1.40955301       3.77420123       0.00035739      -0.00182829      -0.00839119
C        8.59116729       3.54516631       3.65384113       0.00277115       0.00475594       0.00054533
C        7.36817266       5.68179331       3.60346881      -0.00184304      -0.00676881      -0.00450936
C        6.14767461       7.82343518       3.69101566       0.00252668      -0.00027246       0.00118651
C        4.90607068       9.94905003       3.79297087      -0.00256573      -0.00785370       0.00086087
Zn       2.64742034       5.40202764       5.42810940      -0.01441258      -0.00287597      -0.00254322
O        3.99255591       5.48086473       6.58936930      -0.00038213      -0.00852854      -0.00213594
