50
Lattice="12.336457 0.0 0.0 -6.168228499999997 10.683685154694365 0.0 0.0 0.0 15.0" Properties=species:S:1:pos:R:3:forces:R:3 energy=-428.22716074664254 free_energy=-428.22716074664254 stress="-0.0019747069846304415 -0.0028712910162610357 5.59494451582969e-07 -0.0028712910162610357 -0.005952893889443628 -2.655291150555362e-06 5.59494451582969e-07 -2.655291150555362e-06 -5.260213585959334e-06" pbc="T T T"
C       -0.02657955      -0.04607034       3.55779375       0.00182546       0.00409335       0.00453995
C       -1.27318392       2.09544531       3.46964217       0.00510682       0.00312572      -0.00093988
C       -2.50995363       4.23454097       3.63554393       0.00410552      -0.00192208      -0.00307065
C       -3.72426219       6.37247255       3.70553898      -0.00137630      -0.00407151      -0.00097513
C       -4.95133718       8.50279059       3.65973262       0.00353672      -0.00232213      -0.00210215
C        2.44644742      -0.08813288       3.72399178       0.00011831      -0.00511083       0.00406149
C        1.22675426       2.01736843       3.38719022       0.00769928       0.00145552      -0.00109109
C       -0.06286089       4.26380169       3.52993267      -0.00419560      -0.00119741      -0.00574412
C       -1.27267100       6.36802695       3.88108900       0.00134740       0.00401490       0.00476245
C       -2.47634005       8.49407852       3.84385012      -0.00425922       0.00429629       0.00271059
C        4.91282333      -0.04426671       3.90484972      -0.00472524       0.00410874      -0.00636645
C        3.63177704       2.03405738       3.95975479      -0.00204073      -0.00251713       0.00371190
B        1.13481191       6.38861427       4.32533603       0.00287459      -0.00285895      -0.00033956
C       -0.00484578       8.50548468       3.98556837      -0.00477268      -0.00042318       0.00081711
C        7.37895801      -0.02744448       3.83935669      -0.01198640      -0.00406685      -0.00297143
C        6.11842532       2.12620165       3.84378483      -0.00149078       0.00190033      -0.00008066
C        4.90208488       4.35177220       3.75666946      -0.00283864      -0.00292284       0.00303975
O        3.74637371       6.46101703       3.62689320       0.00685405       0.00165064      -0.00042423
C        2.48217141       8.50785616       3.87812340       0.00561596       0.00273482       0.00385860
C        9.83944422      -0.03133907       3.65196967       0.00222227       0.00481838       0.00416800
C        8.59334874       2.10675853       3.66238179      -0.00001262      -0.00878529       0.00472688
C        7.35484740       4.25030304       3.67058553       0.00504038      -0.00214426      -0.00070404
C        6.15838588       6.40820714       3.57951876      -0.00826359       0.00050357      -0.00584473
C        4.92336881       8.52382760       3.65415396       0.00269661      -0.00133724      -0.00652774
C       -0.03036693       1.37619817       3.44422524       0.00568810       0.00651413       0.00045717
C       -1.27161507       3.51988781       3.51862073       0.00084496      -0.00178643       0.00439128
C       -2.50203253       5.65678321       3.74303249       0.00346354       0.00039578      -0.00624690
C       -3.71191465       7.79201652       3.73711074       0.00150106      -0.00296846      -0.00300579
C       -4.96016978       9.91733805       3.63944368       0.00054049      -0.00236340      -0.00111758
C        2.43168043       1.31775279       3.69108711       0.00272448      -0.00635220       0.00080469
P        1.47106861       3.68030676       2.84282690      -0.00471026       0.00606412       0.00265634
C       -0.06035083       5.63539538       3.88882539       0.00025118      -0.00081617      -0.00513917
C       -1.24087454       7.78504136       3.93754983      -0.00533862       0.00497559      -0.00598081
C       -2.48020324       9.91041910       3.84174876      -0.00128010       0.00268118       0.00582999
C        4.89691882       1.38977254       3.92797706      -0.00124117       0.00318648      -0.00329149
P        3.35121568       3.72299557       4.32186571      -0.00293191      -0.00038669       0.00343328
C        1.24769742       7.81746080       4.05159173       0.00220045       0.00259380       0.00031146
C       -0.01926182       9.93822322       3.91832450      -0.01200691      -0.00338271      -0.01251846
C        7.35783530       1.40443834       3.78023851      -0.00601788      -0.00521256       0.00780913
C        6.10386202       3.56309309       3.74962897       0.00221247       0.00181020       0.00352932
C        4.93951929       5.74907535       3.61743491      -0.00447705      -0.00275909      -0.00369982
C        3.72128177       7.82588637       3.74358383       0.00619630      -0.00382012      -0.00208439
C        2.45434096       9.93653779       3.78785851      -0.00265521       0.00606602       0.00107632
C        9.83229475       1.39553992       3.58441614       0.00543675       0.00218498       0.00277735
C        8.59144047       3.53021968       3.64815033       0.00607194      -0.00778067      -0.00096740
C        7.37809921       5.66773555       3.63604278      -0.00636644      -0.00013722       0.00178490
C        6.15886010       7.81675313       3.61120202       0.00195300       0.00043466       0.00169270
C        4.90593660       9.94441785       3.61923591       0.00214964       0.00123963       0.00428679
Zn       2.37765657       5.29644624       5.64952755      -0.00019791       0.00820964      -0.00098397
O        3.58525265       5.97502308       6.73080389       0.00290754      -0.00161303       0.00498020
