52
Lattice="12.336457 0.0 0.0 -6.168228499999997 10.683685154694365 0.0 0.0 0.0 15.0" Properties=species:S:1:pos:R:3:forces:R:3 energy=-440.8810112933723 free_energy=-440.8810112933723 stress="-0.0023418845285524837 -0.002295864096913196 3.2416578663516405e-05 -0.002295864096913196 -0.006439223290625959 2.3474600739050393e-06 3.2416578663516405e-05 2.3474600739050393e-06 1.9726263021567434e-05" pbc="T T T"
C       -0.00763699       0.00626083       3.99929447       0.00534893      -0.00255989       0.00215696
C       -1.25475751       2.13511834       4.00612344      -0.00052124      -0.00686441       0.00697611
C       -2.47967906       4.27610914       3.85880418       0.00255040       0.00038564      -0.00103464
C       -3.69684815       6.41225889       3.78050630      -0.00054447       0.00266704       0.00495554
C       -4.93451865       8.54761907       3.89056029       0.00251209       0.00503476      -0.00345583
C        2.45650166       0.00231557       3.85472388       0.00637881      -0.00520101       0.00758110
C        1.20018390       2.15417958       3.96798235       0.00633102      -0.01003326       0.01200617
C       -0.02316428       4.21299137       3.94756410      -0.00507505       0.00113233       0.00170005
C       -1.20834068       6.39008460       3.72593252       0.00814748      -0.00200327       0.00935986
C       -2.45874981       8.54061624       3.77496754       0.00093403       0.00579282       0.00692915
C        4.92287855       0.00541843       3.68680587       0.00333835       0.00253912       0.00449692
C        3.65643328       2.08520184       3.40957882      -0.00222172       0.00616099       0.00348445
P        1.56791005       6.26053095       3.09126847      -0.00753588      -0.00750288      -0.00560789
C        0.00180032       8.55751935       3.66758839      -0.00435706      -0.00348453      -0.00155222
C        7.38028599       0.03325071       3.79159569       0.00415638       0.00643662       0.00394135
C        6.15565267       2.14780666       3.52715715      -0.00738146      -0.00727151       0.00073350
C        5.00273096       4.31177647       3.22208313      -0.00274231      -0.00318478       0.00580130
B        3.57111185       6.40826722       3.66773112       0.00264060       0.00427065       0.00155527
C        2.46912533       8.62579273       3.80610090       0.00340680       0.00215798      -0.00479080
C        9.85997703       0.02840468       3.97370886       0.00068747       0.00485864       0.00778812
C        8.61425892       2.15307600       3.82956920      -0.00281140       0.00575526       0.00562080
C        7.40584031       4.28670409       3.63540014      -0.00109162      -0.01003973       0.00755150
C        6.16353330       6.42661471       3.68427405      -0.00256762       0.00472900      -0.00478057
C        4.93523081       8.56616980       3.91648829       0.00254531       0.00776174      -0.00944191
C       -0.02059293       1.42783773       4.01052567       0.00309664      -0.00677250       0.00223360
C       -1.26504286       3.54233879       3.95957659      -0.00256044      -0.00536637      -0.00261391
C       -2.46262750       5.69624053       3.79521372       0.00421151       0.00029805      -0.00289639
C       -3.69720208       7.83556017       3.82242892       0.00080630       0.00896705      -0.01618384
C       -4.93873243       9.97238325       3.94411761       0.00390748      -0.00020975      -0.00417663
C        2.44401311       1.42771224       3.76641354       0.00687290      -0.00790790       0.00027673
N        1.14596659       3.51159673       4.10983089      -0.01028833      -0.00790511       0.00303218
C       -0.00340786       5.62346104       3.70277649       0.01248497       0.00362586      -0.00463945
C       -1.22284517       7.82627641       3.69657758      -0.00529616      -0.00495786      -0.00281956
C       -2.47333649       9.96986439       3.77266340       0.00542071       0.00251117      -0.00208527
C        4.91655053       1.42830807       3.52916932      -0.00615747      -0.00107552       0.00373198
P        3.54305813       3.61178205       2.52887660      -0.00923886      -0.00058960      -0.01068196
C        1.26168961       7.91858839       3.59396621      -0.00059280       0.00140016      -0.00206417
C       -0.01160015       9.98995052       3.72116918       0.00359438       0.00145363       0.00393718
C        7.37816075       1.44985516       3.72689748      -0.00096237       0.00598414      -0.00465748
C        6.18970276       3.56649490       3.43015472      -0.00338103      -0.00975210       0.00051015
C        4.93415386       5.71001185       3.49885189      -0.00267615       0.00202306      -0.00499654
C        3.68990065       7.90364883       3.82696753       0.00431381       0.00237976      -0.00465605
C        2.45142107      10.03211333       3.89598156       0.00328448       0.00402532       0.00457594
C        9.84750522       1.44182384       3.95916139      -0.00523850       0.00167210       0.00270688
C        8.62145210       3.57213940       3.78428754       0.00406983       0.00057769      -0.00460420
C        7.40263506       5.71027393       3.70029267      -0.00148563      -0.00559065       0.00572284
C        6.16896898       7.84162405       3.85214076       0.00116458       0.00615523      -0.00000420
C        4.92762322       9.99071387       3.99380536       0.00325661       0.00564531      -0.01149618
Zn       2.65458094       4.73085918       4.73417763       0.00407362       0.00522571       0.00750530
O        3.22766295       3.89447760       6.33082463      -0.00449603       0.00593768      -0.00639937
O        2.47673476       4.71355500       7.30010423      -0.00283131      -0.00978292      -0.00188286
H        3.22740072       5.00756060       7.84804166      -0.01748060       0.00049109      -0.00934895
