50
Lattice="12.336457 0.0 0.0 -6.168228499999997 10.683685154694365 0.0 0.0 0.0 15.0" Properties=species:S:1:pos:R:3:forces:R:3 energy=-430.73729657907387 free_energy=-430.73729657907387 stress="-0.0028493397773597293 -0.0023257860496723073 -2.513335394075018e-05 -0.0023257860496723073 -0.0071508515496092875 1.6093610199738377e-05 -2.513335394075018e-05 1.6093610199738377e-05 -5.288800049301131e-06" pbc="T T T"
C       -0.00773979       0.00803208       4.00150865       0.00585176      -0.00905554       0.00347127
C       -1.25599103       2.13893335       4.02269465       0.00021694       0.00166546      -0.00569189
C       -2.47903429       4.28028217       3.86202042      -0.00618154       0.00023228      -0.00746784
C       -3.69637556       6.41411145       3.76003913      -0.00235304       0.00404713       0.00760949
C       -4.93477981       8.54960069       3.86210357       0.00012085      -0.00610075       0.01031192
C        2.45717495      -0.00123813       3.87748768      -0.00026169       0.00707456      -0.00421417
C        1.19644530       2.15138416       3.92490163      -0.00734100       0.01643545      -0.00070421
C       -0.02195223       4.21442718       3.84230407       0.01370732      -0.00550945       0.00542555
C       -1.20649891       6.39079094       3.67290874       0.00588180      -0.00520011       0.00404572
C       -2.45708525       8.53956353       3.77633851      -0.00244447       0.00196179      -0.00704993
C        4.92416151       0.00419586       3.74820467      -0.00098844       0.00959437       0.00586146
C        3.66043776       2.07532817       3.45446666      -0.00289057      -0.01246047      -0.00841622
P        1.55785522       6.29039036       2.96500931      -0.01285984      -0.00308137      -0.00341275
C        0.00275910       8.55986354       3.65986991       0.00451358       0.00878486       0.00159768
C        7.37891890       0.03584079       3.85477144      -0.00177626       0.00683026      -0.00235261
C        6.15297270       2.14969767       3.61515681       0.00890184      -0.00069406      -0.00370319
C        5.00801335       4.30654266       3.23005123       0.00113651      -0.00095354      -0.00341074
B        3.58213255       6.44050859       3.48694033      -0.00642930      -0.00151410      -0.00081218
C        2.46862731       8.63589189       3.75603665       0.00082941       0.00016009       0.01049568
C        9.85968669       0.03227681       4.00369933      -0.00581960      -0.00233361      -0.00186577
C        8.61123426       2.15870746       3.90230716       0.00124523      -0.00214025       0.00232942
C        7.40228878       4.28923546       3.67626040      -0.00658720      -0.00147639      -0.00489281
C        6.16462597       6.43301703       3.62547897       0.00097859      -0.00273938       0.01065226
C        4.93658699       8.57555364       3.85398913      -0.00268990      -0.00439194      -0.00280451
C       -0.02114757       1.42895609       4.01339070       0.00446979      -0.00396989       0.00613538
C       -1.26287125       3.54704016       3.93712740       0.00505039       0.00989737       0.00547289
C       -2.46151335       5.69840625       3.77038493      -0.00490526       0.00233165       0.00819696
C       -3.69675915       7.83661131       3.80118366      -0.00246602       0.00097866       0.00019956
C       -4.94022453       9.97177156       3.93930097       0.00745899      -0.00925901       0.01109993
C        2.44355838       1.41810533       3.78217481      -0.00518028       0.00158773      -0.00630236
N        1.15042094       3.51276464       3.93941962       0.00798031       0.00754429       0.00094063
C       -0.00709830       5.62660437       3.59275703      -0.00191633      -0.00284438       0.00357863
C       -1.22194895       7.82755317       3.67622837       0.00148483       0.00284374      -0.00191113
C       -2.47144536       9.96729882       3.80576545      -0.00028220       0.00385741      -0.00688616
C        4.91735305       1.42699027       3.60602321       0.00073119       0.00283314      -0.00987179
P        3.54819666       3.58688329       2.55400782      -0.00893945       0.00629527      -0.00169119
C        1.26134933       7.93013538       3.53504042      -0.00073755       0.00346954      -0.00107593
C       -0.01034624       9.98983193       3.76800697      -0.00037800       0.01305593      -0.00135487
C        7.37470016       1.45397073       3.81464667       0.00455498       0.00279816      -0.00670998
C        6.18496456       3.56663591       3.49285753      -0.00139115      -0.00203536      -0.01032288
C        4.94017921       5.72221047       3.40939031       0.01000751      -0.00992110       0.00406347
C        3.69312473       7.92192262       3.71893008       0.00018822      -0.00425596       0.00527372
C        2.45166359      10.03502412       3.91999707      -0.00594337      -0.00176120      -0.00011255
C        9.84589581       1.44654831       4.01159593       0.00144288      -0.00044503      -0.00100511
C        8.61926699       3.57696213       3.83330063      -0.00833585      -0.00333417      -0.00597308
C        7.40142024       5.71336252       3.68838487       0.00092821       0.00140555       0.00726740
C        6.16898327       7.84807530       3.79398510       0.00176713       0.00019550      -0.00012885
C        4.92759329       9.99545001       3.98476047      -0.00224890      -0.00508982       0.00340816
Zn       2.65816227       4.74619177       4.61027917       0.00072787      -0.00314093      -0.00947963
O        2.77043470       4.32396987       6.32566889       0.01117109      -0.01217237       0.00218712
