51
Lattice="12.336457 0.0 0.0 -6.168228499999997 10.683685154694365 0.0 0.0 0.0 15.0" Properties=species:S:1:pos:R:3:initial_magmoms:R:1:forces:R:3 energy=-443.4244043419296 free_energy=-443.4244043419296 stress="-0.0063801279877759446 0.0022799653320089122 -1.1244949396203368e-05 0.0022799653320089122 -0.0002862568766527324 -1.4977003144865787e-05 -1.1244949396203368e-05 -1.4977003144865787e-05 -4.091971080037358e-06" pbc="T T T"
C       -0.03818516      -0.00361873       3.75359401       0.00000000      -0.00278350       0.00073265       0.00407754
C       -1.28040985       2.10722030       3.62402899       0.00000000       0.00481983      -0.00339394      -0.00140570
C       -2.52303906       4.25094466       3.59559877       0.00000000       0.00179815      -0.00082787      -0.00482638
C       -3.75503153       6.39301411       3.69374093       0.00000000       0.00211937       0.00233120      -0.00279811
C       -4.98760176       8.53552918       3.80488608       0.00000000      -0.00664112       0.00065775       0.00205149
C        2.43010919       0.02060862       3.75949573       0.00000000      -0.00168379      -0.00288019      -0.00473327
C        1.20245777       2.18096735       3.60451131       0.00000000      -0.00686467      -0.00175282      -0.00013506
C       -0.07574919       4.23815681       3.44296446       0.00000000      -0.00149262       0.00246025      -0.00232738
C       -1.31669420       6.40897010       3.54574524       0.00000000       0.00996120       0.00300416       0.00241372
C       -2.53111487       8.54158781       3.70378594       0.00000000      -0.00071676      -0.00306644      -0.00175935
C        4.89437262      -0.02973711       3.75776672       0.00000000       0.00417548      -0.00161697      -0.00687162
C        3.71000891       2.09859565       3.83208178       0.00000000      -0.00076944       0.00517833      -0.00742837
C        1.12324662       6.39814505       3.46982830       0.00000000      -0.00417629       0.00143248       0.00607346
C       -0.05591261       8.51358158       3.66368227       0.00000000      -0.00021867       0.00001655      -0.00466427
C        7.36900672      -0.04794319       3.73162504       0.00000000      -0.00348343       0.00194052      -0.00703760
C        6.15445542       2.08556834       3.76770639       0.00000000       0.00320397      -0.00230177      -0.00168459
C        4.96666134       4.19416619       3.85440609       0.00000000       0.00252954       0.00088474      -0.00134312
B        3.73855543       6.37542164       4.47577932       0.00000000       0.00534784       0.00066331       0.00449810
C        2.43772477       8.49675655       3.80466626       0.00000000       0.00108254      -0.00693943      -0.00271799
C        9.82989780      -0.03210798       3.75365850       0.00000000      -0.00667302      -0.00178219      -0.00317350
C        8.60155850       2.10037352       3.68696924       0.00000000       0.00424895      -0.00040248       0.00128138
C        7.38040329       4.24313642       3.72491050       0.00000000      -0.00522582       0.00030405       0.00005005
C        6.12823163       6.36703284       3.87200691       0.00000000      -0.00764696      -0.00250474      -0.00348595
C        4.88339431       8.52840616       3.92123384       0.00000000       0.00672250       0.00444046      -0.00704431
C       -0.03702162       1.42029250       3.65737009       0.00000000      -0.00057171      -0.00466918       0.00224523
C       -1.30773231       3.52599442       3.54252990       0.00000000       0.00284266      -0.00232667      -0.00032160
C       -2.53252320       5.68197726       3.60044711       0.00000000       0.00954118       0.00393852       0.00379908
C       -3.75751428       7.82243486       3.73243643       0.00000000      -0.00514788       0.00201904       0.00462610
C       -4.97333794       9.97109220       3.77705218       0.00000000      -0.00510321      -0.00110399      -0.00041615
C        2.45704066       1.45721176       3.73886379       0.00000000      -0.00323984       0.00192334      -0.00266321
C        1.12514906       3.54736571       3.42220004       0.00000000      -0.01123816      -0.00311486      -0.00150728
C       -0.07809641       5.70246818       3.44889305       0.00000000       0.00304070       0.00046215       0.00008939
C       -1.30083070       7.82635199       3.63052299       0.00000000       0.00282262       0.00067449       0.00095306
C       -2.51747195       9.96926247       3.75099074       0.00000000       0.00265541      -0.00321234      -0.00455966
C        4.91523664       1.39113589       3.80011912       0.00000000       0.00075952       0.00184466      -0.00548097
O        3.79276375       3.47145304       4.04105570       0.00000000       0.00355440       0.00823863      -0.00264426
C        1.18424572       7.76740562       3.65283617       0.00000000      -0.00342258      -0.00162060       0.00413885
C       -0.04117420       9.93058168       3.72569746       0.00000000       0.00170895      -0.00146844      -0.00053554
C        7.37129687       1.37881111       3.72806950       0.00000000       0.00390728       0.00087129       0.00463750
C        6.16659831       3.50325009       3.76258049       0.00000000       0.00129665      -0.00515088       0.00131511
C        4.93188886       5.59752663       3.99354801       0.00000000      -0.00501556      -0.00390608       0.00822619
C        3.65400633       7.84263783       4.01010588       0.00000000       0.00781138       0.00080028       0.00191715
C        2.43193147       9.92936687       3.75362416       0.00000000      -0.00815874      -0.00205862       0.01143522
C        9.82602861       1.38971844       3.68592288       0.00000000       0.00371158      -0.00184121      -0.00723581
C        8.60003697       3.52900550       3.66504962       0.00000000      -0.00265037       0.00086696       0.00448687
C        7.36424574       5.66492478       3.75366776       0.00000000      -0.00428632       0.00231202      -0.00401920
C        6.12196911       7.80662145       3.89354184       0.00000000      -0.00110806      -0.00246342       0.00436194
C        4.89683459       9.95890064       3.80576028       0.00000000      -0.00224371       0.00506123      -0.00170634
Zn       2.44553890       4.98679009       3.25512119       0.00000000       0.00219920      -0.00285912       0.01961434
O        3.79542884       5.06861947       6.26386827       1.00000000       0.00215442       0.00962906       0.01735041
O        2.91209748       5.86337362       5.59530935       1.00000000       0.00654692       0.00057613      -0.01511559
