50
Lattice="12.336457 0.0 0.0 -6.168228499999997 10.683685154694365 0.0 0.0 0.0 15.0" Properties=species:S:1:pos:R:3:forces:R:3 energy=-430.7864377347825 free_energy=-430.7864377347825 stress="0.0018302825515668542 -0.003117806235293489 -2.1888852925191437e-05 -0.003117806235293489 -0.004368691282782877 2.16445260424362e-05 -2.1888852925191437e-05 2.16445260424362e-05 3.4815143404667617e-06" pbc="T T T"
C        0.04161251      -0.00284248       3.70018691      -0.00223985      -0.00065282      -0.00788653
C       -1.20415058       2.13736877       3.59037026       0.00175430      -0.00476715      -0.00277524
C       -2.42508594       4.28393143       3.64392918      -0.00346148       0.00254849      -0.00619800
C       -3.64823593       6.40771293       3.78821138       0.00127054       0.00348443      -0.00023632
C       -4.88946827       8.53857207       3.81816263      -0.00052821       0.00268474      -0.00481081
C        2.49838787       0.00148677       3.74065183       0.00533306       0.00936830      -0.01400706
C        1.22879080       2.11499614       3.65305999       0.00224446      -0.00740065      -0.00139826
C        0.01751961       4.20885410       3.73377746      -0.00243225      -0.00357721       0.01740957
C       -1.12578595       6.37073770       3.85020897      -0.00761818      -0.00306359       0.00198327
C       -2.40204492       8.53083856       3.85552122      -0.00022320       0.00746923      -0.00646597
C        4.96692808       0.00766616       3.71866625       0.00611013       0.00158232      -0.00085642
C        3.70580271       2.11050466       3.36016757      -0.00134473       0.00549952       0.00937944
P        1.69656866       6.22327826       4.48628848       0.00928256       0.00061746      -0.00048129
C        0.06490941       8.56142128       3.98234544       0.00361244      -0.00456833      -0.00017623
C        7.42357905       0.04608004       3.72419285       0.00304074      -0.00432770      -0.00682631
C        6.18502058       2.15855210       3.51115808      -0.00051154      -0.00226096      -0.01062951
C        4.98477994       4.31013787       3.45194815      -0.00013904      -0.00125840      -0.00190862
B        3.57321013       6.41652610       3.89166972      -0.00178978       0.00323491      -0.00221406
C        2.50952911       8.64943134       3.91532189       0.00295400       0.00478435      -0.00276794
C        9.91137283       0.03665713       3.67358125      -0.01107891       0.00525212       0.00920927
C        8.66117623       2.16154011       3.58676732      -0.00359465       0.01057755       0.00099283
C        7.43651958       4.29095024       3.63459907      -0.00259093       0.00372248       0.00646944
C        6.18242790       6.41431660       3.80393893       0.00572226      -0.00842509      -0.01474980
C        4.97501649       8.56560572       3.79068652       0.00001719       0.00139959       0.00311128
C        0.02788145       1.42144397       3.63274679       0.00330574      -0.00431492       0.00573329
C       -1.20111071       3.54888081       3.60094972      -0.00416035      -0.00679547       0.01121598
C       -2.39597031       5.69562985       3.75071535      -0.00697521      -0.00054628       0.00884584
C       -3.64673355       7.82797715       3.83474864       0.00095236       0.00556766      -0.00644865
C       -4.89399594       9.96676884       3.77112912       0.00347071       0.00706655       0.00260522
C        2.47618059       1.42766649       3.60023947       0.00282836       0.00396718      -0.00970505
O        1.18635665       3.46943659       3.88692750      -0.00414351      -0.01423337       0.00503797
C        0.09606838       5.59359668       3.87019915      -0.00834668      -0.00791160       0.00738185
C       -1.16003807       7.81210879       3.91591304      -0.00413675       0.00014510       0.00421097
C       -2.42596417       9.96485412       3.78545808       0.00616721       0.00899948       0.00187451
C        4.94944233       1.43532629       3.52140142      -0.00281344       0.00024233      -0.00811564
P        3.63888197       3.66855644       2.56564939       0.00381361      -0.00941790      -0.00142269
C        1.31708653       7.95002263       4.13939126       0.00077809       0.00518964      -0.00297711
C        0.03456945       9.99860322       3.81733299       0.00390233      -0.00656328      -0.00887146
C        7.42013586       1.45936471       3.59807177       0.00082569      -0.00058923       0.00896532
C        6.20347435       3.57624534       3.51524829      -0.00229023      -0.00128473       0.01305933
C        4.92875738       5.70095917       3.74536365      -0.00078932      -0.00125409      -0.00256963
C        3.72743772       7.91043615       3.85905436       0.00131074       0.00185206       0.00597124
C        2.50025516      10.05176157       3.75728563      -0.00480005      -0.00173925       0.00419911
C        9.90432977       1.45125274       3.60027737      -0.00394734       0.00633023      -0.00191497
C        8.66788883       3.58102093       3.61005514      -0.00431965       0.01137764      -0.00198524
C        7.43765989       5.70938215       3.74729317       0.00739064      -0.00070518       0.00235544
C        6.20701121       7.83589439       3.81822755       0.00148307      -0.00680466      -0.00233719
C        4.97463051       9.99181545       3.71838673      -0.00701214       0.00482129      -0.00433599
Zn       1.72281286       4.19706798       7.19718820       0.00519754      -0.01331786      -0.01224711
O        1.69124537       5.90006250       5.99869606       0.00851966      -0.00200493       0.01730793
