52
Lattice="12.336457 0.0 0.0 -6.168228499999997 10.683685154694365 0.0 0.0 0.0 15.0" Properties=species:S:1:pos:R:3:initial_magmoms:R:1:forces:R:3 energy=-445.72989515366424 free_energy=-445.72989515366424 stress="-0.003374342283307523 -0.0026910086278360205 8.912739231156821e-06 -0.0026910086278360205 -0.002443039796205138 8.57481160571284e-06 8.912739231156821e-06 8.57481160571284e-06 -1.6708037499266304e-06" pbc="T T T"
C       -0.02337125      -0.02269807       3.57607966       0.00000000       0.00362731       0.00311402      -0.01450272
C       -1.28206387       2.09461598       3.65397109       0.00000000      -0.00191965      -0.00635283      -0.00807847
C       -2.52206274       4.24378593       3.73798248       0.00000000       0.00392636      -0.00165317       0.00107842
C       -3.72080468       6.38917965       3.68493041       0.00000000      -0.00333640      -0.00481788      -0.00322877
C       -4.95252789       8.52475437       3.54737299       0.00000000      -0.00013606      -0.00325511      -0.01128656
C        2.44841027      -0.01703819       3.72252903       0.00000000       0.00217941      -0.00431300      -0.00623892
C        1.19459073       2.10309033       3.73855802       0.00000000       0.00328683       0.00775873       0.00055324
C       -0.09515685       4.19907890       3.86574520       0.00000000       0.00695322       0.00303517       0.00961015
C       -1.26490995       6.37337393       3.92895845       0.00000000       0.00380172       0.00126523       0.00965779
C       -2.47541314       8.52059165       3.78322378       0.00000000      -0.00484526      -0.00808579      -0.00089097
C        4.91399505      -0.01972981       3.78930159       0.00000000       0.00339490       0.00595559      -0.01309876
C        3.66674278       2.14795865       3.79608309       0.00000000      -0.00414971       0.00204926      -0.00474783
B        2.37062790       4.37792086       3.95618335       0.00000000       0.00356501       0.00045902       0.00092954
P        1.54511704       6.16054267       4.44423557       0.00000000       0.00300260      -0.00021812       0.00027800
C        0.00807037       8.50498118       3.83224988       0.00000000      -0.00304222       0.00498334       0.00140707
C        7.37183499      -0.01890482       3.67564404       0.00000000      -0.00034680      -0.00461528       0.00001215
C        6.13662775       2.11772278       3.74055369       0.00000000      -0.00206673      -0.00295148      -0.00520116
C        4.91866601       4.26228961       3.57436657       0.00000000      -0.00333873      -0.00362571       0.00197165
S        3.63019758       6.32344095       2.36650767       0.00000000       0.01098613       0.00721070      -0.00478387
C        2.45647486       8.54691589       3.46103671       0.00000000       0.00064315       0.00483037       0.00227640
C        9.84251459      -0.01897358       3.52221423       0.00000000      -0.00515094      -0.00228187      -0.00276646
C        8.59625887       2.11146205       3.66015806       0.00000000      -0.01181659      -0.00596289      -0.00122560
C        7.37020311       4.25520516       3.65046161       0.00000000      -0.00521382      -0.00327995      -0.01184053
C        6.16236281       6.39391929       3.36686062       0.00000000      -0.00026072       0.00129008       0.00379776
C        4.92532714       8.53463861       3.29403659       0.00000000       0.00506813       0.00657010       0.00559213
C       -0.03929924       1.39070485       3.65402761       0.00000000       0.00424577       0.00268028      -0.00075100
C       -1.31450362       3.50722758       3.73976693       0.00000000       0.00747741      -0.00400758       0.00721113
C       -2.50320226       5.66844587       3.79329608       0.00000000       0.00225234       0.00102903       0.00351040
C       -3.71389894       7.81463151       3.67484233       0.00000000      -0.00734667      -0.00730301       0.00814626
C       -4.95187603       9.95273109       3.61365764       0.00000000       0.00105778      -0.00343844      -0.00819625
C        2.44233981       1.40950207       3.76203915       0.00000000      -0.00154296       0.00022882       0.00347172
C        1.14208866       3.51185072       3.82232814       0.00000000       0.00607252       0.00640441       0.01164903
C       -0.08983667       5.59743859       4.06148696       0.00000000       0.00851069       0.00512459      -0.00435048
C       -1.24147637       7.80439112       3.87935686       0.00000000      -0.00244264      -0.00111278       0.00395408
C       -2.48497294       9.94936086       3.77213114       0.00000000       0.00487360      -0.00427159       0.00108821
C        4.90257368       1.41246229       3.78096333       0.00000000      -0.00186739       0.00591321      -0.00327551
C        3.67264661       3.59498110       3.76931283       0.00000000      -0.00383566      -0.00016759       0.00353463
C        1.27745390       7.82204906       3.78707435       0.00000000      -0.00096564       0.00858203       0.00743342
C       -0.01812116       9.94224658       3.76455924       0.00000000       0.00095956       0.00355112       0.00145039
C        7.36635808       1.40322500       3.69439665       0.00000000      -0.00777001      -0.00961304       0.00691517
C        6.14542935       3.54223815       3.67266782       0.00000000      -0.00425630      -0.00475083      -0.00235837
C        4.98231613       5.63582078       3.20170098       0.00000000       0.00299088      -0.00291020      -0.00127931
C        3.68266311       7.89126487       3.12017654       0.00000000       0.00564603       0.00814514       0.00372098
C        2.44097171       9.96811366       3.54116124       0.00000000      -0.00217264      -0.00062997       0.00516611
C        9.82845826       1.39590775       3.60812763       0.00000000      -0.00981314      -0.00552732       0.00459663
C        8.59188936       3.53450120       3.68579289       0.00000000      -0.00324253      -0.00267332       0.00793040
C        7.38441743       5.67909004       3.57938858       0.00000000      -0.00464297      -0.00209304       0.00292390
C        6.15879662       7.81774364       3.35613923       0.00000000       0.00233852       0.00139478      -0.00160524
C        4.91396951       9.95663164       3.46650961       0.00000000       0.00054675       0.00584796      -0.00238118
Zn       2.40124302       5.96487542       6.49754983       0.00000000      -0.00022136       0.00678477      -0.01670136
O        3.48228274       5.28704816       8.92416971       1.00000000       0.00204466      -0.00891527      -0.00227163
O        2.88392230       6.28215418       8.31803038       1.00000000      -0.00370774       0.00461931       0.01119415
