51
Lattice="12.336457 0.0 0.0 -6.168228499999997 10.683685154694365 0.0 0.0 0.0 15.0" Properties=species:S:1:pos:R:3:initial_magmoms:R:1:forces:R:3 energy=-434.07996015429825 free_energy=-434.07996015429825 stress="0.0013544171894036476 0.001109302541483857 -2.9938795652808528e-05 0.001109302541483857 -0.0032603719461072648 1.2583320268481284e-05 -2.9938795652808528e-05 1.2583320268481284e-05 2.1846217499697107e-05" pbc="T T T"
C        0.00490890       0.03232275       3.55865173       0.00000000       0.00248374       0.00037696       0.00213735
C       -1.23429785       2.16984485       3.36495916       0.00000000       0.00297136      -0.00083438      -0.00182194
C       -2.48846853       4.30727059       3.52734525       0.00000000      -0.00370635      -0.00174103      -0.00628835
C       -3.72063514       6.43084918       3.72301939       0.00000000      -0.00251104       0.00444694       0.00295314
C       -4.94901622       8.56090120       3.72552758       0.00000000      -0.00957585       0.01198354       0.00211096
C        2.47501431       0.02892170       3.67944903       0.00000000      -0.00439277       0.00365263       0.00637304
C        1.26699180       2.12622299       3.23625326       0.00000000      -0.00367236      -0.00085397      -0.00457388
C       -0.06060559       4.32033849       3.19897303       0.00000000       0.00160855       0.00457010      -0.00367109
C       -1.23250806       6.43308688       3.71732839       0.00000000      -0.00033392      -0.00361200      -0.00280780
C       -2.46938792       8.56005608       3.80767934       0.00000000       0.00179123      -0.00283789       0.00893371
C        4.92987411       0.01700540       3.79134847       0.00000000       0.00154084       0.00240122       0.00512904
C        3.73348410       2.14351412       3.69625583       0.00000000      -0.00333785      -0.00052234       0.00016296
P        1.58509864       6.20483184       4.17858211       0.00000000      -0.01171432      -0.00209032      -0.00806868
C        0.00244705       8.57584563       3.93090509       0.00000000       0.01041698      -0.00888005       0.00457818
C        7.39455385       0.05115587       3.77517511       0.00000000      -0.00014933      -0.00476232       0.00161271
C        6.16374323       2.16304096       3.73801271       0.00000000       0.00777659       0.00068348       0.00827816
C        4.92729987       4.24223437       3.83100933       0.00000000       0.00579987      -0.00192321       0.00206890
B        3.54254794       6.42444680       3.88012329       0.00000000      -0.01398238       0.00104913      -0.01077253
C        2.47626696       8.65328776       3.87483706       0.00000000      -0.00510032       0.00432865       0.00525975
C        9.87649930       0.05956245       3.63352998       0.00000000       0.00331548       0.00236860      -0.00399343
C        8.63179794       2.17750797       3.60172462       0.00000000      -0.01000117       0.00731465       0.00358854
C        7.38032697       4.30518066       3.69803051       0.00000000       0.00018347      -0.00054170      -0.00215922
C        6.11002241       6.40700015       3.77113424       0.00000000       0.01283492      -0.00748785       0.00411623
C        4.93161661       8.58814167       3.72402898       0.00000000      -0.00108574      -0.00668823       0.00647898
C        0.01528595       1.45745363       3.37169384       0.00000000       0.00141304      -0.00517864      -0.00950786
C       -1.26996804       3.58640333       3.33130041       0.00000000       0.00394549       0.00026677      -0.00891875
C       -2.48024943       5.72793608       3.65289020       0.00000000      -0.00485174      -0.00192372      -0.00357022
C       -3.71179257       7.85241489       3.76003816       0.00000000      -0.01006563       0.00882874       0.00642938
C       -4.93492357       9.99305004       3.65683394       0.00000000      -0.00242349       0.00976664      -0.00050045
C        2.49401180       1.45792905       3.54934038       0.00000000      -0.00686479       0.00043938       0.00277253
P        1.35649794       3.67595253       2.41947213       0.00000000       0.00159011       0.00338626       0.00513215
C       -0.01177432       5.68619885       3.57535576       0.00000000      -0.00465405      -0.00066208       0.00964183
C       -1.23384967       7.85146865       3.85119488       0.00000000       0.01044088      -0.00617578       0.00414210
C       -2.47100181       9.99086995       3.78228012       0.00000000      -0.00215521       0.00022963       0.00459821
C        4.93359376       1.44662484       3.74630876       0.00000000       0.00253980       0.00655047       0.00594722
O        3.75915667       3.50431623       3.93687158       0.00000000       0.00291502      -0.00164376       0.00802681
C        1.26250997       7.93744264       4.03289278       0.00000000       0.00394290      -0.00987331      -0.01265943
C       -0.00148534      10.00381247       3.84779870       0.00000000       0.00259436      -0.00580597      -0.00298604
C        7.39294644       1.47004228       3.70359579       0.00000000       0.00001023      -0.00411182      -0.00199941
C        6.15155041       3.57720355       3.74829460       0.00000000       0.00828107      -0.00180450       0.00505206
C        4.86549856       5.65455258       3.82324305       0.00000000       0.00337469       0.00018785      -0.00519223
C        3.68699377       7.92285744       3.80555843       0.00000000      -0.00985908       0.00749475       0.00135741
C        2.46988877      10.05921667       3.76194277       0.00000000       0.00052875       0.00095740       0.00002659
C        9.87320456       1.47196261       3.52600579       0.00000000      -0.00589125       0.00759020       0.00076684
C        8.61930861       3.59852028       3.60341048       0.00000000      -0.00826409       0.00513841      -0.00400028
C        7.36551598       5.72029816       3.72954212       0.00000000       0.00862353      -0.00469889      -0.00685211
C        6.14635829       7.84272724       3.73989094       0.00000000       0.00197519      -0.00613782      -0.01370730
C        4.94008539      10.01967749       3.63537866       0.00000000       0.00504655      -0.00469617      -0.00010244
Zn       2.26698078       5.20232281       6.05971203       0.00000000       0.00724419       0.00416821       0.01021705
O        3.06496643       5.02102959       8.69031732       1.00000000       0.00490205      -0.01030410      -0.01296724
O        2.45012650       4.33079655       7.76457168       1.00000000       0.00450187       0.00761120      -0.00077114
