50
Lattice="12.336457 0.0 0.0 -6.168228499999997 10.683685154694365 0.0 0.0 0.0 15.0" Properties=species:S:1:pos:R:3:forces:R:3 energy=-428.5374958373243 free_energy=-428.5374958373243 stress="0.004647343635631661 -1.965227458077896e-05 -3.0927137268079204e-06 -1.965227458077896e-05 -0.01127529148781256 3.244215791084828e-05 -3.0927137268079204e-06 3.244215791084828e-05 1.6665203769586213e-05" pbc="T T T"
C        0.00630504       0.00110436       3.86800939      -0.00152346      -0.00835896       0.00264511
C       -1.20847424       2.17117481       3.81008412      -0.00695442      -0.00138466       0.00131643
C       -2.43926473       4.28952872       3.67254195      -0.00412489       0.00838617       0.00026554
C       -3.69803456       6.40360742       3.66181988       0.00157789       0.00768156      -0.00060647
C       -4.94396094       8.52217895       3.81151458       0.00318794      -0.00150621      -0.00554214
C        2.46942354      -0.07059113       3.75485627       0.00062695      -0.00765484      -0.00455613
C        1.26929397       2.07865873       3.83180963       0.00092282      -0.00262030       0.00013590
C        0.08602834       4.28618122       3.65104151      -0.00697896      -0.00144100      -0.00741652
C       -1.20669494       6.41126821       3.45569699       0.00197138      -0.00264884       0.00151596
C       -2.45525230       8.52224987       3.58791487      -0.00185511      -0.00701516      -0.00368139
C        4.93252560      -0.00252839       3.61896909      -0.00518411       0.00384007       0.00298568
C        3.67057161       2.07446454       3.74717624       0.00161842       0.00027387      -0.00147461
P        1.57261234       6.32944300       2.80228451       0.00436189      -0.00116174       0.00109359
C        0.01230111       8.57964614       3.44387651      -0.01019459       0.00682471       0.00894617
C        7.39220128       0.06377895       3.64743771       0.00595121      -0.00325924       0.00436739
C        6.14935665       2.16262148       3.65624804       0.00299525       0.00205842      -0.00133864
C        4.85898704       4.26923484       3.75682419      -0.00317587       0.00069021       0.00386160
P        3.39057860       6.30424541       4.49332335      -0.00597451       0.00892582       0.00492123
C        2.46060457       8.66936607       3.74994526       0.00372799       0.00041928      -0.00842052
C        9.88063804       0.06593999       3.83698228      -0.00043663       0.00136157       0.00254691
C        8.63866404       2.18047131       3.71669055      -0.00080727      -0.00727650      -0.00556806
C        7.38106816       4.28800202       3.67735140       0.00946873      -0.00067312       0.01104663
C        6.15042195       6.41372481       3.86033540       0.00154381       0.00452642      -0.00170467
C        4.92842860       8.58289675       3.99438885       0.00277202       0.00744116      -0.00305505
C        0.01711395       1.43165676       3.84742948      -0.00297657      -0.00638013      -0.00224318
C       -1.18027295       3.58540319       3.72796141      -0.00952350       0.00178520      -0.00200611
C       -2.44902755       5.70369198       3.59173399      -0.00096176       0.00882907      -0.00327131
C       -3.70004498       7.81939751       3.68385435       0.00033467       0.00205985      -0.00451989
C       -4.94140759       9.93850225       3.81855956       0.00040574      -0.00676814       0.00102291
C        2.46909391       1.33706827       3.78766379       0.00376308      -0.00423322       0.00915963
B        1.49928162       3.58216938       3.83369231       0.00312277       0.00986985       0.00362789
C        0.01480696       5.66982724       3.37726705       0.00534741      -0.00033153       0.00743637
C       -1.21656359       7.83452323       3.45406167      -0.00431829      -0.00571176       0.00660269
C       -2.45795462       9.93761763       3.64917557      -0.00102249      -0.00761112      -0.00141828
C        4.92241456       1.42587436       3.67301552       0.00130477       0.00488744      -0.00540570
B        3.43695637       3.57348826       3.82555972      -0.00495424      -0.00281717      -0.00260233
C        1.27599188       7.95570965       3.40890693      -0.00714535       0.00996629      -0.00799272
C       -0.00006722      10.00578587       3.56303004      -0.00365034       0.00835968       0.00429592
C        7.39280489       1.47628111       3.66884961       0.00129955      -0.00561034       0.00009198
C        6.12345907       3.57680455       3.67329200       0.00345688       0.00271881       0.00295062
C        4.93582500       5.66827906       3.93365559      -0.00314921       0.00328632      -0.00071351
C        3.65938110       7.96664449       4.06248942       0.00569421       0.00496008      -0.00102241
C        2.46650597      10.07254874       3.74951436       0.00738342      -0.00160842      -0.00257118
C        9.88415563       1.47945440       3.79201990      -0.00469008      -0.00228629       0.00642546
C        8.63877646       3.59406610       3.68686582       0.00566405      -0.00544190      -0.00028378
C        7.39057779       5.70385488       3.72569698       0.00604464       0.00290188       0.00366067
C        6.15310529       7.83447871       3.91917376       0.00275014       0.00617567      -0.00024266
C        4.93857641      10.00908761       3.90795347      -0.00404448       0.00252769      -0.00499602
Zn       2.37850019       4.59553615       5.56516039       0.00785499      -0.01443776       0.00005909
O        2.34347338       4.41833812       7.29072393      -0.00150650      -0.01251869      -0.00832809
