51
Lattice="12.336457 0.0 0.0 -6.168228499999997 10.683685154694365 0.0 0.0 0.0 15.0" Properties=species:S:1:pos:R:3:initial_magmoms:R:1:forces:R:3 energy=-436.4858805360058 free_energy=-436.4858805360058 stress="-0.0003639839589115565 0.0012943466461165273 1.679349169299359e-05 0.0012943466461165273 -0.004629172652643537 2.8143688819695352e-05 1.679349169299359e-05 2.8143688819695352e-05 2.1351099043073337e-05" pbc="T T T"
C       -0.00574495       0.05538974       3.59843792       0.00000000      -0.00414000      -0.00176635       0.00281413
C       -1.24680526       2.18580601       3.33968028       0.00000000      -0.00002731      -0.00038762       0.00318112
C       -2.50703186       4.32641680       3.44102319       0.00000000      -0.00058832       0.00159884       0.00309811
C       -3.73449001       6.45049705       3.68182764       0.00000000       0.00678796      -0.00196392       0.00034732
C       -4.95863979       8.58417779       3.74917507       0.00000000       0.00078612      -0.00292696      -0.00439092
C        2.45946066       0.04243438       3.76714351       0.00000000       0.00005698      -0.00098725       0.00084757
C        1.26292258       2.13810236       3.32002460       0.00000000       0.00062663       0.00192183       0.00734176
C       -0.09627362       4.34585275       3.05451121       0.00000000      -0.00335165       0.00107455      -0.00549018
C       -1.25173542       6.45720294       3.61551774       0.00000000       0.00152170       0.00635867       0.00532282
C       -2.48009457       8.58006031       3.81141666       0.00000000      -0.00035866      -0.00185620       0.00530153
C        4.92502187       0.03685907       3.85612735       0.00000000       0.00049444      -0.00321397       0.00289797
C        3.71458058       2.18380263       3.90518266       0.00000000       0.00551810       0.00090482      -0.00071620
P        1.54835518       6.21659620       4.06074593       0.00000000      -0.00042995       0.01645698      -0.00478579
C       -0.00917625       8.58941484       3.92139074       0.00000000      -0.00237217       0.00216711       0.00083233
C        7.38606427       0.06759297       3.80864271       0.00000000      -0.00129953       0.00064333       0.00027243
C        6.15784082       2.17826236       3.79649173       0.00000000      -0.00255823       0.00284582       0.00059074
C        4.91032792       4.25665308       3.95298510       0.00000000      -0.00460733      -0.00305877      -0.00110232
B        3.53730598       6.44903235       3.85896484       0.00000000       0.00237353       0.00234623      -0.00027732
C        2.46657020       8.67206495       3.90564107       0.00000000      -0.00172937       0.00601323      -0.00989193
C        9.86723641       0.07981219       3.66092248       0.00000000       0.00234654       0.00066942       0.00363010
C        8.62109602       2.19415763       3.59209063       0.00000000       0.00010407      -0.00419963      -0.00669598
C        7.37047058       4.31796217       3.68444059       0.00000000      -0.00131808       0.00073635       0.00036936
C        6.10789476       6.43611555       3.78524915       0.00000000      -0.00017226      -0.00151740       0.00199639
C        4.92373320       8.61248364       3.75837909       0.00000000      -0.00170055       0.00167905      -0.00201615
C        0.00015872       1.47463266       3.39842532       0.00000000      -0.00081741      -0.00234917       0.00191433
C       -1.28845429       3.60379112       3.23443007       0.00000000      -0.00402547      -0.00090843      -0.00293096
C       -2.49693937       5.74790913       3.56780285       0.00000000       0.00686726       0.00425132      -0.00102714
C       -3.72250393       7.87315374       3.75411442       0.00000000       0.00248210      -0.00521810       0.00599904
C       -4.94816418      10.01430330       3.70912360       0.00000000      -0.00227821      -0.00134932      -0.00170529
C        2.46809952       1.46852710       3.68784166       0.00000000       0.00134576       0.00129540       0.00528333
P        1.41752836       3.68434732       2.47818152       0.00000000       0.00558925       0.00300652       0.00258614
C       -0.03486704       5.71621813       3.42736571       0.00000000      -0.00221058      -0.00035767       0.00309719
C       -1.24425679       7.86782239       3.81102400       0.00000000      -0.00055630       0.00446749       0.00448168
C       -2.48044418      10.00615636       3.84187423       0.00000000      -0.00000034      -0.00168745       0.00257713
C        4.93343578       1.46079851       3.84942702       0.00000000       0.00237482      -0.00198855      -0.00030193
N        3.77787921       3.51810681       4.19511935       0.00000000       0.00711679      -0.00880793      -0.01188541
C        1.24950809       7.94474678       4.02166196       0.00000000      -0.00022324       0.00384303       0.00377693
C       -0.00887816      10.01884068       3.87686129       0.00000000      -0.00059861      -0.00047109      -0.00013349
C        7.39134316       1.48258805       3.72843999       0.00000000      -0.00343502       0.00023861       0.00209267
C        6.15282934       3.58846746       3.79092951       0.00000000      -0.00306272       0.00229688      -0.00011653
C        4.86845033       5.69909856       3.87543626       0.00000000      -0.00104925      -0.00195930      -0.00436563
C        3.67781451       7.94964903       3.83366763       0.00000000      -0.00125824       0.00318699      -0.00296251
C        2.46174331      10.07625487       3.79972998       0.00000000       0.00138402       0.00566669      -0.00473303
C        9.86312349       1.49013413       3.52236216       0.00000000       0.00294713      -0.00209465      -0.00293717
C        8.60737186       3.61439344       3.56109513       0.00000000      -0.00074883      -0.00215483      -0.00072861
C        7.35992465       5.73967525       3.71199737       0.00000000       0.00246732       0.00064051       0.00398650
C        6.14026898       7.87197584       3.75932485       0.00000000      -0.00222330      -0.00004116      -0.00447967
C        4.93060163      10.04217217       3.66987441       0.00000000      -0.00285344      -0.00004569       0.00127266
Zn       2.41889117       4.56310390       5.27746653       0.00000000       0.00782383      -0.01267379       0.00128546
O        2.59792494       3.81151163       8.00076113       1.00000000      -0.00838946      -0.00305776      -0.01777422
O        2.56869564       3.27674785       6.82374109       1.00000000      -0.00263052      -0.00726669       0.01425164
