50
Lattice="12.336457 0.0 0.0 -6.168228499999997 10.683685154694365 0.0 0.0 0.0 15.0" Properties=species:S:1:pos:R:3:forces:R:3 energy=-440.32208932820623 free_energy=-440.32208932820623 stress="-0.00567350680872882 0.0006053589313118797 -1.5689433392365878e-05 0.0006053589313118797 0.0009633147585085666 6.425522803355359e-06 -1.5689433392365878e-05 6.425522803355359e-06 9.428058565507733e-06" pbc="T T T"
C       -0.01416303      -0.00074362       3.71148244       0.00869274      -0.00570789      -0.00072835
C       -1.26359758       2.10397758       3.56980879       0.00939662       0.00123023       0.00046124
C       -2.50381997       4.25095607       3.44412651      -0.00947894       0.00464915       0.00013935
C       -3.72982444       6.40089160       3.50155896      -0.00835728      -0.01065964       0.00445580
C       -4.95719154       8.54322658       3.68440508       0.00412571       0.00648878       0.00060066
C        2.45724927       0.02783419       3.72052087       0.00101328       0.01230043       0.00768434
C        1.21056390       2.17682301       3.84182179      -0.00080355      -0.00247967      -0.00036931
C       -0.07229410       4.23519639       3.72635270       0.00123887      -0.00250915       0.00201073
C       -1.29130866       6.40967796       3.55525884       0.00662268      -0.00032360       0.00739022
C       -2.50198610       8.54845165       3.59265199      -0.00653784      -0.00935444      -0.00487089
C        4.91832717      -0.02385353       3.66446490      -0.00026170       0.00367590      -0.00200166
C        3.73721586       2.10655668       3.84099350      -0.00441465      -0.00494256      -0.00263453
C        1.10748671       6.38474268       3.97778205      -0.00026536      -0.00278602      -0.00565815
C       -0.02756422       8.51138839       3.71886513       0.00503176       0.01181549      -0.00227392
C        7.39243553      -0.04899154       3.65687440       0.00317142       0.00845507       0.00291119
C        6.16989745       2.09824697       3.60176917      -0.00343331       0.00642209      -0.00721589
C        4.99797871       4.22118669       3.87088445       0.00237620      -0.01366079       0.00499331
B        3.88352621       6.44274277       4.72302031      -0.00180104      -0.00211497      -0.00177450
C        2.46919038       8.49681756       3.95121602      -0.00840196      -0.00320716       0.00329619
C        9.84992598      -0.03513886       3.68346601      -0.00068706       0.00028830      -0.00708707
C        8.61876923       2.09937323       3.49488787      -0.00870676      -0.00090491       0.00929077
C        7.39348864       4.25203561       3.50389217      -0.00156347      -0.00109627      -0.00913199
C        6.16340226       6.37193069       3.78492856       0.00403626       0.00363217      -0.00849893
C        4.92457965       8.53917258       3.91366142       0.00238825       0.00550903      -0.01231555
C       -0.01995374       1.42180772       3.69411519       0.00912171      -0.00794609      -0.00238934
C       -1.29023083       3.52420454       3.52568835      -0.00285134       0.00566630       0.00221632
C       -2.50708798       5.68514094       3.46607509      -0.00120114       0.00385255      -0.00468265
C       -3.72801493       7.83057747       3.57705202      -0.00836155      -0.01257999       0.01009307
C       -4.94556275       9.97842001       3.71087086       0.00980851       0.00568875       0.00900378
C        2.48021331       1.46189904       3.82507171      -0.00281343       0.00847329       0.00523849
C        1.08920072       3.54147596       4.00775683      -0.00180689      -0.00948522       0.00510761
C       -0.06445673       5.69713841       3.73104878       0.00437243      -0.00761306      -0.00507307
C       -1.27101213       7.82904416       3.60375785       0.00642195       0.00256110       0.00232464
C       -2.49143195       9.97620375       3.66120798      -0.00490220      -0.00002948       0.00435041
C        4.93521096       1.40087283       3.68995410      -0.00046362       0.00309983       0.00195222
O        3.83678452       3.47361568       4.06901957      -0.00730232      -0.00724332       0.00697138
C        1.20600733       7.76159289       3.89662063      -0.00550887      -0.00146885      -0.00095787
C       -0.01628306       9.93071898       3.67758136       0.00651069       0.01245832      -0.00165681
C        7.38795025       1.38089548       3.56125792      -0.00933563       0.00494086       0.00141740
C        6.17643995       3.52116095       3.60800164       0.00620721      -0.00144049      -0.00034383
C        4.99152921       5.62039585       4.01779798       0.00626829      -0.00806656      -0.01192603
C        3.70736356       7.85902643       4.14116242      -0.00077436      -0.00031437      -0.01824879
C        2.45496365       9.92117309       3.74883648      -0.00233707      -0.00120416       0.00198591
C        9.84331227       1.38480762       3.55367006       0.00096325       0.00457650       0.00844933
C        8.61506799       3.53043250       3.44094340      -0.00794370      -0.00182655       0.00365961
C        7.38788696       5.67357474       3.55477718      -0.00456187      -0.00622727      -0.00422566
C        6.15956790       7.81605485       3.81737986       0.00569296       0.00861567       0.00356471
C        4.92214687       9.96128301       3.75199545       0.00314221       0.00378009       0.00317638
Zn       2.24727178       4.88149448       4.71850256      -0.00840108      -0.00468943       0.00539692
O        3.28673493       5.95056941       5.83289758       0.01667498       0.00170198      -0.00407719
