51
Lattice="12.336457 0.0 0.0 -6.168228499999997 10.683685154694365 0.0 0.0 0.0 15.0" Properties=species:S:1:pos:R:3:initial_magmoms:R:1:forces:R:3 energy=-440.6347970150561 free_energy=-440.6347970150561 stress="-0.004349568946533342 -0.0027352168734010177 4.903848531406689e-06 -0.0027352168734010177 -0.0003006018976126021 5.396382603454712e-07 4.903848531406689e-06 5.396382603454712e-07 -4.8691136021451015e-06" pbc="T T T"
C       -0.06897404      -0.03968049       3.85340214       0.00000000       0.00726870      -0.00210786      -0.01189972
C       -1.32554788       2.07398202       3.88467665       0.00000000      -0.00187747       0.00406837      -0.00475935
C       -2.55292219       4.21742426       3.84390106       0.00000000      -0.00121725      -0.00798679      -0.00544424
C       -3.75890528       6.36728111       3.77868570       0.00000000      -0.00621483       0.00557842       0.00350934
C       -4.99078703       8.51304706       3.78826170       0.00000000      -0.00693763      -0.00216747       0.00129872
C        2.40405296      -0.04492896       3.82504987       0.00000000       0.00678007       0.00594203      -0.00363731
C        1.15469285       2.11059082       3.88373232       0.00000000      -0.00890326      -0.00070131       0.01778968
C       -0.08747637       4.20081879       3.98976401       0.00000000       0.00556209      -0.00350407       0.00306459
C       -1.32428943       6.36979404       3.91861484       0.00000000       0.00078905      -0.00016337      -0.00190772
C       -2.52967133       8.50723670       3.83673226       0.00000000      -0.00599386       0.00191812      -0.00280795
C        4.87356543      -0.05245373       3.69297623       0.00000000      -0.00155069      -0.00509998       0.01100044
C        3.60623577       2.04069862       3.43289951       0.00000000       0.00747349      -0.00887147      -0.01181244
C        1.10631353       6.35721076       4.08290324       0.00000000       0.00199797       0.00558652      -0.00515624
C       -0.05431554       8.47973593       3.83356210       0.00000000       0.00034693       0.01157178       0.00554485
C        7.33875411      -0.06787032       3.70206208       0.00000000      -0.00510437       0.00530723       0.01205018
C        6.09476847       2.09546425       3.51047685       0.00000000       0.00459263       0.00452182      -0.01471092
C        4.92053327       4.31857962       3.22633928       0.00000000       0.00117148       0.00757187      -0.00575928
O        3.76396328       6.44948227       3.28854849       0.00000000       0.00323014      -0.00396774       0.00663787
C        2.43987848       8.44633581       3.73743977       0.00000000      -0.00020442      -0.00556277       0.00496336
C        9.79435920      -0.06682207       3.77259309       0.00000000      -0.00614774       0.00279999       0.00479335
C        8.55301041       2.07954251       3.72620906       0.00000000       0.00187405      -0.00040107      -0.00631269
C        7.33551264       4.23445834       3.60483946       0.00000000       0.00157173      -0.00126387       0.00301582
C        6.14759358       6.40535051       3.52336308       0.00000000       0.00044166      -0.01128250       0.00509428
C        4.88966338       8.50637580       3.68469803       0.00000000       0.00119623      -0.00401420       0.00027789
C       -0.08523623       1.37840726       3.89814501       0.00000000      -0.00727521      -0.00462429       0.00795301
C       -1.33227843       3.49474987       3.91499779       0.00000000       0.00513547      -0.00147407       0.00383994
C       -2.54260872       5.64692542       3.85532044       0.00000000      -0.00531797       0.00160408      -0.00648455
C       -3.75574813       7.79451622       3.81224965       0.00000000      -0.00932075       0.00290804      -0.00756541
C       -4.99679314       9.93502227       3.84810035       0.00000000       0.00930416      -0.00069418       0.00105605
C        2.39391179       1.37208158       3.74332567       0.00000000      -0.00168582       0.00915397       0.00160813
C        1.12210418       3.50377047       3.98207313       0.00000000      -0.00414518      -0.00925914      -0.00813859
C       -0.08755484       5.66287302       4.00818688       0.00000000       0.00359894      -0.00209027       0.00639530
C       -1.29834621       7.78935747       3.86762286       0.00000000      -0.00129053       0.00397601      -0.00236761
C       -2.52700434       9.92785895       3.79056458       0.00000000      -0.00064235      -0.00003639      -0.00137821
C        4.86528348       1.37229127       3.52819409       0.00000000       0.00809380      -0.00373792       0.00838825
P        3.39515714       3.61392370       2.66399141       0.00000000       0.00338616      -0.00358813      -0.00460381
C        1.18497816       7.72116160       3.88245730       0.00000000       0.00051719       0.00156204      -0.00144266
C       -0.06111424       9.90570768       3.73484688       0.00000000      -0.00376048       0.01080284       0.00472929
C        7.32306324       1.36766484       3.64285840       0.00000000      -0.00034548       0.00328810      -0.00317750
C        6.10202046       3.53369095       3.43424845       0.00000000       0.00051001       0.00558242      -0.01014067
C        4.96053699       5.73141959       3.29397653       0.00000000       0.00197360       0.00061871       0.00629134
C        3.68935255       7.79947971       3.59970002       0.00000000       0.00595965      -0.00539595      -0.00441895
C        2.40630247       9.88168497       3.73668436       0.00000000      -0.00634611       0.00159602      -0.00154219
C        9.77996214       1.36074209       3.80344138       0.00000000       0.00127553       0.00524363       0.00209439
C        8.55502013       3.51004696       3.73242481       0.00000000       0.00175029      -0.00559787      -0.00314351
C        7.35751743       5.65919727       3.63655279       0.00000000      -0.00161082       0.00082197       0.00817656
C        6.13031476       7.81368024       3.66752591       0.00000000      -0.00435487      -0.00707598      -0.01074701
C        4.86858629       9.92481368       3.78532248       0.00000000      -0.00026153       0.00358284       0.00857075
Zn       2.44220616       4.91891026       4.43272958       0.00000000       0.00511817      -0.00254239       0.00093876
O        4.36443905       6.52484987       5.93825259       1.00000000       0.00082224       0.00063877      -0.00165715
O        3.71245776       5.43446756       6.01345277       1.00000000      -0.00123282      -0.00303454       0.00193353
