51
Lattice="12.336457 0.0 0.0 -6.168228499999997 10.683685154694365 0.0 0.0 0.0 15.0" Properties=species:S:1:pos:R:3:initial_magmoms:R:1:forces:R:3 energy=-432.3954881797154 free_energy=-432.3954881797154 stress="-0.002046986692972376 0.002477342241953602 2.605331149245225e-05 0.002477342241953602 -0.006792353112226782 -1.620457160811532e-05 2.605331149245225e-05 -1.620457160811532e-05 1.566874630119712e-05" pbc="T T T"
C        0.04462722      -0.03104537       3.60853533       0.00000000      -0.00474849      -0.00474736       0.00018585
C       -1.16088828       2.13558781       3.46919067       0.00000000       0.00418573       0.00648657       0.00103752
C       -2.40343793       4.26946395       3.55362016       0.00000000      -0.00199217       0.00114719      -0.00517658
C       -3.65063509       6.39194306       3.64147140       0.00000000       0.01327097       0.01227003       0.00320392
C       -4.90300842       8.51086380       3.63807144       0.00000000      -0.00641442       0.00312895      -0.00858070
C        2.50753077      -0.04881529       3.79604068       0.00000000       0.01105485       0.00157307      -0.00383039
C        1.31813065       2.04307607       3.48425627       0.00000000       0.00219576      -0.00891083      -0.00210368
C        0.01577666       4.30972245       3.21684760       0.00000000       0.00524149       0.00020090      -0.00081362
C       -1.18646532       6.41635795       3.53747131       0.00000000       0.00642743      -0.00806583      -0.00474199
C       -2.43042838       8.52654239       3.70680917       0.00000000       0.00256527       0.00034409      -0.00028924
C        4.97932117      -0.01824796       3.87417991       0.00000000       0.00869542      -0.00155954       0.00015518
C        3.73727415       2.04000687       4.22046008       0.00000000       0.00213082       0.00626474       0.01208756
C        1.29873551       6.43704174       3.65729542       0.00000000      -0.01702729      -0.00176708      -0.00692523
C        0.02998951       8.55516362       3.69449230       0.00000000      -0.00770526       0.00112115       0.01210030
C        7.44760374       0.00997343       3.78392375       0.00000000       0.00411889       0.00220351      -0.00015720
C        6.23101114       2.12382340       4.04860792       0.00000000      -0.01077218      -0.01105052       0.00232604
C        5.09062362       4.29151924       4.28248302       0.00000000       0.00134856      -0.00036158       0.00249358
P        3.43345699       6.15680019       3.13100208       0.00000000       0.00426657      -0.00082789      -0.00038679
C        2.49741441       8.58512733       3.61247682       0.00000000      -0.00615627      -0.00305327      -0.01076040
C        9.92604453       0.00615296       3.62675239       0.00000000      -0.00407967      -0.00825479      -0.00236964
C        8.70160520       2.13625642       3.73068878       0.00000000       0.00008236      -0.00678581      -0.00119397
C        7.48085965       4.25824746       3.83211984       0.00000000      -0.00284526       0.00212485      -0.00147651
C        6.21701659       6.37967114       3.68650887       0.00000000      -0.00344028      -0.00056933      -0.00284912
C        4.96618167       8.52106527       3.54143097       0.00000000       0.00658219       0.00649615       0.00655014
C        0.06031117       1.40314015       3.51568017       0.00000000      -0.00119109      -0.00409183       0.00561116
C       -1.16780281       3.55825926       3.39486973       0.00000000       0.00304030       0.00848381       0.00250543
C       -2.41040467       5.69127341       3.57142017       0.00000000       0.00847290      -0.00082880      -0.00322543
C       -3.66129723       7.81162582       3.65808169       0.00000000      -0.00138734       0.01230723       0.00074974
C       -4.89697586       9.93342177       3.67204515       0.00000000       0.00080622       0.00318708      -0.00743612
C        2.51904254       1.37211973       3.86545825       0.00000000       0.00982167       0.00373040      -0.00483975
S        1.46612383       3.54784986       2.66889771       0.00000000      -0.00557084       0.00850899       0.00620424
C        0.06843667       5.72048325       3.43615589       0.00000000       0.00037718      -0.00690547       0.00653250
C       -1.19519474       7.83220501       3.65692769       0.00000000      -0.00171999      -0.00700989      -0.00034899
C       -2.42195272       9.94181553       3.80805968       0.00000000       0.01132673      -0.00252630       0.01138393
C        4.98686845       1.40309875       4.05825227       0.00000000      -0.00482038      -0.00681758      -0.00439774
S        3.76536949       3.52265168       5.12101852       0.00000000       0.00266453      -0.01168156      -0.00386836
C        1.26670696       7.85110265       3.65001246       0.00000000      -0.01121222      -0.00517259      -0.00092868
C        0.04459988       9.97256182       3.78616976       0.00000000       0.00830759       0.00199523       0.01237171
C        7.45570133       1.42894136       3.85985752       0.00000000      -0.00434869      -0.00166432      -0.00110160
C        6.26605728       3.53902488       4.07897564       0.00000000      -0.00326183      -0.00632372       0.01476339
C        5.00800217       5.62462242       3.83815068       0.00000000      -0.00978393      -0.00154535      -0.00972349
C        3.70455489       7.86496927       3.47559770       0.00000000       0.00504174       0.01539120       0.00122002
C        2.51370201      10.00037100       3.68085165       0.00000000      -0.00384735      -0.00522941       0.00452559
C        9.94100893       1.43271229       3.61053686       0.00000000       0.00302672      -0.00640611      -0.01303227
C        8.70937082       3.55341881       3.70749590       0.00000000      -0.00387701      -0.00338433      -0.00008328
C        7.45991240       5.67689376       3.71909923       0.00000000       0.00884514       0.00969190       0.00347454
C        6.20021874       7.80124078       3.58605143       0.00000000      -0.00180455      -0.00418686      -0.00498958
C        4.97565957       9.95302048       3.58486900       0.00000000      -0.00202828      -0.00266735       0.01110077
Zn       2.29103748       5.30013115       5.10819247       0.00000000       0.00004810       0.01656365      -0.00963290
O        1.51286641       4.99294409       7.73272275       1.00000000      -0.01022370       0.01177118      -0.00210886
O        0.98210154       5.33195934       6.59461094       1.00000000      -0.00368666      -0.00259654      -0.00321099
