50
Lattice="12.336457 0.0 0.0 -6.168228499999997 10.683685154694365 0.0 0.0 0.0 15.0" Properties=species:S:1:pos:R:3:forces:R:3 energy=-434.6451925178187 free_energy=-434.6451925178187 stress="-0.0013482665976754505 -0.003337652053120239 -1.0182184516033232e-05 -0.003337652053120239 -0.0008757113382211507 7.336515866866691e-07 -1.0182184516033232e-05 7.336515866866691e-07 2.09736802042106e-05" pbc="T T T"
C       -0.02122363      -0.00346587       3.87908077      -0.00248576       0.00345913      -0.00644804
C       -1.26724115       2.12540687       3.80065074       0.00726868      -0.00139204      -0.00397894
C       -2.48295807       4.26090783       3.69502532      -0.00088756      -0.00040110       0.00054137
C       -3.70436237       6.40449427       3.70523003      -0.00241808      -0.00620808       0.00099022
C       -4.94291119       8.54437976       3.81136028       0.00274296       0.00181807       0.00483776
C        2.45259558      -0.02493506       3.84618157      -0.00861372      -0.00238454       0.00196420
C        1.20374146       2.12333061       3.84701409       0.00839732       0.00094104      -0.00468312
C        0.00931445       4.24752025       3.78031988      -0.00121305      -0.00272535      -0.00819305
C       -1.25503498       6.40687801       3.77517304       0.00392946       0.00008795       0.00619640
C       -2.47637266       8.53953776       3.79463471       0.00072176       0.00560323      -0.00616967
C        4.91795411      -0.00559406       3.71590699      -0.00021658       0.01006836      -0.00196576
C        3.63414008       2.08610287       3.51283095      -0.00380843      -0.00456660      -0.00567802
C        1.15231097       6.40539578       4.15317452      -0.00751869       0.00382258      -0.00312079
C       -0.00478878       8.52781328       3.84052629       0.00203270      -0.00381720      -0.00001619
C        7.38301625      -0.01136539       3.73393108      -0.00648314      -0.00387160       0.00142440
C        6.12836942       2.14922258       3.54755977      -0.00110756       0.00542032       0.01876954
C        4.91850336       4.37393153       3.37486458       0.00846767       0.00422217       0.00038103
O        3.79349526       6.50154849       3.45251130      -0.00106827       0.00409432      -0.00606041
C        2.48066556       8.50546084       3.83797678       0.00078814       0.00206756       0.01229762
C        9.84183686      -0.01383449       3.80005012       0.00081185      -0.00360464      -0.00119106
C        8.60225052       2.13050681       3.68161676      -0.00599181      -0.00025753      -0.00220338
C        7.37602129       4.27737015       3.58556065      -0.00381891      -0.00304041       0.00053185
C        6.18406995       6.44103380       3.61592999       0.00396814      -0.00123727       0.00094267
C        4.93456466       8.55283982       3.78930838       0.00622475      -0.00745249       0.00131318
C       -0.03484743       1.41710081       3.87650759       0.01072377       0.00321050      -0.00439824
C       -1.24687327       3.54667840       3.74391154       0.00004063      -0.00057261       0.00072763
C       -2.47714772       5.68797304       3.71020434       0.00243766       0.00005265      -0.00040305
C       -3.70438994       7.82823523       3.77274343       0.00100419      -0.00183018       0.00546065
C       -4.95103961       9.96373533       3.87366574      -0.00834772       0.00127258      -0.00561018
C        2.43673447       1.38409881       3.77257096       0.00103130      -0.00706966       0.00487020
C        1.24450707       3.53035215       3.80849210      -0.00430466      -0.00042304      -0.00169717
C       -0.01302186       5.70478294       3.87492206      -0.00175060      -0.00061968       0.00321470
C       -1.24171735       7.82662264       3.79944479       0.00193340       0.00157320       0.00426548
C       -2.47546293       9.95898675       3.79492690      -0.00269518       0.00853791      -0.00515501
C        4.89925479       1.42486904       3.57948520      -0.00011731       0.01027103       0.00425484
P        3.28894648       3.72351074       2.96914342      -0.00187197      -0.00578879       0.00298789
C        1.23094272       7.77155008       3.94591447       0.00157825      -0.00193924      -0.00219613
C       -0.01448656       9.95702633       3.75923187      -0.00453018      -0.00312622       0.00083375
C        7.36348352       1.42308354       3.65029220      -0.00743201      -0.00212258       0.00183336
C        6.11953070       3.59026637       3.48675718       0.00211927       0.00202591       0.00338583
C        4.97327475       5.77682301       3.46744998       0.00210729       0.00554169      -0.00428411
C        3.73189964       7.85215620       3.73005826       0.00182751       0.00197769       0.00556231
C        2.45261186       9.93701657       3.79025364      -0.00290591      -0.00141930      -0.00536481
C        9.83274893       1.41522509       3.76568959       0.00133258      -0.00008206      -0.00347727
C        8.61080282       3.55767438       3.64988745      -0.00500929       0.00130466       0.00365816
C        7.40304028       5.69715942       3.63359650      -0.00336206      -0.00612588      -0.00135119
C        6.17351217       7.84922343       3.74811589       0.00918483      -0.00333032      -0.00119494
C        4.91227102       9.97246502       3.84031226       0.00222403      -0.00661634       0.00703007
Zn       2.41156525       5.03738771       4.85194681      -0.00642624       0.00977212       0.00139022
O        3.52358697       4.80339185       6.21435410       0.01148654      -0.00511989      -0.01482475
