52
Lattice="12.336457 0.0 0.0 -6.168228499999997 10.683685154694365 0.0 0.0 0.0 15.0" Properties=species:S:1:pos:R:3:forces:R:3 energy=-437.418832884792 free_energy=-437.418832884792 stress="-0.002219590923182118 -0.0008096685774197062 1.987646444632931e-05 -0.0008096685774197062 -0.004844685658534512 -8.356501181830553e-05 1.987646444632931e-05 -8.356501181830553e-05 -1.5373452579913633e-05" pbc="T T T"
C        0.12199213      -0.05077320       3.73700980       0.01017449      -0.00453551      -0.00607556
C       -1.11732031       2.08783757       3.51431912       0.00624199       0.00205700      -0.00028234
C       -2.37299111       4.23138277       3.51812086      -0.00270821      -0.00754835       0.02135633
C       -3.58409291       6.36928930       3.68544479      -0.00254618      -0.00813425      -0.00041579
C       -4.79914968       8.50214769       3.78936899      -0.00480659      -0.01324889       0.00682983
C        2.59421664      -0.07389810       3.79084694      -0.00125245      -0.00141331       0.00407421
C        1.37561588       2.00559236       3.44150695       0.01095285       0.00750207       0.00525717
C       -0.00467723       4.24050139       2.98562973       0.01759658      -0.00062832      -0.01381763
C       -1.14700801       6.38427077       3.30445473      -0.00281640      -0.00290294       0.01107729
C       -2.32508399       8.49425473       3.65320762      -0.00723093       0.00850174       0.01174718
C        5.06171484      -0.04795273       3.87711247       0.00598688      -0.00654825      -0.00341212
C        3.79227627       2.03893388       4.14220903      -0.00371350      -0.00461550       0.01038189
S        1.51813014       6.38782462       2.57837293      -0.00341538      -0.00703020       0.00369224
C        0.12963177       8.51798837       3.55521875       0.00639717       0.00110576      -0.00785544
C        7.52475612      -0.03362215       3.87178739       0.00446295       0.00884614       0.00120294
C        6.28956277       2.09919370       4.07332864       0.00152025      -0.00221659       0.00979497
C        5.13031396       4.28347326       4.38647410      -0.01403752       0.00581778       0.01543273
C        3.87519445       6.42371693       4.37041038       0.01165375       0.01179628       0.00456094
C        2.59535671       8.51878574       3.82961149      -0.01171439       0.00085084      -0.00122680
C        9.99824983      -0.03115324       3.84344823      -0.00796471      -0.00372676      -0.01681699
C        8.75449757       2.10206380       3.80830199       0.00087894      -0.00024116      -0.00432061
C        7.52826061       4.23949771       3.91143243       0.00458608      -0.00545058       0.01203174
C        6.31800900       6.39312248       3.99495303       0.01213547      -0.00061547       0.00341866
C        5.06836851       8.50920299       3.94202425      -0.00913225       0.00284268      -0.00638389
C        0.11781294       1.37082390       3.55260717       0.01271018       0.00375363      -0.00858030
C       -1.15265799       3.50049867       3.33275780       0.00893031       0.00270277       0.00756397
C       -2.36937636       5.65619627       3.49901883      -0.00744526      -0.01133248      -0.00342027
C       -3.57033422       7.78942204       3.70322528      -0.00273843      -0.00555553      -0.00408586
C       -4.81125813       9.91738143       3.76230020       0.00457286      -0.01439962      -0.00900195
C        2.58419678       1.34024391       3.81880944       0.00493879      -0.00363625      -0.01324703
S        1.53964240       3.51199773       2.63752973      -0.01475179      -0.00237046       0.00022279
C       -0.00621433       5.63964872       2.97280944       0.00585294       0.00418848      -0.01007628
C       -1.10017922       7.79835230       3.47765237      -0.00566007       0.00657672       0.00392702
C       -2.33036385       9.91249028       3.78861937      -0.00105898       0.00648474       0.00442300
C        5.05558710       1.37470479       4.06411864      -0.00582780       0.00271813      -0.01408026
P        3.66808004       3.55906353       4.99261645      -0.01072459      -0.00583786      -0.00399930
C        1.39008181       7.88235381       3.43038117       0.00377005      -0.01056975       0.00638267
C        0.12678270       9.93358540       3.79275872       0.01017519      -0.00042183      -0.00767462
C        7.52079748       1.39344935       3.93072052       0.00742043       0.00426335       0.00915318
C        6.30734616       3.52818899       4.13333828      -0.00528003      -0.00130673       0.00386539
C        5.08264170       5.71438175       4.25972519       0.01064064       0.01129438      -0.00058113
C        3.83038023       7.77744821       4.04086203      -0.01395252       0.01265561       0.00882750
C        2.59327872       9.94269791       3.87457650      -0.00941780       0.00170097      -0.01613111
C        9.99677928       1.39119242       3.72727582      -0.00292927      -0.00203161      -0.00074569
C        8.74580327       3.52511919       3.74842328      -0.00284316      -0.00503776       0.00202322
C        7.52854731       5.66377510       3.86211538       0.00535633      -0.00922839       0.00794809
C        6.30542646       7.80266627       3.90490345      -0.00726942      -0.00147002      -0.00164519
C        5.05938099       9.92907855       3.83979051      -0.00120793      -0.00152042      -0.01526696
Zn       2.35394650       5.43118974       5.15048093       0.00202916       0.01003291      -0.01583087
O        0.72379592       5.87576676       5.95329760      -0.00374436      -0.01669855      -0.00278475
O        1.13587135       5.75259487       7.38051459       0.00511190       0.02169675       0.00512788
H        0.54264607       5.02230500       7.64367724      -0.00790627       0.02288459       0.00743590
