50
Lattice="12.336457 0.0 0.0 -6.168228499999997 10.683685154694365 0.0 0.0 0.0 15.0" Properties=species:S:1:pos:R:3:forces:R:3 energy=-441.399716641426 free_energy=-441.399716641426 stress="0.0014772694966155102 -9.047980480507297e-06 1.0186387184636514e-05 -9.047980480507297e-06 0.002665296541423009 -1.1741516966921394e-05 1.0186387184636514e-05 -1.1741516966921394e-05 -4.132937336499529e-06" pbc="T T T"
C       -0.00368258       0.00981273       3.63101507       0.00976236       0.00515925       0.01095967
C       -1.23213600       2.15221110       3.71034524      -0.00588319       0.00966983       0.00072468
C       -2.45923950       4.28221821       3.72330833      -0.00536468      -0.00863223       0.00109838
C       -3.70190958       6.41374756       3.68410593      -0.00049122      -0.00470003      -0.00334020
C       -4.94024798       8.55145678       3.63144107      -0.00834162       0.00763673      -0.00533875
C        2.46614591       0.00461814       3.64814106       0.00177630       0.00244599      -0.01191941
C        1.23480820       2.14116949       3.78386204      -0.00610670      -0.00860979      -0.00010170
C        0.02512519       4.31791777       3.86140107      -0.00538877      -0.00392831       0.01115143
C       -1.23620568       6.42278776       3.68911768       0.00937752      -0.00611685       0.00307092
C       -2.46350878       8.55118822       3.63165478       0.00455505       0.01080708      -0.00528454
C        4.93605592       0.00920319       3.63244188      -0.00679162       0.00774386       0.01053749
C        3.69795552       2.14073308       3.78504211       0.00114157      -0.00724976       0.00031591
C        2.46585655       4.09058469       4.53400768      -0.00098741       0.01442422      -0.00548814
O        1.14281549       6.45944765       3.64731445      -0.00875338       0.00772353      -0.00016536
C        0.00254579       8.54625405       3.59209463       0.00948471      -0.00714580      -0.00515796
C        7.40907501      -0.00771909       3.61507785      -0.01009880       0.00490250      -0.00108516
C        6.16431314       2.15222121       3.71122258       0.00808732       0.00668766       0.00705333
C        4.90729844       4.31797449       3.86580701       0.00919167      -0.00446600       0.00718217
O        3.78948034       6.46124217       3.66502112       0.01518014       0.00799862      -0.00805166
C        2.46615542       8.48062566       3.56085132       0.00183642      -0.01255637       0.00736836
C        9.85958164      -0.00718257       3.61462043       0.00956006      -0.00360011      -0.00162181
C        8.63400321       2.14283053       3.67445134       0.00709256       0.00368557       0.01797226
C        7.39218587       4.28201644       3.72485153      -0.00450840      -0.00418842      -0.00258497
C        6.16889950       6.42271065       3.69124464      -0.01018155      -0.00078032       0.00329113
C        4.93027374       8.54695057       3.59310549      -0.00987906      -0.00919379      -0.00163709
C        0.00054568       1.43610851       3.69266034      -0.00934318       0.00406341       0.00331899
C       -1.21355118       3.58816161       3.76052895      -0.00310767       0.00455430      -0.00550854
C       -2.46605099       5.70071676       3.70580689       0.00528347      -0.01134561       0.00175956
C       -3.70189851       7.83881849       3.65072438      -0.00081729       0.00662952      -0.01114131
C       -4.93715604       9.98124665       3.62902865       0.00594370       0.00672747      -0.00647871
C        2.46633179       1.42940052       3.72974781      -0.00312629      -0.01060650       0.00255861
C        1.25999702       3.56887534       4.02751385       0.00174481      -0.00210905      -0.00076228
C       -0.01849393       5.73112553       3.74361653       0.00013800      -0.00205211       0.00133397
C       -1.23751603       7.84156601       3.63201466       0.00782192      -0.00094329      -0.00306725
C       -2.46704866       9.98086730       3.63015851      -0.00191343       0.01128904      -0.00947894
C        4.93206600       1.43554557       3.69452187       0.00553512       0.00605468      -0.00021687
C        3.67238309       3.56819704       4.02956514       0.00300948       0.00102477      -0.00255720
C        1.19656577       7.83126066       3.57042876       0.00639050      -0.00823010      -0.00694959
C        0.00511595       9.97863140       3.60453349      -0.01192619      -0.00127546       0.00103991
C        7.39946247       1.43108980       3.66039930       0.00668945       0.00943847       0.00696956
C        6.14618204       3.58830553       3.76222861       0.00136288      -0.00117791      -0.00200322
C        4.95104961       5.73142008       3.75076298       0.00520994      -0.00196021       0.00264140
C        3.73590713       7.83237949       3.57615988      -0.00195023      -0.01126163      -0.01354492
C        2.46622956       9.93397280       3.59135919      -0.00287815      -0.00456394       0.00977853
C        9.86867559       1.43152093       3.65903398       0.00482564       0.00260176       0.01385556
C        8.63469216       3.56778598       3.70796172      -0.00560283      -0.00138028      -0.01046203
C        7.39884073       5.70046825       3.70673205      -0.00944739      -0.00362020       0.00329336
C        6.17037300       7.84173844       3.63310397      -0.01295065       0.00011641      -0.00488001
C        4.92728878       9.97936292       3.60416440       0.01319336      -0.00512327      -0.00202846
Zn       2.47264337       5.34111983       6.05635701      -0.00835424       0.00543268       0.00358091
