52
Lattice="12.336457 0.0 0.0 -6.168228499999997 10.683685154694365 0.0 0.0 0.0 15.0" Properties=species:S:1:pos:R:3:forces:R:3 energy=-444.86576836547334 free_energy=-444.86576836547334 stress="-0.004216551711902108 -0.0029236761332117685 1.5606086898685126e-06 -0.0029236761332117685 -0.0009145114122984951 1.7006698304068838e-05 1.5606086898685126e-06 1.7006698304068838e-05 1.56128891083142e-05" pbc="T T T"
C       -0.03196256      -0.01153252       3.87469724       0.01184550       0.00148532       0.00816030
C       -1.28362598       2.10647368       3.85764892       0.00191115      -0.00104153      -0.00234979
C       -2.50639572       4.24599084       3.77552739      -0.00292819       0.00735434       0.00319565
C       -3.71919713       6.39394745       3.74453657      -0.00211467       0.00896344      -0.00212215
C       -4.95328156       8.53900713       3.81164912      -0.00286071      -0.00470854      -0.00485864
C        2.44043895      -0.02176754       3.83220653      -0.00778696       0.00164354       0.00566402
C        1.19321563       2.13408049       3.88877873       0.00319604       0.00028019       0.00003711
C       -0.03467966       4.23232814       3.91783833       0.00869585       0.00237119       0.00706995
C       -1.28122428       6.39827691       3.83560486      -0.00027897      -0.01048743       0.00841986
C       -2.49237299       8.53424677       3.80387647       0.00234396      -0.00331048       0.00856024
C        4.90842238      -0.02033152       3.71786219       0.00124506      -0.00080959      -0.00671317
C        3.63881645       2.07500091       3.48748158      -0.00978838       0.00431253       0.00100082
C        1.13453083       6.38954250       4.11995344       0.00014960       0.00493852       0.00433755
C       -0.01990574       8.51297108       3.84474771       0.00364436      -0.00523830       0.00119265
C        7.37355807      -0.03328369       3.74907079       0.00807995       0.00051519      -0.00020736
C        6.12765874       2.12879962       3.55660344      -0.00372232      -0.00449063      -0.00373637
C        4.93594824       4.35063818       3.33891903       0.00738826      -0.00252676      -0.00928508
O        3.79126651       6.47668309       3.45162611       0.00307647      -0.00458557       0.00614119
C        2.47118017       8.48317633       3.83142528      -0.00894646      -0.00769875       0.00161542
C        9.83127078      -0.03488925       3.81612758      -0.00310229      -0.00733842       0.00295112
C        8.59227052       2.10996277       3.72859736      -0.00526939       0.00891423      -0.01266903
C        7.37077931       4.26206280       3.62184764      -0.00043571       0.00650973      -0.00377000
C        6.17940611       6.42894174       3.61742059       0.00942711       0.00538546      -0.00630679
C        4.92645633       8.53644458       3.78738771      -0.00762598       0.00631158      -0.01100410
C       -0.04625820       1.40785330       3.89804275       0.01131310       0.00126994       0.00537119
C       -1.28165541       3.52691409       3.84377142       0.00175070       0.00388074       0.00070317
C       -2.49854019       5.67518232       3.77634537      -0.00909706       0.00415774       0.01353244
C       -3.71785455       7.82078688       3.78869064      -0.00046928       0.00229577       0.00657528
C       -4.96043449       9.96097542       3.86099278       0.00063692      -0.00926559       0.01515295
C        2.42932273       1.39432845       3.76946417      -0.00618177       0.00216918      -0.00035816
C        1.18295623       3.53445286       3.95868762      -0.00585774      -0.00669903       0.00477977
C       -0.04397154       5.69262144       3.94970547       0.00959424       0.00120073       0.00554141
C       -1.26024580       7.81832908       3.82428293       0.00286978      -0.01149133       0.00044193
C       -2.49036779       9.95457939       3.78957125      -0.00439933       0.00180917       0.00129463
C        4.89884069       1.40684414       3.57430504      -0.00850219       0.00148780      -0.00748240
P        3.37994719       3.67591192       2.80714134       0.00219509      -0.00195622      -0.00113529
C        1.21699998       7.75358882       3.93156631      -0.00203360      -0.00246223       0.00016671
C       -0.02638611       9.93998833       3.76766124       0.00908627      -0.00135882      -0.01006749
C        7.35807413       1.40062934       3.67567350      -0.00072603       0.00200664      -0.00278950
C        6.12784850       3.56722915       3.49381554       0.00436189      -0.00548030       0.00008049
C        4.98016467       5.75780127       3.43540681       0.01203371      -0.00064632      -0.01177727
C        3.72279124       7.83206084       3.72518985      -0.00804955      -0.00019337      -0.00490352
C        2.44208653       9.91549417       3.79964619      -0.00132496      -0.00961707      -0.00091295
C        9.82011426       1.39340161       3.80601598      -0.00781510      -0.00210008       0.00019200
C        8.59703472       3.53877146       3.70869915      -0.00380543       0.01187879      -0.00077432
C        7.39332376       5.68360925       3.66131955       0.00459204       0.00594897       0.00928640
C        6.16595074       7.83860348       3.74870468      -0.00555092       0.00447256      -0.00684529
C        4.90347792       9.95620309       3.84260947       0.00668138       0.00690265       0.00296316
Zn       2.43429239       4.95617984       4.67812527      -0.00851356       0.00425124      -0.00144098
O        3.54668120       5.52137278       6.10850221      -0.00510215       0.00451452      -0.00155828
O        2.70956092       5.23301819       7.28856426       0.00979270      -0.01494171       0.00015073
H        3.35514658       4.71664071       7.80828784      -0.00362244       0.00121636      -0.01151020
