49
Lattice="12.336457 0.0 0.0 -6.168228499999997 10.683685154694365 0.0 0.0 0.0 15.0" Properties=species:S:1:pos:R:3:forces:R:3 energy=-430.2803216587158 free_energy=-430.2803216587158 stress="-0.0068554627062188825 -0.0015268657457659447 -3.6819771376023718e-06 -0.0015268657457659447 -0.001265611064698177 -7.211765497643409e-06 -3.6819771376023718e-06 -7.211765497643409e-06 -3.8305064908403156e-08" pbc="T T T"
C       -0.00343044       0.01147370       3.85063743      -0.00504314       0.00504568       0.00668087
C       -1.25876328       2.11748856       3.88127871       0.00253202      -0.01381439       0.00933813
C       -2.49558052       4.25956075       3.98994980       0.00589259      -0.00034317      -0.00426659
C       -3.70693558       6.41211163       4.01834268       0.00531575       0.00003573       0.00165586
C       -4.93152019       8.56362835       3.95110352      -0.00116995      -0.00671209      -0.01023134
C        2.46624169       0.01154999       3.77152624      -0.00639900       0.00187979       0.01251947
C        1.21712331       2.16434418       3.64525902      -0.00531699      -0.00171546       0.00357825
C       -0.04089600       4.24617483       3.84846281       0.00342059      -0.00674914       0.00661918
C       -1.27528818       6.41714456       4.01264009       0.00504897       0.01170083      -0.00519042
C       -2.47617091       8.55865960       3.95873472       0.00263555      -0.00798506       0.00354887
C        4.93597987      -0.01274282       3.74614433       0.00426116       0.00476676      -0.00716695
C        3.70305186       2.05186162       3.25963456       0.00204095      -0.00645266       0.00958168
C        1.13831383       6.40367278       3.78674569      -0.01464513      -0.00563644       0.00172942
C       -0.00485387       8.52911484       3.88643062      -0.00452286       0.00051398      -0.00294062
C        7.40318296      -0.02785907       3.79493875       0.00168900       0.00326309       0.00433198
C        6.17034379       2.13012487       3.60484396      -0.00366694       0.00782309      -0.00351146
C        5.01594245       4.35128487       3.29495181       0.01260416       0.00571077       0.00175751
O        3.86444084       6.50518259       3.37090124      -0.00072264      -0.00589762      -0.00384107
C        2.49697297       8.49228436       3.77463858      -0.00396546       0.00641314      -0.00134759
C        9.85846956      -0.02569090       3.85417533       0.00882181       0.00909162      -0.00489265
C        8.61964871       2.11906699       3.86359491      -0.00386012      -0.00362350       0.00689871
C        7.39603029       4.27223324       3.84412209      -0.01217955       0.00320787      -0.01005679
C        6.20250998       6.43677097       3.82335181      -0.00024480      -0.00204163      -0.01200769
C        4.95355159       8.55177038       3.84969376       0.00351068       0.00815824      -0.00447407
C       -0.01832573       1.42748920       3.79827131       0.00035382      -0.00483733       0.00908060
C       -1.27638611       3.53683827       3.93230530       0.00536611      -0.01463121       0.00871899
C       -2.49048356       5.69124962       4.03157730       0.01274151       0.01180278      -0.00043899
C       -3.70048876       7.84319969       3.99637712       0.00193734      -0.00793126       0.00595565
C       -4.93125270       9.98930262       3.87353134      -0.01002100      -0.00341620       0.00497870
C        2.46364838       1.42124625       3.54669191      -0.00556654       0.00439107       0.00696696
C        1.14736239       3.55165273       3.64033208       0.00103918      -0.00835560      -0.00358618
C       -0.04584034       5.70425757       3.90625186      -0.00889737      -0.00470398       0.00390720
C       -1.24676690       7.83880830       3.97263498       0.00290610       0.00373561      -0.00381619
C       -2.47025725       9.97683858       3.83189533       0.00265438      -0.00450761      -0.00132719
C        4.94369159       1.39991040       3.53257326       0.00811533       0.01091212      -0.00951144
P        3.75926830       3.54402371       2.29781368      -0.00867060      -0.00930421      -0.00053844
C        1.23239616       7.77373960       3.81920097      -0.00790187      -0.00481655       0.00421029
C       -0.00111637       9.95013344       3.81632483       0.00042779       0.00038967      -0.00068854
C        7.39135926       1.40567525       3.76429029      -0.00638562      -0.00002542       0.00736446
C        6.18154935       3.56996740       3.59041307      -0.00628291      -0.00184599      -0.00532183
C        5.03869742       5.75660164       3.50262137       0.00410708      -0.00003597      -0.01082692
C        3.75378079       7.85761778       3.71693595       0.00125360       0.00318509       0.00509149
C        2.47024754       9.92614158       3.81807596       0.00891524       0.01355455       0.00144590
C        9.84644466       1.40181419       3.88222859       0.00257559       0.00039357       0.00309927
C        8.61666755       3.54775344       3.92251201      -0.00679255       0.00225831      -0.00237559
C        7.41246299       5.69429339       3.92276573      -0.00229034       0.00212113      -0.00640082
C        6.19004090       7.85431752       3.89931924       0.00029703      -0.00274439      -0.01071765
C        4.93203859       9.97313387       3.87145275       0.00184671       0.01110303      -0.00268003
Zn       2.43029042       5.00333221       3.38622090       0.01223535      -0.00333062      -0.00090241
