51
Lattice="12.336457 0.0 0.0 -6.168228499999997 10.683685154694365 0.0 0.0 0.0 15.0" Properties=species:S:1:pos:R:3:forces:R:3 energy=-446.33490448268844 free_energy=-446.33490448268844 stress="0.0016822802975586743 -7.26492408245963e-07 3.741522471159955e-06 -7.26492408245963e-07 0.0028903237937399503 6.4355809714424955e-06 3.741522471159955e-06 6.4355809714424955e-06 7.670401151212416e-06" pbc="T T T"
C       -0.00483224      -0.03301523       3.69392989       0.00966571      -0.00001638      -0.00028605
C       -1.23264641       2.10799447       3.77436784      -0.00865570       0.00144519      -0.00873384
C       -2.46051222       4.24001018       3.75766521       0.00313277      -0.00720549       0.00807139
C       -3.70181544       6.37158340       3.70282534       0.00050900       0.00372446      -0.00346540
C       -4.94100260       8.50973274       3.66143851      -0.00110140       0.00192542       0.00455293
C        2.46632429      -0.03796407       3.71154886       0.00001786      -0.00657827      -0.01073632
C        1.23548471       2.09959201       3.86060927      -0.00605009      -0.00750017       0.00528352
C        0.02084870       4.27482263       3.90965227       0.00776328       0.00233881      -0.00693344
C       -1.23458140       6.38032668       3.71813369      -0.00200619       0.00076207      -0.00411168
C       -2.46253779       8.50969379       3.66184781      -0.00007317       0.00112126       0.00537667
C        4.93746017      -0.03302921       3.69333339      -0.00962386      -0.00080863       0.00078069
C        3.69708466       2.09953736       3.85969248       0.00756993      -0.00652773       0.00354431
C        2.46670033       4.07678629       4.50978296      -0.00083007       0.00916554       0.00275322
O        1.14328938       6.41437660       3.63458214       0.00018554       0.00041886       0.00022139
C        0.00497605       8.50296165       3.60785860      -0.00163353       0.00189871       0.00129455
C        7.40990577      -0.05153555       3.67160439      -0.00862299       0.00488836      -0.00128316
C        6.16521928       2.10800837       3.77370515       0.00867893       0.00151780      -0.01115560
C        4.91187437       4.27490812       3.90746504      -0.00756618       0.00182237      -0.00359552
O        3.78976014       6.41477126       3.63452982      -0.00302165      -0.00053211      -0.00327283
C        2.46633152       8.43426056       3.57948446       0.00014329       0.01154943       0.00526345
C        9.85900458      -0.05154182       3.67103744       0.01082482       0.00598187       0.00169204
C        8.63453196       2.09923257       3.73354852      -0.00084881      -0.00419201       0.01229949
C        7.39306301       4.24007978       3.75674463      -0.00059017      -0.00750138       0.00981509
C        6.16751831       6.38054959       3.71625462       0.00155016      -0.00102875      -0.00286904
C        4.92787113       8.50320171       3.60717117       0.00159564       0.00140138      -0.00155348
C        0.00006909       1.39329227       3.76458499      -0.01102900      -0.00216248       0.00297537
C       -1.21335776       3.54625658       3.80925876       0.00610660      -0.00080916      -0.00074824
C       -2.46615727       5.65847558       3.72972873      -0.00163210      -0.00322217       0.01029134
C       -3.70175993       7.79709053       3.67302121      -0.00065004       0.00646995       0.00281149
C       -4.93732161       9.93922624       3.68103226       0.00469814      -0.00296143      -0.00568461
C        2.46625174       1.38704246       3.80459283       0.00114411      -0.00861642       0.01037953
C        1.26165004       3.52746013       4.06954521       0.00297068      -0.00361081      -0.00180244
C       -0.01819462       5.69061963       3.78150571       0.00107409       0.00281738      -0.00120539
C       -1.23644795       7.80035335       3.65573423      -0.00004712       0.00134064      -0.00307728
C       -2.46642764       9.93922482       3.68076082      -0.00536768      -0.00396309      -0.00496247
C        4.93249409       1.39331290       3.76322357       0.01178098      -0.00263704       0.00670759
C        3.67120364       3.52744371       4.06828260      -0.00397424      -0.00280663      -0.00243982
C        1.19829417       7.78364006       3.57565348       0.00017281       0.00301105       0.00358084
C        0.00485744       9.93635230       3.65165781      -0.01284529       0.00318379       0.00235582
C        7.40028061       1.38648883       3.72564752       0.00270010      -0.00017562      -0.01070381
C        6.14593821       3.54628674       3.80785320      -0.00459840      -0.00063811      -0.00125662
C        4.95121979       5.69076814       3.77969883      -0.00281955       0.00192996      -0.00068864
C        3.73457051       7.78392782       3.57525874      -0.00085393       0.00247749       0.00315437
C        2.46620171       9.88626537       3.63193105       0.00158794       0.01492192      -0.01121863
C        9.86875779       1.38643694       3.72559830      -0.00368171       0.00110626      -0.01018829
C        8.63447426       3.52538289       3.74748160       0.00115753      -0.00886228       0.00501644
C        7.39892261       5.65857696       3.72911397       0.00300066      -0.00382386       0.00692987
C        6.16936181       7.80056336       3.65417989      -0.00049203       0.00041268       0.00028553
C        4.92773703       9.93649060       3.65126954       0.01403154       0.00326592       0.00372576
Zn       2.46885870       5.52612135       5.75280842      -0.00330030      -0.00459760      -0.00572798
O        2.47012583       7.23338231       6.16877948      -0.00014689      -0.00012092      -0.00146215
