50
Lattice="12.336457 0.0 0.0 -6.168228499999997 10.683685154694365 0.0 0.0 0.0 15.0" Properties=species:S:1:pos:R:3:forces:R:3 energy=-426.3120237497787 free_energy=-426.3120237497787 stress="-0.0012729277817899833 4.8500383032223906e-05 3.927885863759464e-06 4.8500383032223906e-05 -0.0028944393007134307 1.1340535765313758e-05 3.927885863759464e-06 1.1340535765313758e-05 -1.2854177200159371e-05" pbc="T T T"
C       -0.03837605      -0.03593191       3.87918118      -0.00226268       0.00181069      -0.01618701
C       -1.26735546       2.11416193       4.12209534      -0.00063500       0.00412139       0.00568434
C       -2.50616390       4.25626613       3.95263336      -0.00145548       0.00460932      -0.00827864
C       -3.72426323       6.38660773       3.69201834       0.00271749      -0.00161469      -0.00354955
C       -4.98058487       8.51274873       3.64010525       0.00265816       0.00313236      -0.00528765
C        2.42861018      -0.05169419       3.83381203      -0.00463482       0.00233268      -0.00085519
C        1.21218628       2.02815837       4.26841947      -0.00232471      -0.00656363      -0.00078091
C       -0.12711890       4.29295020       4.49708998       0.00552415      -0.00059673      -0.00049496
C       -1.28900523       6.40368881       4.01679049      -0.00244735      -0.00376998      -0.00940572
C       -2.50758194       8.51897808       3.78606949      -0.00106706      -0.00145715       0.00354781
C        4.89999535      -0.03040285       3.74430895      -0.00260374       0.00213540       0.00766567
C        3.63834016       2.04502325       3.55573707       0.00542854       0.00708155       0.01433075
C        1.14998538       6.43228138       4.31668511      -0.00985524      -0.00197571      -0.00460410
C       -0.03753672       8.52114510       3.89582083       0.00080910      -0.00477808       0.00130444
C        7.36452504      -0.01805397       3.80507499      -0.00445109       0.00475288      -0.00866769
C        6.13351780       2.11390611       3.55474431      -0.00547282       0.00763986      -0.00351042
C        5.02661189       4.27491765       3.02210247       0.00799710      -0.00997516      -0.01006025
S        3.57379238       6.44524785       2.39097431      -0.01214495       0.00768746       0.00165233
C        2.43586177       8.52641032       3.73320975       0.00181618      -0.00270873      -0.00515978
C        9.83723032      -0.01896958       3.83640416       0.00077158      -0.00739911      -0.01072869
C        8.60273601       2.12031999       3.82260348       0.00065241      -0.00363621      -0.01055365
C        7.39620222       4.25155856       3.54036451       0.00221478       0.00046469       0.00289689
C        6.18852402       6.40935054       3.26048363       0.00635449       0.00148073      -0.01330249
C        4.90227334       8.53709974       3.49193488       0.00508574       0.00818297       0.00109299
C       -0.03641412       1.38724952       4.10837889      -0.00404227      -0.00271916       0.00445369
C       -1.28302326       3.54286976       4.19994544       0.00019604       0.00728971      -0.00134694
C       -2.50195601       5.67887392       3.89135402      -0.00301429       0.00144743       0.00802233
C       -3.73570873       7.80707655       3.69894033      -0.00013429      -0.00295627       0.01729212
C       -4.97935850       9.93056955       3.80017213      -0.00421360       0.00041864      -0.00061244
C        2.42864314       1.36661304       3.91194281       0.00222999       0.00084104       0.00448012
S        1.22933041       3.48699014       5.20101613       0.01038786      -0.00275617       0.00927272
C       -0.05061604       5.71668938       4.29288489      -0.00598495      -0.00278947      -0.00298047
C       -1.27380101       7.81645579       3.89158127      -0.00047495      -0.00420262       0.00138443
C       -2.49944941       9.93707991       3.77309527      -0.00442578       0.00170134       0.00339588
C        4.89585875       1.39936923       3.60575573      -0.00039737       0.00424103       0.00590032
S        3.45497840       3.57572148       2.80956571       0.00590354      -0.00301657      -0.01459216
C        1.20193452       7.78089971       3.97216486       0.00188804      -0.00300008      -0.00024731
C       -0.03317320       9.94386352       3.80307824      -0.00195416      -0.00110357       0.00862594
C        7.36059382       1.40918127       3.73017172      -0.00955616       0.00812296       0.00408509
C        6.16938602       3.52671872       3.37220098       0.00771258      -0.00059676      -0.00640611
C        5.04784646       5.67213968       2.91359711       0.00378907      -0.00933282       0.00828265
C        3.64646694       7.90427325       3.31493121       0.00604829       0.00585844      -0.00370114
C        2.43373225       9.95055685       3.80836713      -0.00242305      -0.00336161      -0.00192647
C        9.84260304       1.41137034       3.93826989       0.00154997      -0.00731559       0.00797748
C        8.60983592       3.54260025       3.77669359      -0.00249050      -0.00027924       0.01638450
C        7.39873221       5.67693488       3.49460884       0.00528371      -0.00007385      -0.00466662
C        6.13585752       7.82124194       3.43298121       0.00223297       0.00527229       0.00915060
C        4.89700857       9.94658206       3.75408599       0.00250930       0.00125209       0.00447157
Zn       2.70213549       5.46501166       4.98202266      -0.00474398       0.00141016      -0.00991279
O        4.20755718       5.97737853       5.78959708       0.00144920      -0.00530813       0.00646450
