51
Lattice="12.336457 0.0 0.0 -6.168228499999997 10.683685154694365 0.0 0.0 0.0 15.0" Properties=species:S:1:pos:R:3:initial_magmoms:R:1:forces:R:3 energy=-431.568242448429 free_energy=-431.568242448429 stress="-0.0013805481853443947 0.0023188760198176593 -2.300600605726732e-06 0.0023188760198176593 -0.002831918950770737 1.3805408427769178e-06 -2.300600605726732e-06 1.3805408427769178e-06 3.426741368037492e-05" pbc="T T T"
C       -0.07064159      -0.00363313       3.78434110       0.00000000       0.00082800      -0.00077025      -0.00026479
C       -1.28296844       2.15595900       3.90104491       0.00000000       0.00065215       0.00135331       0.00134384
C       -2.55446470       4.28373599       4.09947205       0.00000000       0.00003225      -0.00047849       0.00128866
C       -3.79539444       6.41010560       4.00183139       0.00000000      -0.00210241       0.00131177       0.00218733
C       -5.03384502       8.52964076       3.81493402       0.00000000      -0.00056878       0.00058760      -0.00020999
C        2.39571626      -0.02900028       3.73003332       0.00000000      -0.00010408       0.00001006      -0.00254303
C        1.18452073       2.06935246       3.53607719       0.00000000       0.00314482       0.00384967      -0.00056617
C       -0.13612800       4.34964560       4.07471897       0.00000000       0.00459207      -0.00247396       0.00067939
C       -1.35603664       6.44193466       4.29041272       0.00000000       0.00038253      -0.00110466      -0.00057010
C       -2.56687502       8.55094095       4.04766618       0.00000000      -0.00035322      -0.00000579      -0.00200586
C        4.86423033      -0.01469438       3.83939476       0.00000000       0.00117096      -0.00352054      -0.00272444
C        3.66933210       2.00489489       3.16222660       0.00000000       0.00042604      -0.00056304      -0.00275857
C        1.11644515       6.45005774       4.42787567       0.00000000      -0.02012922       0.01132559      -0.00559525
C       -0.09043742       8.55282149       4.14826704       0.00000000       0.00150881      -0.00007669      -0.00205246
C        7.33022947      -0.00098176       3.95334843       0.00000000       0.00102673      -0.00069781       0.00013719
C        6.11897492       2.11525456       3.59749999       0.00000000      -0.00041075      -0.00074912       0.00033165
C        5.05638595       4.25449773       2.97005416       0.00000000       0.00085715       0.00187423       0.00023323
S        3.51806480       6.41700039       2.58719842       0.00000000      -0.00175246      -0.00283231       0.00308030
C        2.39287153       8.54635904       3.90566095       0.00000000      -0.00169207       0.00106427       0.00001831
C        9.80409188       0.00486699       3.88768038       0.00000000      -0.00013683      -0.00112425       0.00023492
C        8.57375978       2.13932707       3.92530581       0.00000000      -0.00073588      -0.00003907       0.00057575
C        7.34586790       4.26688325       3.76615472       0.00000000      -0.00039279       0.00045991       0.00145659
C        6.11903433       6.40506672       3.50011880       0.00000000      -0.00038170       0.00038839       0.00276932
C        4.85299803       8.54661803       3.63027207       0.00000000       0.00068038      -0.00020066       0.00050231
C       -0.05592251       1.43665228       3.76302859       0.00000000       0.00022724      -0.00209459       0.00151201
C       -1.30906067       3.57472784       4.04736110       0.00000000       0.00048920      -0.00003979       0.00219861
C       -2.56805869       5.70634978       4.16229322       0.00000000      -0.00116928       0.00138040       0.00179470
C       -3.79729012       7.83144318       3.97017574       0.00000000      -0.00119762      -0.00058683      -0.00063839
C       -5.01807868       9.95883680       3.79115928       0.00000000       0.00035141      -0.00076462      -0.00249818
C        2.41572917       1.36939214       3.45337684       0.00000000       0.00036926       0.00026487      -0.00276942
S        1.29346663       3.76649938       3.35559779       0.00000000      -0.00269565      -0.00100985       0.00096900
C       -0.10453773       5.75467347       4.33403571       0.00000000       0.01145688       0.00348581       0.00156048
C       -1.33597660       7.85635379       4.20151711       0.00000000      -0.00015047      -0.00005359      -0.00268285
C       -2.54298417       9.95988453       3.88045403       0.00000000       0.00000051       0.00026266      -0.00366383
C        4.88375034       1.39023758       3.53893274       0.00000000      -0.00009690       0.00004372      -0.00036394
S        3.79208496       3.40015558       2.12820876       0.00000000      -0.00107057       0.00226589      -0.00043999
C        1.15191499       7.81799662       4.16482546       0.00000000       0.00008127      -0.00973293       0.00358803
C       -0.07391748       9.96823695       3.99476180       0.00000000       0.00224774       0.00009215      -0.00202347
C        7.33285029       1.42257326       3.84708722       0.00000000      -0.00069321      -0.00053478       0.00014420
C        6.15545061       3.53069486       3.46262402       0.00000000       0.00133900      -0.00131193       0.00268942
C        5.01468806       5.65486921       3.05068387       0.00000000      -0.00257326       0.00121328       0.00353067
C        3.59446443       7.90241452       3.48883433       0.00000000       0.00118996      -0.00025935       0.00009811
C        2.39975138       9.97427764       3.94675599       0.00000000       0.00025068       0.00240247       0.00008548
C        9.81891320       1.43760888       3.92991456       0.00000000       0.00039065       0.00108887      -0.00041237
C        8.56540274       3.56178929       3.95968830       0.00000000      -0.00005284      -0.00053291       0.00037964
C        7.33306635       5.69250784       3.77307744       0.00000000      -0.00174305       0.00119095       0.00180642
C        6.07948971       7.82277104       3.63068814       0.00000000      -0.00078233       0.00013570       0.00137834
C        4.85978220       9.97103537       3.79736559       0.00000000      -0.00007869       0.00091888       0.00139825
Zn       2.60965034       5.58736077       5.14888993       0.00000000       0.01433865      -0.00893443       0.08257987
O        4.28929778       5.84361312       5.96642023       1.00000000      -0.00232970      -0.00068517      -0.00860414
O        4.00432478       4.49773446       5.77916880       1.00000000      -0.00464059       0.00420698      -0.07716479
