49
Lattice="12.336457 0.0 0.0 -6.168228499999997 10.683685154694365 0.0 0.0 0.0 15.0" Properties=species:S:1:pos:R:3:forces:R:3 energy=-423.15352891744567 free_energy=-423.15352891744567 stress="-0.0043812014024465894 -0.00033014357406177503 -7.428222122779727e-06 -0.00033014357406177503 -0.002696870817140212 1.8857583381557705e-05 -7.428222122779727e-06 1.8857583381557705e-05 3.4706198799378896e-06" pbc="T T T"
C        0.00416018      -0.01057256       3.96821967       0.00929876       0.00100501       0.00328601
C       -1.24252638       2.11897590       3.76256577      -0.00154399      -0.00380025       0.00544575
C       -2.48120376       4.26348570       3.99087145       0.00339194      -0.00193408      -0.00161967
C       -3.69020839       6.40887087       4.21627817      -0.00475622       0.00132296      -0.00045749
C       -4.92211618       8.55247287       4.19935870      -0.00177984       0.00346855      -0.00033428
C        2.47283314      -0.01009767       3.90979822       0.00422534      -0.00156524       0.00441888
C        1.20560056       2.00073794       3.29173070      -0.00725706      -0.00174846       0.00544336
C       -0.22026001       4.28498070       3.12485304       0.00341846       0.00018705      -0.00432057
C       -1.29450984       6.41751346       3.71614689      -0.00273655       0.00320751       0.00191121
C       -2.45778059       8.54451331       4.07529510       0.00461860      -0.00496005      -0.00329660
C        4.94282624      -0.01176384       3.96274274      -0.00172825       0.00155223      -0.00653343
C        3.73383506       2.03453196       3.37145517      -0.00302192       0.00117643       0.00115556
P        0.98459158       6.63834400       2.17752098       0.00173822       0.01147215       0.00778898
C       -0.00248476       8.54927810       3.77858335       0.00508702      -0.00232090      -0.00458732
C        7.41422796      -0.01852383       3.99595491      -0.00425380      -0.00561326       0.00280285
C        6.18221686       2.12622250       3.91485998       0.00317196       0.00108753      -0.00136000
C        5.05385800       4.32585878       3.58635442      -0.00640405       0.00112891      -0.00343649
N        3.84474843       6.45390070       3.64085474      -0.00129649       0.00050613      -0.01165531
C        2.48325012       8.52246008       3.72065007       0.00083374       0.00372016      -0.00359805
C        9.87417943      -0.02107354       4.00572888       0.00540369       0.00467132      -0.00493317
C        8.64267108       2.12324388       4.07615819      -0.00814579       0.00317580      -0.00697471
C        7.41642226       4.27047884       4.17001797      -0.00415148      -0.00516482      -0.00557014
C        6.19731311       6.42676821       4.16300454       0.00533943      -0.00534883       0.00158607
C        4.94920821       8.53331824       4.04793359       0.00082424      -0.00059870      -0.00110975
C       -0.00916952       1.39723373       3.69295719      -0.00198731      -0.00378781       0.00573646
C       -1.29036656       3.54019281       3.65540729       0.00621248      -0.00621861       0.00328713
C       -2.47977059       5.69068896       4.02528852      -0.00274312       0.00288715       0.00433260
C       -3.68998072       7.83563898       4.19696813      -0.00170723       0.00214431       0.00396076
C       -4.92586585       9.97332536       4.05021620       0.00610106       0.00303613       0.00413735
C        2.47177466       1.37472798       3.51538440      -0.00467142      -0.00412551       0.00635447
S        1.05028346       3.42071185       2.28683998      -0.00461555       0.00103508      -0.00585018
C       -0.20675602       5.70040035       3.14366286       0.00082679       0.00168433      -0.00389977
C       -1.24441301       7.83741327       3.86117639       0.00673476       0.00055055      -0.00286506
C       -2.46122503       9.96910681       4.01341211       0.00329518      -0.00318171       0.00719286
C        4.94765111       1.40552164       3.77846355       0.00260069       0.00498648      -0.00407933
P        3.97480157       3.52075689       2.41737364      -0.00283786       0.00981396       0.00129103
C        1.22755861       7.90383947       3.42056858       0.00572323      -0.00901605       0.00468797
C        0.00875891       9.96274074       3.96657391      -0.00532896      -0.00472575       0.00372691
C        7.40751763       1.41128629       4.04114795      -0.00255874      -0.00497835       0.00473066
C        6.19930713       3.56237394       3.93676917      -0.00425349      -0.00117507       0.00370991
C        5.00522454       5.74839009       3.82717541       0.00307746       0.00281251      -0.00634737
C        3.74705673       7.80490760       3.80785651      -0.00440286       0.00018144      -0.00156152
C        2.47838080       9.94334414       3.94814084       0.00205952       0.00248909       0.00346508
C        9.88029135       1.41190764       3.98573617      -0.00601433       0.00526260       0.00083310
C        8.63861519       3.54827305       4.13613673      -0.00184526       0.00185990      -0.00491923
C        7.41769550       5.69549717       4.23531505       0.00060153      -0.00842912      -0.00006106
C        6.18102053       7.84053021       4.17892143       0.00073478      -0.00344570      -0.00291728
C        4.93977266       9.95695110       4.03399131       0.00913909       0.00301230       0.00028020
Zn       2.51837794       5.19886444       2.93229902      -0.00441640       0.00270070       0.00072262
