50
Lattice="12.336457 0.0 0.0 -6.168228499999997 10.683685154694365 0.0 0.0 0.0 15.0" Properties=species:S:1:pos:R:3:forces:R:3 energy=-427.666808679348 free_energy=-427.666808679348 stress="-0.0040671874518914295 -0.0021290065969899697 1.8195955248849915e-05 -0.0021290065969899697 -0.002723280727947617 1.1952084797270417e-05 1.8195955248849915e-05 1.1952084797270417e-05 1.7180935744777144e-05" pbc="T T T"
C        0.01970621       0.00100761       3.93974312       0.00334532       0.00493154       0.00381786
C       -1.24231217       2.11756719       3.66306792      -0.00765445       0.00347366      -0.01458494
C       -2.47401336       4.27063336       3.80874828      -0.00588456      -0.00927837      -0.00890052
C       -3.66264328       6.41814251       4.05882209       0.00494314       0.00111908      -0.00477713
C       -4.88890068       8.56525192       4.13810350      -0.01029026      -0.00541947      -0.01063920
C        2.48808699      -0.00750079       3.81374997      -0.00064274       0.00057884      -0.00157554
C        1.20137424       1.99115210       3.19638311      -0.00931954       0.00273910      -0.00004775
C       -0.20843196       4.25500889       2.96897983       0.00504741       0.00666005      -0.00350454
C       -1.25966330       6.41566743       3.54380126       0.00280539      -0.00753907       0.00172974
C       -2.42848346       8.54693455       3.90820377      -0.00492970      -0.00848545      -0.00943303
C        4.95717028       0.00199393       3.81443770      -0.00772711       0.00230108      -0.00739874
C        3.71180089       2.07487177       3.39149340       0.00099882       0.00548014      -0.00104223
P        1.36646206       6.42512503       2.52956819       0.00053773      -0.00640938      -0.00687815
C        0.02799469       8.54974412       3.69281238       0.00703699       0.00410091      -0.01000578
C        7.41941337       0.00066482       3.93315938       0.00046845       0.00091992       0.00123076
C        6.17712974       2.15088565       3.83580986       0.01002256      -0.00385922       0.00732894
C        5.01771304       4.35967045       3.77561432       0.00594630      -0.00111978       0.00457608
N        3.81971699       6.46190522       4.02912652      -0.00422820      -0.00484626      -0.01249417
C        2.50276999       8.54395132       3.87887136       0.00657281       0.00575781      -0.00582586
C        9.88724399      -0.00129752       4.02588763       0.00141984      -0.00180549      -0.01393091
C        8.64347020       2.13797424       3.96628857       0.00248859       0.00292923      -0.00069250
C        7.42692914       4.28622473       4.06416322      -0.00672260       0.00958264       0.00471592
C        6.22897402       6.44864452       4.20909907      -0.00161453      -0.00371849       0.00102442
C        4.97469286       8.55729049       4.15354437      -0.00102621      -0.00228456      -0.00025089
C       -0.00629147       1.39676879       3.61783294      -0.00774974       0.00599333       0.00092548
C       -1.29107815       3.53012655       3.49026558       0.00638574       0.00551437      -0.00192824
C       -2.45976371       5.69885350       3.82719904       0.00218615      -0.01029782       0.00644882
C       -3.65867721       7.84393078       4.05791287      -0.00701226      -0.00201236       0.00346228
C       -4.90590808       9.98206811       3.98823757      -0.00028245      -0.00291571      -0.00232771
C        2.47076942       1.38058228       3.46637769      -0.00333868       0.00820096       0.00612019
S        1.06084644       3.37957137       2.14580750       0.00225861       0.00231283       0.00766299
C       -0.14915264       5.67198073       3.06131199       0.00779094       0.00536464       0.01546950
C       -1.21107897       7.83556013       3.70805998       0.00342824      -0.00426844       0.00016811
C       -2.43882341       9.97261619       3.86704873      -0.00440372      -0.00626327       0.00852634
C        4.94642759       1.43257604       3.69393975       0.00128966       0.00443225       0.00920772
P        3.71664160       3.72768941       2.76802721      -0.00326287      -0.00217768       0.00054910
C        1.28415300       7.89452084       3.51961765       0.00968923      -0.00274639      -0.00003460
C        0.02249580       9.97347726       3.84481468      -0.00522636       0.00442307       0.01403884
C        7.40648658       1.43085597       3.94558011       0.01095946      -0.00230723      -0.00622142
C        6.19203931       3.58464213       3.91352981      -0.00403320       0.00151672       0.01192310
C        4.99903767       5.77675581       4.05121834       0.01227581       0.00151740       0.01136879
C        3.75907799       7.81979793       4.03873070       0.00458331       0.00646808       0.00810913
C        2.48930492       9.96446910       3.99379611      -0.00036861      -0.00294738      -0.00402992
C        9.88405582       1.42393659       3.91930287      -0.00131313       0.00049671      -0.00016342
C        8.64470026       3.56292813       3.98297727      -0.00972825       0.00229714       0.01662765
C        7.44361508       5.71013324       4.15107520       0.00422425       0.01000707      -0.00741296
C        6.21628130       7.86283994       4.21459849      -0.00617834      -0.00627408      -0.00160928
C        4.95737189       9.97684409       4.07261876       0.00588650      -0.00078757      -0.00321826
Zn       2.31722918       5.04449609       4.24069547       0.00174654      -0.00754111       0.00181140
O        1.99981060       4.92787898       5.96997949      -0.01140030      -0.00381398      -0.00791545
