51
Lattice="12.336457 0.0 0.0 -6.168228499999997 10.683685154694365 0.0 0.0 0.0 15.0" Properties=species:S:1:pos:R:3:initial_magmoms:R:1:forces:R:3 energy=-435.5029102884863 free_energy=-435.5029102884863 stress="-0.001973569706808302 0.0016570155720227492 -1.1778685638904501e-05 0.0016570155720227492 -0.0062762208828243795 1.082302830481377e-05 -1.1778685638904501e-05 1.082302830481377e-05 -2.8340198655325093e-05" pbc="T T T"
C        0.02098417      -0.04879756       3.74654422       0.00000000      -0.00014977      -0.00072472      -0.00021448
C       -1.18588893       2.11913559       3.67552707       0.00000000       0.00009634      -0.00012153      -0.00020952
C       -2.42015329       4.25038348       3.72982244       0.00000000       0.00027896       0.00047770      -0.00014002
C       -3.66995713       6.37527750       3.73956502       0.00000000       0.00033024      -0.00034270      -0.00021335
C       -4.93070788       8.49023703       3.71374790       0.00000000      -0.00058593      -0.00014912      -0.00023841
C        2.47835117      -0.10354959       4.02050180       0.00000000      -0.00025684       0.00021561       0.00011290
C        1.30078346       2.02796910       3.73784365       0.00000000       0.00012884      -0.00002630       0.00011022
C        0.02563271       4.31842383       3.48498869       0.00000000      -0.00002927       0.00041537       0.00045062
C       -1.22442873       6.41169734       3.68192715       0.00000000      -0.00015543      -0.00048308      -0.00023412
C       -2.45091603       8.50122586       3.88183481       0.00000000      -0.00007215       0.00006745      -0.00037756
C        4.96198141      -0.05293357       4.07475410       0.00000000       0.00021295       0.00071970       0.00044789
C        3.70293859       1.99335463       4.31234348       0.00000000       0.00026092       0.00023218       0.00056728
N        1.18605178       6.45684690       3.48055744       0.00000000      -0.00051193       0.00020643       0.00071089
C        0.01315373       8.52769738       3.74349418       0.00000000      -0.00020791      -0.00008401       0.00005340
C        7.42827094      -0.02073117       3.88165942       0.00000000      -0.00017095       0.00039868       0.00014219
C        6.19881069       2.11071524       4.06776681       0.00000000      -0.00074368      -0.00046660       0.00005854
C        5.00575964       4.29844886       3.77405002       0.00000000       0.00083039      -0.00013058       0.00019586
S        3.67776171       6.31490060       2.50609019       0.00000000       0.00024124       0.00031400      -0.00129666
C        2.47333615       8.54267183       3.47620964       0.00000000       0.00032343       0.00048883      -0.00004658
C        9.89477665      -0.02112371       3.70541242       0.00000000       0.00024319      -0.00081127      -0.00014332
C        8.67428005       2.11253449       3.84765927       0.00000000      -0.00018179      -0.00005216       0.00063369
C        7.44549582       4.24025506       3.80440807       0.00000000       0.00006229      -0.00036083      -0.00039458
C        6.22386088       6.37934569       3.46463632       0.00000000       0.00008224       0.00079425       0.00047984
C        4.94942635       8.51831626       3.45745709       0.00000000      -0.00001614       0.00039712      -0.00005805
C        0.03794393       1.38375184       3.71039100       0.00000000       0.00011981      -0.00061713      -0.00013156
C       -1.16722040       3.55690541       3.63289453       0.00000000      -0.00006858       0.00044340       0.00009241
C       -2.43310810       5.67148727       3.73502021       0.00000000       0.00035565      -0.00011576      -0.00064179
C       -3.68572704       7.79074448       3.78205163       0.00000000      -0.00034955      -0.00015266      -0.00000706
C       -4.92756467       9.90391407       3.83068308       0.00000000      -0.00041568      -0.00031424       0.00006738
C        2.48815356       1.30325994       4.07299153       0.00000000       0.00041073       0.00032514      -0.00015409
P        1.60445389       3.62069208       3.04514306       0.00000000       0.00009055       0.00012274      -0.00039495
C        0.02240984       5.75612937       3.52308718       0.00000000      -0.00055835      -0.00070777       0.00046895
C       -1.21796915       7.81562815       3.78091317       0.00000000      -0.00004849      -0.00048381      -0.00019515
C       -2.44201185       9.90810213       4.02431699       0.00000000       0.00010869       0.00037037       0.00018926
C        4.96042443       1.37597450       4.19085742       0.00000000      -0.00013322       0.00022955       0.00028676
P        3.45682678       3.73243090       4.41126196       0.00000000      -0.00040006      -0.00002536       0.00030966
C        1.22424276       7.80259410       3.52932080       0.00000000      -0.00031380       0.00041443      -0.00008149
C        0.02652927       9.94073561       3.91333113       0.00000000      -0.00012958       0.00017306      -0.00003529
C        7.43105209       1.40364302       3.95506637       0.00000000      -0.00057679       0.00002751       0.00008457
C        6.20464393       3.53598752       3.91607710       0.00000000      -0.00009641      -0.00066660      -0.00034404
C        5.05177256       5.62363058       3.29926668       0.00000000       0.00056832       0.00014567       0.00016796
C        3.70308019       7.88833970       3.21915892       0.00000000       0.00026303       0.00060826       0.00059686
C        2.48618237       9.95223006       3.70287993       0.00000000      -0.00014950       0.00006902      -0.00010163
C        9.91129113       1.40950632       3.75400247       0.00000000      -0.00011000      -0.00068126      -0.00009360
C        8.68410792       3.53481153       3.81338563       0.00000000       0.00030290       0.00022891       0.00022407
C        7.44538586       5.65967436       3.67930447       0.00000000       0.00020389      -0.00008743       0.00011620
C        6.18399043       7.79519438       3.49858051       0.00000000      -0.00048073       0.00053332      -0.00013900
C        4.95302046       9.94121668       3.64342508       0.00000000       0.00021770      -0.00052389      -0.00024831
Zn       2.01033327       5.69171649       6.24035538       0.00000000       0.05521674      -0.04993288       0.13530129
O        0.86481259       6.95158226       6.35117702       1.00000000      -0.00043769       0.00002347       0.00248709
O        3.19135447       4.31061614       5.84318849       1.00000000      -0.05359882       0.04961954      -0.13822113
