50
Lattice="12.336457 0.0 0.0 -6.168228499999997 10.683685154694365 0.0 0.0 0.0 15.0" Properties=species:S:1:pos:R:3:forces:R:3 energy=-430.2886315781469 free_energy=-430.2886315781469 stress="-0.006374489195545329 -0.0017856657900949611 -1.1494823834673173e-05 -0.0017856657900949611 -0.0051341004039536006 6.157791590376441e-06 -1.1494823834673173e-05 6.157791590376441e-06 -6.553281075669223e-06" pbc="T T T"
C        0.00491798       0.00553633       3.95266014       0.00310600      -0.00232993       0.00006121
C       -1.25500557       2.13412673       4.15500468      -0.00485559      -0.01162346       0.00241008
C       -2.49092853       4.28305789       3.97887367      -0.00739266      -0.00860873       0.00880679
C       -3.68648631       6.42979624       3.81179561       0.00946463       0.01008167       0.00414371
C       -4.91117421       8.56976142       3.80973517       0.00104307       0.00485128      -0.00013727
C        2.48345434      -0.00050018       3.96629079      -0.00222540      -0.00422857      -0.00900171
C        1.24051353       2.06793179       4.40782373      -0.00159679      -0.01714928      -0.00965023
C       -0.08910657       4.31702888       4.39367624       0.00152471       0.01355171      -0.00267173
C       -1.24803259       6.42633936       3.85240021      -0.00476002      -0.00806023       0.01187483
C       -2.44899564       8.55784607       3.81779689       0.01181821      -0.00253439      -0.00264154
C        4.94606943       0.01009933       3.77816225      -0.00769305      -0.00290423       0.00063033
C        3.67397538       2.08904093       3.63904319       0.00470942       0.00169610      -0.00754957
P        1.07757157       6.26306434       2.62468374       0.00961024      -0.01229768       0.00063622
C        0.01008312       8.56034257       3.60326709      -0.00796234      -0.00351668      -0.00049492
C        7.40831614       0.01252929       3.68294928       0.00959802      -0.00043911       0.00255645
C        6.16004692       2.15791312       3.60037935      -0.00106373       0.00447688      -0.00612685
C        5.01792325       4.34990104       3.29024669      -0.01772198       0.00779682      -0.00093856
N        3.83783474       6.48595390       3.51891859      -0.00672914       0.00066402      -0.00170920
C        2.48732297       8.55250305       3.48942359       0.00372227      -0.00569994       0.01354635
C        9.87059314       0.00858568       3.79147396       0.00834610       0.00316883       0.00563231
C        8.62878262       2.14773836       3.82292369       0.00253132       0.00653635      -0.00346103
C        7.41344454       4.29558792       3.68269580      -0.00908518       0.00135618      -0.00174488
C        6.22706028       6.46314550       3.57649610       0.00280033      -0.00214427      -0.01350922
C        4.96859726       8.57630680       3.63558882       0.00374005       0.00862223       0.00137445
C       -0.00406375       1.41696255       4.18377034      -0.00345561      -0.01051045       0.00472678
C       -1.28077457       3.56358158       4.20500169      -0.00052746      -0.00948019       0.00434727
C       -2.47560176       5.71010615       3.90757436      -0.00066364      -0.00902334       0.00020796
C       -3.68268426       7.85157083       3.82153904       0.01017804       0.01255771       0.00040636
C       -4.92226816       9.98363941       3.92520122      -0.00027528       0.00312866      -0.00320284
C        2.47106208       1.42746325       4.05376880       0.00073073       0.00276264       0.00378969
P        1.11602244       3.50322942       5.47350606      -0.00911040      -0.00196241       0.00191825
C       -0.04072861       5.66605436       3.89266826       0.01406563       0.01059489      -0.00769325
C       -1.22458577       7.84688885       3.72780778       0.00118150      -0.01764281       0.00555641
C       -2.45246904       9.98197805       3.85474568      -0.00566491      -0.00368096      -0.00755101
C        4.93135484       1.44182684       3.67972384       0.00162929      -0.00202541      -0.00063306
S        3.57861290       3.54850672       2.69165484      -0.00876846       0.01195573       0.00911893
C        1.23975863       7.88491706       3.35743198      -0.00440261       0.00511787      -0.00538168
C        0.01109352       9.98626426       3.69465867      -0.00325043       0.00101185      -0.00192546
C        7.39189439       1.44471224       3.70411986       0.00683097       0.00586061      -0.00302110
C        6.17590310       3.58822014       3.51768320      -0.01325877       0.00372953      -0.00248108
C        5.00933941       5.77533182       3.42729245      -0.00633626      -0.00314031      -0.01765992
C        3.75671048       7.84357070       3.51687861      -0.00106984       0.00100352       0.01209509
C        2.47869153       9.97864377       3.65439518       0.01357062      -0.00088079       0.00727684
C        9.86320617       1.43100355       3.92807994      -0.00350605      -0.00068929       0.00254084
C        8.62751494       3.57214516       3.83674422      -0.00834149       0.00212214      -0.00219292
C        7.42845229       5.71961748       3.69215678       0.00800896       0.00295386       0.00326282
C        6.20049347       7.87481464       3.67329891      -0.00123361      -0.00019218      -0.00149433
C        4.94447999       9.98928469       3.78915270       0.00797786       0.00956961      -0.00494303
Zn       2.48819330       5.15384399       3.97052969      -0.01143209      -0.00055878       0.00265667
O        2.43698890       4.30368617       5.70101740       0.01619483       0.00615269       0.00823979
