52
Lattice="12.336457 0.0 0.0 -6.168228499999997 10.683685154694365 0.0 0.0 0.0 15.0" Properties=species:S:1:pos:R:3:forces:R:3 energy=-437.58114224255934 free_energy=-437.58114224255934 stress="-0.006948904982215003 -0.003521235126402201 -2.104965327540925e-05 -0.003521235126402201 -0.006245333389963466 -1.0521652956096774e-05 -2.104965327540925e-05 -1.0521652956096774e-05 4.535299320129946e-05" pbc="T T T"
C       -0.02803084      -0.05117108       3.95930688      -0.00224878      -0.00298397       0.00147725
C       -1.29607225       2.07360085       4.15197487      -0.00853711      -0.00474358      -0.00658759
C       -2.52967120       4.22089123       3.92267083       0.00101254       0.00038191       0.00016142
C       -3.71803655       6.36721220       3.70401889      -0.00195227       0.00137937       0.00569018
C       -4.94134108       8.51111339       3.74455922       0.00781655       0.00040696       0.00806643
C        2.44948813      -0.07558627       3.93626591      -0.00699099       0.00355574      -0.00079148
C        1.20520359       2.00671336       4.38108876       0.00356573      -0.00199414      -0.00525091
C       -0.14561661       4.24950637       4.36478543      -0.00379488      -0.01169912       0.00567182
C       -1.28240837       6.35947452       3.78423675      -0.00452152      -0.00316564       0.00538548
C       -2.47825464       8.49113595       3.72684574       0.00019931       0.00685236       0.00186935
C        4.91016587      -0.05453038       3.73068021      -0.00463855       0.00316715      -0.00167493
C        3.63109290       2.02210215       3.71330475       0.00297184       0.00762204       0.00963428
P        1.30320706       6.12305161       2.98809183       0.00210359       0.00727505      -0.00320788
C       -0.01720601       8.49146748       3.60379020       0.00143894      -0.00478440      -0.00303488
C        7.36924991      -0.04294329       3.69218560       0.00704334      -0.00566621      -0.00204252
C        6.11494910       2.10386353       3.60815235      -0.00097110      -0.00276902      -0.00110425
C        4.96142463       4.30820615       3.40540109      -0.00331341      -0.00488094      -0.00898718
N        3.79920157       6.43168315       3.74568310       0.00923337       0.00695968       0.00080628
C        2.46183881       8.50485970       3.60083902      -0.00152966      -0.00124435      -0.00266616
C        9.83612965      -0.04419395       3.82439354       0.00255438       0.00120673       0.00644914
C        8.58786078       2.09055346       3.81184562      -0.00904446       0.00488391      -0.00041344
C        7.37175616       4.23807331       3.63426890      -0.00253009       0.00060459       0.01394628
C        6.18881646       6.40898119       3.54524730       0.00567516       0.00533287       0.00373589
C        4.93944168       8.52454501       3.66450196      -0.00059676       0.00139488      -0.00304460
C       -0.04511563       1.35851106       4.19025843      -0.00186646      -0.00174888      -0.00282062
C       -1.32849547       3.49766972       4.17998944      -0.00262223      -0.00801343      -0.01211243
C       -2.50928540       5.64420241       3.81047512      -0.00525243       0.00017740       0.01038318
C       -3.71238372       7.78953455       3.72177167       0.00545108       0.00051448      -0.00519076
C       -4.95811261       9.91998076       3.89461908      -0.00252510       0.00005958      -0.00459756
C        2.43524521       1.33619741       4.06651647       0.00213691       0.00133572      -0.00619825
P        1.19305018       3.53439542       5.26512766       0.00819408      -0.00353334       0.00140705
C       -0.08800493       5.60722203       3.92614968      -0.00535308      -0.00954061       0.00506475
C       -1.25213986       7.77707998       3.66788494      -0.00151994       0.00133091      -0.00142415
C       -2.48452805       9.91273938       3.79064502      -0.00757160       0.00786154      -0.00036761
C        4.89104867       1.38210189       3.67716119      -0.00237029       0.00336029       0.00671876
S        3.42824785       3.60144103       3.06886881       0.00094874       0.00452347      -0.00438394
C        1.22971559       7.81611906       3.48047781       0.00188319      -0.00930630       0.00974702
C       -0.02343789       9.92217566       3.66964683       0.00177384      -0.00193477       0.00158847
C        7.35006815       1.38912398       3.70032700      -0.00171185      -0.00341503      -0.00730325
C        6.12645731       3.53407308       3.53446290      -0.00250462      -0.00434579      -0.00490502
C        4.95847703       5.72868556       3.51758845       0.00618649       0.00110384       0.00228418
C        3.72486607       7.78979933       3.63403575      -0.00256150       0.00526988       0.00864131
C        2.44388161       9.92901691       3.70561174       0.00860805      -0.00328558      -0.00098303
C        9.82266964       1.37488440       3.93641456      -0.01123876       0.00230260      -0.00488419
C        8.58683906       3.51405280       3.79095304       0.00084780       0.00471549      -0.00259074
C        7.39102150       5.66133928       3.61542117       0.00038355       0.00117675       0.00408948
C        6.17062628       7.82049343       3.64220975       0.00626785       0.00625464       0.00594072
C        4.91222244       9.93607057       3.81194228      -0.00078178      -0.00259337       0.00263525
Zn       2.57981053       5.33061592       4.95460072       0.00932181      -0.01486435      -0.00379945
O        3.61254903       5.99558421       6.41282860      -0.01478607       0.00035658      -0.00599263
O        2.73323299       5.76542467       7.56505516       0.00806941       0.00491009      -0.00267712
H        3.30683081       5.17185426       8.08628303       0.00964775       0.01023635      -0.01235743
