52
Lattice="12.336457 0.0 0.0 -6.168228499999997 10.683685154694365 0.0 0.0 0.0 15.0" Properties=species:S:1:pos:R:3:forces:R:3 energy=-437.6872530409735 free_energy=-437.6872530409735 stress="-0.003149321358050241 -0.002824175732191222 2.98101939628528e-06 -0.002824175732191222 -0.002100464724903586 -4.4658975414648315e-06 2.98101939628528e-06 -4.4658975414648315e-06 -6.496285375340979e-06" pbc="T T T"
C        0.11014347       0.07014339       3.94630206       0.00150207       0.00619551       0.01509079
C       -1.15633431       2.18391626       3.65712845       0.00966541      -0.00600921      -0.00279468
C       -2.38520146       4.33455524       3.81315339       0.00191562       0.00247142       0.01159787
C       -3.56662437       6.48457153       4.08634775      -0.00496207       0.00328335       0.00994181
C       -4.79493738       8.63359883       4.16470608       0.00419491       0.00122830       0.00451338
C        2.57773124       0.05420414       3.81320565      -0.00775936       0.00194885       0.01106367
C        1.28722291       2.05740290       3.19136656       0.00182624       0.00057071      -0.01080534
C       -0.12767032       4.31613465       2.93860821       0.01004277      -0.01101240      -0.00255928
C       -1.16477120       6.47689856       3.55266645       0.00392003       0.00493483       0.00766674
C       -2.33532407       8.61068530       3.91896230       0.00341463      -0.00521922      -0.01636940
C        5.04851322       0.06765051       3.85401945      -0.00041574      -0.00074880       0.01750667
C        3.79400117       2.15138068       3.50820920      -0.00718565       0.00742979      -0.01375320
P        1.48207512       6.49608682       2.58650052       0.00665799       0.01527684       0.00457887
C        0.12479706       8.61245172       3.74180420       0.00840853       0.00211471       0.00231700
C        7.51011973       0.06883536       3.99479787       0.00132964      -0.00588426      -0.00001438
C        6.26282180       2.22138466       3.93510937       0.00717060       0.00761149      -0.00199102
C        5.09706915       4.43418207       4.00231429       0.00115032      -0.00930446       0.00335415
N        3.91892629       6.54397381       4.32925059       0.00346157      -0.00344764       0.00180547
C        2.59918413       8.60828529       3.99630264      -0.01598729      -0.00172761      -0.00367184
C        9.98011346       0.06976172       4.07041224      -0.00741413      -0.00385950      -0.00142907
C        8.73344383       2.20641520       4.00570986      -0.00246402       0.00320108       0.00710659
C        7.52156638       4.35566998       4.14826901      -0.00261081       0.00759117       0.00558053
C        6.33167770       6.52457412       4.34384008       0.01229869      -0.01090431       0.00171340
C        5.07337138       8.63390903       4.25429218      -0.00005125      -0.00378164       0.00890760
C        0.08044469       1.46377757       3.61323591       0.00965241      -0.00148225      -0.00096818
C       -1.20589315       3.59530380       3.47693241       0.00077338      -0.00992200      -0.01477942
C       -2.36799467       5.76269360       3.83618581      -0.00723562       0.00997497      -0.00439049
C       -3.56473234       7.91018738       4.07662906      -0.00056642      -0.00081032      -0.01319225
C       -4.81562088      10.04621243       3.98908085      -0.00589130       0.00419563       0.01214759
C        2.55481410       1.44768430       3.49522197      -0.00664710       0.00235535      -0.00232305
S        1.12603902       3.42040330       2.09924654      -0.01268890      -0.00608833       0.00537028
C       -0.05179726       5.73086458       3.06975086      -0.00474524      -0.00305740      -0.00352667
C       -1.11488749       7.89696810       3.72908088       0.01253895       0.00692823      -0.00666225
C       -2.34703297      10.03644162       3.88041809      -0.00412038      -0.00429614       0.00038487
C        5.03380878       1.50208776       3.77959912      -0.00303588       0.01119477       0.01404078
P        3.75249158       3.84956054       3.04221728       0.00062095       0.00903171      -0.00297890
C        1.38643808       7.94511255       3.62137112      -0.00423420      -0.00745816       0.00039725
C        0.11453067      10.03858071       3.89643928       0.00590189      -0.00154838      -0.01237863
C        7.49577523       1.49964234       4.00975894       0.00239635      -0.00418368      -0.00236836
C        6.28093688       3.65333333       4.05205682       0.00684207       0.00497960      -0.00733510
C        5.09904487       5.85146356       4.28072127       0.00708035      -0.01035002      -0.00463490
C        3.85428631       7.90080107       4.21262648      -0.01078246       0.00224209      -0.00710495
C        2.58173547      10.03607317       4.06687483      -0.00851919      -0.00433656      -0.00711934
C        9.97400134       1.49298071       3.93850149       0.00161800      -0.00197024       0.00091527
C        8.73596444       3.63097029       4.02227911      -0.00661375       0.00807368      -0.00002618
C        7.54267852       5.78070573       4.22841650       0.00476505      -0.00011724       0.00326019
C        6.31321786       7.93703250       4.30335004       0.01019420      -0.00861392      -0.00884470
C        5.05226508      10.04994814       4.11834864      -0.00221947      -0.00200944      -0.00968741
Zn       2.37032284       5.24050422       4.38114090      -0.00260243      -0.00549412       0.01124549
O        1.52249530       4.88984942       6.04577284      -0.01419122       0.00453539       0.00257760
O        0.92327883       3.55061778       5.93967666      -0.00382654      -0.00126115      -0.00120393
H        0.94721019       3.30026654       6.88522434       0.00742781       0.00752889      -0.00017093
