50
Lattice="12.336457 0.0 0.0 -6.168228499999997 10.683685154694365 0.0 0.0 0.0 15.0" Properties=species:S:1:pos:R:3:forces:R:3 energy=-431.2813567140688 free_energy=-431.2813567140688 stress="-0.0010531312036462673 4.4991812146871416e-07 2.403826330333113e-07 4.4991812146871416e-07 0.0070484620245280455 1.0717670948330747e-10 2.403826330333113e-07 1.0717670948330747e-10 -1.3381461756596297e-05" pbc="T T T"
C        0.00244429       0.00695049       3.69661820      -0.00272251      -0.00248800       0.01269150
C       -1.24497949       2.13402650       3.69693820       0.01256021      -0.00436373      -0.00433470
C       -2.47263649       4.27410307       3.69591806       0.00234772      -0.00111844      -0.00963774
C       -3.70080296       6.41387114       3.69232228      -0.00017973       0.00541744      -0.00636971
C       -4.93604129       8.55614583       3.69383556      -0.01029631       0.00619220       0.00250940
C        2.46723620       0.05727672       3.71283739       0.00048397       0.00412360      -0.01551393
C        1.19800731       2.15761505       3.73637258      -0.00002194      -0.00385214       0.00498296
C       -0.04681299       4.27709160       3.74699040      -0.00662100      -0.00043217       0.00833223
C       -1.24393376       6.40559553       3.70620822       0.00355318       0.00436822      -0.00776031
C       -2.46576696       8.55622454       3.69131487       0.01004023       0.00596008       0.00335300
C        4.93205605       0.00707136       3.69716278       0.00320698      -0.00255078       0.01266780
C        3.73651254       2.15751625       3.74189767       0.00092871      -0.00316756       0.00399919
O        1.14361936       6.41842314       3.73384465      -0.00503338      -0.00713213      -0.00491523
C        0.00381571       8.52165728       3.70492479       0.00531430       0.00742183       0.00602612
C        7.40976768      -0.03382863       3.70063968      -0.00138604      -0.00567645      -0.00297869
C        6.17965340       2.13402595       3.70238073      -0.01265999      -0.00403895      -0.00346398
C        4.98193805       4.27703067       3.75956396       0.00645885       0.00003385       0.00500262
O        3.79139877       6.41830594       3.74624153       0.00420519      -0.00733593      -0.00239948
C        2.46732485       8.45378510       3.73574088       0.00031318      -0.00593208      -0.00278513
C        9.86124867      -0.03389577       3.69968871       0.00207834      -0.00553702      -0.00030459
C        8.63559869       2.12298848       3.68995778      -0.00036580      -0.01009862       0.00751864
C        7.40754112       4.27405438       3.70075000      -0.00315650      -0.00063641      -0.01038225
C        6.17883197       6.40553399       3.71461771      -0.00408501       0.00440662      -0.00647379
C        4.93080888       8.52151175       3.70941347      -0.00532533       0.00725595       0.00567481
C        0.00394532       1.44492704       3.70451388       0.00470747      -0.00765784       0.00945399
C       -1.24385678       3.56088688       3.70653925       0.00338068      -0.00424781      -0.00916395
C       -2.47264892       5.69219789       3.69591100       0.00233428       0.00217936      -0.00937229
C       -3.70086698       7.84329788       3.68982566      -0.00023054       0.01102942       0.00799684
C       -4.92659741      10.00028811       3.70098446      -0.00216746       0.00585925      -0.00508862
C        2.46724468       1.51285228       3.73617070       0.00083042       0.00552016      -0.00420140
O        1.14366926       3.54833664       3.73358049      -0.00527364       0.00534246      -0.00363625
C       -0.04683205       5.68956506       3.74672878      -0.00679365      -0.00045896       0.00978656
C       -1.24508687       7.83246596       3.69705288       0.01295004       0.00439849      -0.00563954
C       -2.47534468      10.00037987       3.69938969       0.00272951       0.00549774       0.00205752
C        4.93060291       1.44502049       3.70932184      -0.00432370      -0.00745160       0.00616663
O        3.79126951       3.54835249       3.74633260       0.00514632       0.00615948      -0.00366285
C        1.19799730       7.80912597       3.73588493      -0.00006626       0.00268095       0.00797636
C        0.00227506       9.95958819       3.69672465      -0.00163131       0.00261083       0.01175180
C        7.40032511       1.41024710       3.69413690      -0.00993174      -0.00591212       0.00128434
C        6.17872314       3.56083497       3.71454876      -0.00372185      -0.00392797      -0.00584440
C        4.98199772       5.68948260       3.75969695       0.00627078      -0.00036711       0.00390803
C        3.73666364       7.80914682       3.74234242       0.00001564       0.00240840       0.00063779
C        2.46727281       9.90929491       3.71232981       0.00045078      -0.00431074      -0.01300400
C        9.87079507       1.41020548       3.69164354       0.00961288      -0.00586602       0.00179986
C        8.63567191       3.55235578       3.69188990      -0.00056308      -0.00385696      -0.00388374
C        7.40755701       5.69213973       3.70111803      -0.00286058       0.00249196      -0.01269612
C        6.17979129       7.83236973       3.70183712      -0.01317681       0.00438111      -0.00000942
C        4.93224880       9.95945260       3.69729452       0.00218472       0.00254180       0.01240032
Zn       2.46411347       4.98353120       4.76747139       0.00105412       0.00005618      -0.00579879
O        2.44602004       4.98256122       6.53115685      -0.00056435       0.00008015       0.01134262
