52
Lattice="12.336457 0.0 0.0 -6.168228499999997 10.683685154694365 0.0 0.0 0.0 15.0" Properties=species:S:1:pos:R:3:forces:R:3 energy=-441.4487155374793 free_energy=-441.4487155374793 stress="-0.0009505810977542194 -0.0001470173039670097 -1.187327270682357e-05 -0.0001470173039670097 0.0076923894647852094 7.060037638157359e-06 -1.187327270682357e-05 7.060037638157359e-06 1.8291297794384107e-05" pbc="T T T"
C       -0.01033652       0.00034950       3.74520062      -0.00136042       0.00357048       0.00476727
C       -1.25841345       2.12330918       3.71577848       0.00427904      -0.00254735       0.00385661
C       -2.48649644       4.26587990       3.64469920       0.00266215      -0.00207893       0.00658772
C       -3.71158233       6.40850930       3.64435587      -0.00556315       0.00032199      -0.00567973
C       -4.94717027       8.55158289       3.70109812      -0.00012741       0.00014452      -0.00810933
C        2.45499983       0.04973444       3.76130608       0.00114470      -0.00505281       0.00803610
C        1.18627277       2.14610381       3.84434617       0.00258411       0.00889228       0.00039385
C       -0.07210246       4.27176075       3.77722771      -0.00585127       0.00754586      -0.00545647
C       -1.25751523       6.40232248       3.67928506      -0.00191333      -0.00366410       0.00246671
C       -2.47700650       8.55129335       3.69934373       0.00318696       0.00253463      -0.00824321
C        4.92022848       0.00099656       3.73419171       0.00772637       0.00461882       0.01009527
C        3.72293014       2.15182653       3.81311185       0.00084861      -0.00034441      -0.00276127
O        1.13020349       6.40213278       3.86123352      -0.00385370       0.00574908      -0.00108182
C       -0.00601595       8.51186465       3.73538299      -0.00886413      -0.00336111      -0.00310421
C        7.39752630      -0.04371370       3.71858967       0.00089551       0.00389477       0.00591515
C        6.16657034       2.12556314       3.69399077      -0.00330825      -0.00168307       0.00281916
C        4.97557951       4.27411713       3.70480466       0.00327206       0.00063703      -0.01340117
O        3.78195512       6.40680844       3.76809510       0.00476883       0.00446473      -0.00170259
C        2.45433682       8.44073809       3.76586609      -0.00305533      -0.00453578       0.00476541
C        9.84796603      -0.04401209       3.72400023       0.00215642      -0.00468136      -0.00192132
C        8.62235263       2.11319395       3.67292137       0.00114432       0.00333652      -0.00676708
C        7.39603320       4.26669984       3.63416346      -0.00701870      -0.00307524       0.00006212
C        6.17065857       6.40326634       3.65800411      -0.00518611      -0.00089214      -0.00751227
C        4.91940639       8.51319195       3.72760282       0.00886180      -0.00445951      -0.01342655
C       -0.00815862       1.43906108       3.76810253       0.00814547       0.00540895      -0.00643660
C       -1.25889164       3.54917082       3.69267251       0.00285237      -0.00190736      -0.00352440
C       -2.48483332       5.68559425       3.64261323      -0.00213964      -0.00300145       0.00956973
C       -3.71220539       7.83851078       3.67744555       0.00123334       0.00309715       0.00357233
C       -4.93843366       9.99508325       3.73849249      -0.00442976      -0.00128213       0.00783913
C        2.45456059       1.50882221       3.82014578       0.00078020      -0.00253230      -0.00134706
O        1.12341553       3.54788493       3.92618731      -0.01255310       0.00743410       0.00061915
C       -0.06593432       5.68206644       3.76043668       0.00060199       0.00555945       0.00462693
C       -1.25588170       7.82756498       3.69904607      -0.00532538      -0.00551539       0.00216201
C       -2.48768519       9.99494425       3.73353718       0.00915739       0.00255159       0.00349494
C        4.91687186       1.44078505       3.74670273      -0.00113668       0.00157895      -0.01348397
O        3.78220619       3.55164536       3.83406781       0.01057373      -0.00177290       0.00147977
C        1.18875207       7.79880680       3.78755288      -0.00851234       0.00062275       0.00822467
C       -0.01024825       9.95075652       3.72564469       0.00232876      -0.00131831       0.01093885
C        7.38717361       1.40086443       3.69033468      -0.00054262       0.00448758      -0.00090212
C        6.16641546       3.55215022       3.66010011      -0.00465969      -0.00433769      -0.00563270
C        4.97083901       5.68626919       3.68788360      -0.00250925       0.00199858       0.00495665
C        3.72487383       7.79230136       3.75017890       0.00474668       0.00134672       0.00493816
C        2.45428439       9.89906987       3.73366250      -0.00049569      -0.00271937       0.00609954
C        9.85775719       1.39972957       3.69900704       0.00168318      -0.00088177       0.00244547
C        8.62254426       3.54370063       3.64245572      -0.00104647       0.00256002      -0.00109617
C        7.39733177       5.68693873       3.63622022      -0.00950214      -0.00302979       0.00137804
C        6.16827996       7.82799719       3.69471680       0.00522520      -0.00435008      -0.00927808
C        4.92071946       9.95077323       3.73167013       0.00262699      -0.00444907       0.01281193
Zn       2.43613181       4.92309914       4.67111466      -0.00352773      -0.00466103      -0.00313744
O        3.13783273       5.70496788       6.21040679       0.00656156      -0.00241492      -0.00844081
O        2.43103396       4.90708730       7.23716850       0.00029313       0.00160831       0.00627440
H        3.20063024       4.65129523       7.78298753       0.00214142      -0.00341549      -0.00875069
