51
Lattice="12.336457 0.0 0.0 -6.168228499999997 10.683685154694365 0.0 0.0 0.0 15.0" Properties=species:S:1:pos:R:3:forces:R:3 energy=-444.1079462587077 free_energy=-444.1079462587077 stress="0.00502412737859243 -9.303793619973428e-06 6.3145990324645e-07 -9.303793619973428e-06 0.004988123955346224 9.239654752615784e-06 6.3145990324645e-07 9.239654752615784e-06 2.636697425665316e-05" pbc="T T T"
C       -0.00461782      -0.01250436       3.72871243      -0.00578884      -0.00011589      -0.00043160
C       -1.22656978       2.13420530       3.75547751      -0.01007952       0.00693568      -0.01197602
C       -2.45158804       4.25742374       3.75761169      -0.00427164       0.00762374      -0.00231099
C       -3.70131980       6.39002728       3.74354517      -0.00167035       0.00176665      -0.00319241
C       -4.94204969       8.52833264       3.72950875       0.00319724       0.00005366      -0.00413529
C        2.46665333      -0.00613896       3.73742186       0.00262380      -0.00305654      -0.00417411
C        1.24047086       2.13760852       3.76275330      -0.00039865      -0.00152705      -0.01082933
C        0.06369863       4.29369086       3.77305694       0.00026757       0.00091941       0.00306768
C       -1.21702875       6.39478930       3.73666778      -0.00449062       0.00215522       0.00283415
C       -2.46136229       8.52801910       3.72995889       0.00332167       0.00262396      -0.00494822
C        4.93787974      -0.01258499       3.72935332       0.00465491       0.00185910      -0.00442771
C        3.69325287       2.13837038       3.75975521      -0.00000570      -0.00905874      -0.00522233
O        2.46666726       4.18258048       3.97031835       0.00541120      -0.00662217      -0.00628918
O        1.17957235       6.43595766       3.78765071       0.00019464       0.00056208       0.00108456
C        0.00910284       8.51856880       3.67467389       0.00490876       0.00164486      -0.00184198
C        7.40872550      -0.02938891       3.71225083       0.00689311       0.00395466      -0.00896222
C        6.16026645       2.13478068       3.75211878       0.00245288       0.00449537      -0.00200133
C        4.87010701       4.29465661       3.76899203      -0.00613775      -0.00279722      -0.00272984
O        3.75355912       6.43666781       3.77688872       0.00068965      -0.00758004       0.00713854
C        2.46635992       8.45878648       3.64150670       0.00240877      -0.00320258      -0.00758560
C        9.86036409      -0.02905547       3.71265962      -0.00313397      -0.00049781      -0.01133765
C        8.63468941       2.12045505       3.75076575       0.00316698       0.00440011      -0.00722827
C        7.38539342       4.25825474       3.75647767       0.00091548      -0.00055152      -0.00773266
C        6.15056341       6.39553492       3.73396229       0.00237923       0.00230655       0.00148866
C        4.92415072       8.51959487       3.67209066      -0.00853003      -0.00340071       0.00307825
C       -0.00107423       1.41771226       3.74615678      -0.00878041       0.00409895       0.00748491
C       -1.19438247       3.56765999       3.76226692      -0.00600426       0.00855887       0.00315470
C       -2.45972408       5.67827426       3.74755766      -0.00492194       0.00485801       0.01172052
C       -3.70170426       7.81588569       3.73660246       0.00405822       0.00029154       0.00339295
C       -4.93823467       9.95827332       3.73093815       0.00027722      -0.00037329       0.00034202
C        2.46693324       1.41365721       3.75112455      -0.00006825      -0.00618293       0.00346750
C        1.26077249       3.53046318       3.81667249       0.00337221      -0.00300745       0.00964388
C        0.00650732       5.72032966       3.74666096      -0.00077733       0.00147102       0.00774834
C       -1.23063715       7.81851732       3.71756993       0.00138335       0.00228902      -0.00186389
C       -2.46506464       9.95810101       3.73109173       0.00444602       0.00139803       0.00216136
C        4.93478652       1.41814414       3.74489499       0.00348593       0.00024030      -0.00052571
C        3.67272509       3.53137928       3.81279454       0.00065381      -0.01152765       0.01472704
C        1.20635150       7.79484402       3.65244471       0.00461191       0.00062371       0.01317650
C        0.00582948       9.95241278       3.70603284       0.00643255       0.00325420      -0.00108945
C        7.40153297       1.40753783       3.74129515       0.00529033       0.00600223      -0.00387227
C        6.12832026       3.56854709       3.75930535      -0.00268323       0.00314094       0.00226779
C        4.92702893       5.72126494       3.74099315       0.00232494      -0.00324934       0.01028224
C        3.72677607       7.79615332       3.64781881      -0.00400590      -0.00940167       0.01645356
C        2.46630515       9.90717848       3.67783632       0.00263122      -0.00283966       0.00617280
C        9.86796718       1.40771174       3.74288768      -0.00381870       0.00038128      -0.00455326
C        8.63491015       3.54542766       3.75806744       0.00213604       0.00332448       0.00079049
C        7.39347613       5.67901475       3.74562246       0.00063861      -0.00040786       0.01745924
C        6.16375291       7.81917592       3.71645297      -0.00191315       0.00365278      -0.00890235
C        4.92710199       9.95313272       3.70507382      -0.00707203      -0.00266509      -0.00063433
Zn       2.47620983       5.39205484       6.44170785      -0.00090075      -0.00323387      -0.01100130
O        2.46153158       7.06830116       6.02160180       0.00022478      -0.00358728      -0.00933836
