51
Lattice="12.336457 0.0 0.0 -6.168228499999997 10.683685154694365 0.0 0.0 0.0 15.0" Properties=species:S:1:pos:R:3:initial_magmoms:R:1:forces:R:3 energy=-437.1928025552339 free_energy=-437.1928025552339 stress="0.0019655528913713883 3.844143282279216e-05 3.122577815255701e-05 3.844143282279216e-05 0.010013639390808002 1.204373727399336e-05 3.122577815255701e-05 1.204373727399336e-05 0.00015615742192048965" pbc="T T T"
C        0.00934504      -0.03232585       3.70330209       0.00000000      -0.00929031      -0.01956367       0.01979399
C       -1.23186045       2.09849811       3.71646480       0.00000000      -0.03063807       0.01696295       0.00951947
C       -2.45555456       4.24038979       3.65755364       0.00000000      -0.00026243      -0.01266826      -0.01235508
C       -3.68499001       6.37627040       3.61368266       0.00000000      -0.01475239       0.04729745       0.02696779
C       -4.92449764       8.51641607       3.64196437       0.00000000      -0.03369865       0.03599849       0.01612683
C        2.47342230       0.01683757       3.73336058       0.00000000       0.01243966      -0.00287535      -0.01826906
C        1.20483576       2.12168149       3.82319366       0.00000000       0.02660633      -0.00013205      -0.00569689
C       -0.02986454       4.25202110       3.76800049       0.00000000      -0.02803190      -0.00073712       0.00012143
C       -1.22084307       6.37650123       3.70120284       0.00000000      -0.02552096      -0.03875649       0.00789423
C       -2.45409760       8.52127929       3.70190545       0.00000000      -0.00241432      -0.00317063       0.01321799
C        4.93833301      -0.02654060       3.71922269       0.00000000       0.03171534       0.00518162      -0.00879674
C        3.73827451       2.12489122       3.76736432       0.00000000       0.07506144      -0.00420367       0.00522130
O        1.18161644       6.37770310       3.82341955       0.00000000      -0.03377200      -0.03537543      -0.04656809
C        0.01903781       8.48604804       3.75070760       0.00000000      -0.02610956      -0.01003268      -0.04078764
C        7.41763276      -0.07125105       3.69668354       0.00000000       0.02802964       0.02226596       0.02867315
C        6.18417728       2.10127306       3.61178404       0.00000000       0.00599017      -0.04155241       0.07110610
C        4.98507044       4.25228703       3.59622095       0.00000000       0.02206664       0.00269416       0.01759306
O        3.77881176       6.37388236       3.57045053       0.00000000      -0.01846382      -0.03235045       0.04526562
C        2.48102906       8.40622694       3.69478126       0.00000000      -0.02065799      -0.01759432       0.00807242
C        9.86816915      -0.07292624       3.70955908       0.00000000       0.02355055      -0.02172311      -0.02450506
C        8.64759560       2.08772160       3.66813988       0.00000000      -0.06048249      -0.00464203      -0.06389584
C        7.41691105       4.23770246       3.56718546       0.00000000      -0.01903607       0.00470490       0.01577246
C        6.18549037       6.36964416       3.55793626       0.00000000      -0.02123583       0.02763434      -0.03676277
C        4.93538295       8.47941616       3.63821161       0.00000000       0.04919905      -0.00245384      -0.02502565
C        0.01318756       1.40828938       3.74555715       0.00000000       0.00662957       0.00139649       0.00519987
C       -1.22188895       3.52983119       3.70183284       0.00000000       0.03776928       0.02639647       0.00506252
C       -2.45135891       5.66095327       3.65165494       0.00000000      -0.00212711       0.00275100       0.01283914
C       -3.68670063       7.80490181       3.64990964       0.00000000      -0.03825726       0.04177811      -0.00723944
C       -4.91880045       9.96001676       3.68900928       0.00000000      -0.01136087       0.00163533       0.04508156
C        2.47206520       1.47744445       3.78939191       0.00000000       0.05493662       0.02007605      -0.01037920
O        1.15235243       3.52188315       3.90959012       0.00000000       0.01614748       0.02057780      -0.00155870
C       -0.00427290       5.66795907       3.74576056       0.00000000      -0.05012880      -0.03011681       0.04155885
C       -1.22709264       7.80010531       3.72919351       0.00000000      -0.01275329      -0.05317579      -0.02755522
C       -2.46746446       9.96385201       3.72419976       0.00000000       0.01486696       0.01812826      -0.00161702
C        4.93298704       1.41462965       3.68793341       0.00000000       0.04105216       0.01468434       0.00326112
O        3.79209340       3.53379319       3.79882473       0.00000000       0.02977304       0.03456548       0.02291670
C        1.21599928       7.74987020       3.73786402       0.00000000      -0.02085681      -0.04772096      -0.02409873
C        0.00861996       9.92266015       3.72652590       0.00000000       0.03297700       0.02906433      -0.02313407
C        7.40845781       1.37566019       3.64770553       0.00000000      -0.03075096      -0.00725007       0.04217828
C        6.17583355       3.53182267       3.55828960       0.00000000       0.02643441      -0.07614543       0.01999531
C        4.96938319       5.66497647       3.54726122       0.00000000       0.02730729      -0.01467567       0.03883711
C        3.74135907       7.74753146       3.61368175       0.00000000       0.03438785       0.05527132       0.02715397
C        2.47520361       9.86307995       3.70928684       0.00000000       0.02790586       0.00672835      -0.03355117
C        9.88231555       1.37354223       3.70489700       0.00000000      -0.03737738       0.00957988      -0.02704167
C        8.64876574       3.51883822       3.63265436       0.00000000      -0.01946920      -0.01426037      -0.04502989
C        7.41865279       5.65674742       3.56613760       0.00000000      -0.02773273       0.02835796       0.02630709
C        6.18619610       7.79272233       3.60753121       0.00000000      -0.00660491       0.03540538      -0.00776019
C        4.93945690       9.91787565       3.68884601       0.00000000       0.01386594      -0.02151353      -0.00610400
Zn       2.54734370       4.58281185       5.10715180       0.00000000      -0.00445521       0.06775174       0.05566790
O        1.59233279       5.65573170       6.31678016       1.00000000      -0.00068924       0.05475280      -0.14501300
O        2.71027643       6.32998316       5.89782923       1.00000000      -0.03178171      -0.11895085       0.01133986
