53
Lattice="12.336457 0.0 0.0 -6.168228499999997 10.683685154694365 0.0 0.0 0.0 15.0" Properties=species:S:1:pos:R:3:forces:R:3 energy=-453.9497780167257 free_energy=-453.9497780167257 stress="0.005372098540240323 6.46349702971913e-05 -6.268897913766895e-05 6.46349702971913e-05 0.005277944607137381 0.00013604230067142687 -6.268897913766895e-05 0.00013604230067142687 0.00017856310989582802" pbc="T T T"
C       -0.04940256      -0.04543301       3.80371401      -0.00474662       0.01527146      -0.04543874
C       -1.27218202       2.10207399       3.88706858       0.02740578      -0.00341336      -0.06945986
C       -2.49698393       4.22655871       3.90151710      -0.02000357       0.00424955       0.01738218
C       -3.74543626       6.35963127       3.84165447      -0.03605388      -0.00681346       0.00205231
C       -4.98660219       8.49650058       3.77223181       0.00417877       0.00969584       0.01387006
C        2.42257986      -0.03969130       3.79710400      -0.00231624       0.00938799       0.01101494
C        1.19713037       2.09951283       3.85288610       0.01485866       0.06420125       0.02810777
C        0.02068881       4.26482474       3.94035322      -0.00133603       0.00595222       0.02250509
C       -1.26449850       6.36579341       3.89093940       0.03018331      -0.00187478      -0.03535845
C       -2.50625497       8.49797960       3.81115185       0.00309639      -0.03860082      -0.01808485
C        4.89456962      -0.04608211       3.81979598      -0.00215395       0.01595632       0.02346261
C        3.65152384       2.10167604       3.86444190      -0.02884352       0.03492972      -0.02114523
O        2.43035536       4.13446203       4.16592552       0.01204809      -0.05713697      -0.00307948
O        1.11248544       6.42492012       4.18761368       0.01878706      -0.00267428       0.01963221
C       -0.03697058       8.48662741       3.84657639       0.01796012       0.00294579      -0.02320128
C        7.36509071      -0.06097939       3.84031361       0.00316619       0.01047144       0.00854202
C        6.11669773       2.10199676       3.87683093      -0.01377741       0.04634792      -0.01897887
C        4.82429471       4.26338861       3.88671450      -0.00993289      -0.01929940      -0.00947461
O        3.71744613       6.40883775       3.89386185      -0.00589381      -0.01998862      -0.01502934
C        2.41825211       8.43077674       3.82608287      -0.03872875      -0.00999946       0.02445101
C        9.81540906      -0.06092172       3.82248667      -0.00458129      -0.00198608       0.02579397
C        8.59029212       2.09031105       3.88923848      -0.00989595      -0.00647124      -0.03726205
C        7.33876055       4.22841854       3.88954711       0.00364506       0.00861494      -0.03572540
C        6.10541462       6.36577236       3.79696181      -0.00273157      -0.04416641       0.03110719
C        4.87945621       8.48998866       3.74695411       0.02796562      -0.00839278      -0.00193402
C       -0.04672875       1.38366329       3.84503236       0.02813342       0.01118403       0.00798629
C       -1.24216958       3.53483375       3.90805624       0.00023837       0.00495307       0.00998751
C       -2.50529243       5.64703050       3.88215854      -0.03472670       0.01515201      -0.01797006
C       -3.74662212       7.78533548       3.80322747      -0.01178022      -0.01563522       0.01286309
C       -4.98282878       9.92530325       3.77830988      -0.01006478       0.01637889       0.04357183
C        2.42434608       1.37865676       3.83401478      -0.01836916       0.01552506      -0.01485811
C        1.21877555       3.49258826       3.96090936       0.01553242       0.01254748       0.02117302
C       -0.04650030       5.69015005       3.98653128       0.03475375       0.01072710       0.01820732
C       -1.27752692       7.78787616       3.84174545       0.02229026      -0.00691036       0.04614279
C       -2.50891894       9.92712959       3.80471352       0.00053630      -0.02367074      -0.00806529
C        4.89187335       1.38363664       3.85039447      -0.00947888       0.03371527      -0.01342804
C        3.62982141       3.49601905       3.93085303      -0.01269797      -0.00738547       0.02014252
C        1.16054879       7.77511883       3.91213558      -0.03279395      -0.01816563      -0.05425238
C       -0.03726867       9.91873176       3.82314256       0.01082408       0.03456505       0.03458112
C        7.35837995       1.37696405       3.86531487      -0.01874025       0.01584870       0.03371223
C        6.08147746       3.53601575       3.88782682       0.01022053       0.03102730       0.01911974
C        4.87703782       5.69238075       3.82234072       0.00422197      -0.02250896       0.01518645
C        3.68146676       7.76377406       3.75426503       0.00829659       0.01384473       0.04519113
C        2.42072741       9.87928285       3.82775854      -0.01032848      -0.00178601      -0.00789411
C        9.82292202       1.37595633       3.86802909       0.01477840       0.00729788       0.00840948
C        8.58899960       3.51575822       3.90061026      -0.02262095      -0.00505914      -0.01005819
C        7.34821254       5.65038603       3.84583490      -0.01086645      -0.02067084       0.00030234
C        6.11769261       7.78871600       3.76304075       0.02376670      -0.02996487      -0.00608972
C        4.88200622       9.92086590       3.78468001      -0.00338078       0.00912298       0.01339150
Zn       1.87058694       5.25104792       6.60608199       0.01084185      -0.01384952      -0.10357752
O        3.59291446       5.93720843       6.39824806      -0.00261416       0.04927008       0.06902897
O        3.40649521       7.38509816       6.48261364       0.01877049      -0.09171893      -0.02796683
H        4.05623517       7.60452758       7.18474780       0.01295804      -0.03104069      -0.04858627
