50
Lattice="12.336457 0.0 0.0 -6.168228499999997 10.683685154694365 0.0 0.0 0.0 15.0" Properties=species:S:1:pos:R:3:forces:R:3 energy=-438.7885420870984 free_energy=-438.7885420870984 stress="0.004189986605402811 1.815063472556367e-05 -2.8106776468922435e-05 1.815063472556367e-05 0.005333141154409538 0.00013700868721612517 -2.8106776468922435e-05 0.00013700868721612517 -0.0005896056241592859" pbc="T T T"
C       -0.00165493      -0.00396372       3.58435165      -0.10926288       0.04255808       0.10382320
C       -1.23052603       2.14816611       3.75513593      -0.03200832      -0.15691793      -0.03645091
C       -2.46093867       4.26535614       3.72508885       0.08905940      -0.04496577       0.00371478
C       -3.70100879       6.40083001       3.54799835      -0.07593987      -0.11175756       0.04057806
C       -4.95103996       8.53305238       3.47697789       0.19758313       0.11097412      -0.03166592
C        2.46534749       0.01224210       3.56395986       0.03283268      -0.27205512       0.00351174
C        1.22649205       2.13319358       3.77513672       0.30442998       0.11660746       0.06158134
C        0.06258813       4.29770144       3.88593017      -0.15348832       0.02526558      -0.11549458
C       -1.22786953       6.39401090       3.64973375      -0.07572132       0.12858590       0.00586472
C       -2.45605551       8.52977626       3.47969504      -0.16902261       0.09457927       0.09254553
C        4.93755831      -0.01855090       3.60314664       0.02257081       0.17772456       0.05240346
C        3.70406071       2.13069612       3.77698318      -0.21801367      -0.01755399      -0.01489812
O        2.46667511       4.13513312       4.15087440       0.03729756       0.23697752      -0.15828361
O        1.10223047       6.47584179       4.05783476       0.37342613      -0.23896167      -0.17287149
C        0.01064999       8.52598265       3.61516214      -0.29444360       0.01585158      -0.07249542
C        7.40953235      -0.02788269       3.67491836       0.07932103      -0.01766352       0.05018350
C        6.16223810       2.13568223       3.74231023      -0.02252373      -0.00556402      -0.05112270
C        4.86520136       4.29479738       3.83106465       0.15768801       0.00549159      -0.06453354
O        3.82914818       6.46572488       3.98339574      -0.44268283      -0.12367174      -0.11047027
C        2.47135175       8.45288837       3.71492680      -0.04176621       0.15317289      -0.05273240
C        9.86204820      -0.02622720       3.68265043      -0.02178475       0.04807288      -0.02684119
C        8.63602413       2.11994919       3.71125854      -0.05427614       0.10010017       0.06770205
C        7.38025936       4.26219320       3.70517074       0.06543901      -0.05767912      -0.01402455
C        6.16075710       6.39311432       3.59037288      -0.00679575       0.11700942       0.06812313
C        4.92748066       8.53563637       3.58253785       0.16336747      -0.16929863      -0.01628984
C       -0.01354799       1.41930201       3.71053361       0.24698032       0.18742320      -0.06255634
C       -1.20047851       3.58088099       3.79771198      -0.01511854      -0.12294650      -0.00169171
C       -2.47064047       5.68357206       3.63962303       0.12918541      -0.02576918      -0.03737480
C       -3.70577276       7.82412237       3.46278548       0.10267487      -0.03023216       0.13748442
C       -4.93684827       9.96941855       3.51358853      -0.04938848      -0.01880659       0.07727462
C        2.46504571       1.42637259       3.71044003       0.01635170      -0.22993956      -0.06790185
C        1.26099456       3.51846673       3.93618866      -0.26106410      -0.01044430      -0.07652790
C       -0.02417715       5.72042036       3.83399211       0.06350619      -0.01315369       0.00115557
C       -1.22783742       7.81876079       3.56687976      -0.13523550       0.05195855      -0.04817442
C       -2.46885870       9.96391081       3.52647050       0.08141544      -0.02097164       0.04052642
C        4.94474758       1.40721125       3.70754278      -0.24122177       0.24784654      -0.01054231
C        3.67052277       3.51737045       3.91188822       0.18190192       0.00798347      -0.05724580
C        1.19532997       7.81462527       3.74436768       0.08215355      -0.01893110       0.05379468
C        0.00822906       9.95680287       3.61821639       0.02517790      -0.09859930      -0.00363185
C        7.40113381       1.41069122       3.70479884       0.10651750      -0.04100481       0.01127018
C        6.12411372       3.57110158       3.76560120       0.07777752      -0.03790305       0.00074714
C        4.95326626       5.71853573       3.76346779       0.11884627      -0.11759869      -0.03497459
C        3.74518081       7.81363275       3.71786577      -0.09782872       0.17408422      -0.00436821
C        2.46747776       9.91129867       3.69676139       0.05833140       0.10071523      -0.06173236
C        9.87198385       1.41248335       3.71298688      -0.17336414       0.04579156       0.01617380
C        8.62877132       3.54586899       3.71409924       0.05446693       0.05416850       0.01059571
C        7.40281360       5.68129690       3.61221652      -0.23330078      -0.01862691      -0.04426200
C        6.15862984       7.82086876       3.52777885       0.17309594       0.05546591      -0.01937479
C        4.93099230       9.96728911       3.60324252      -0.12998204      -0.18102736       0.01427886
Zn       2.48665820       6.13506946       6.34499350       0.01283600      -0.09636429       0.55520058
