53
Lattice="12.336457 0.0 0.0 -6.168228499999997 10.683685154694365 0.0 0.0 0.0 15.0" Properties=species:S:1:pos:R:3:forces:R:3 energy=-449.4922308852481 free_energy=-449.4922308852481 stress="0.001567164925032719 1.9800485773502404e-05 -3.8738617303694726e-06 1.9800485773502404e-05 -0.0030677115537227836 3.506116576009634e-05 -3.8738617303694726e-06 3.506116576009634e-05 2.3391052386138647e-05" pbc="T T T"
C       -0.00384434      -0.00428200       3.83309689      -0.00248031       0.00121954       0.00343116
C       -1.22550749       2.14379866       3.93442905       0.00613605      -0.00326795       0.00126327
C       -2.45741266       4.27432004       3.87658250       0.00137055      -0.00248456      -0.00174343
C       -3.70254515       6.40075367       3.76275944      -0.00493721      -0.00750187      -0.00568007
C       -4.94320867       8.53203480       3.71240362      -0.00573264       0.00654976       0.00157938
C        2.46482863      -0.01396902       3.85684620       0.00246858      -0.00317918      -0.00086060
C        1.23984586       2.12287100       3.92494879       0.00125085      -0.00114065      -0.00235286
C        0.04058260       4.25634185       3.75810814      -0.00899899      -0.00207971      -0.00437907
C       -1.21777055       6.39253234       3.58314414       0.00475200      -0.00052677      -0.00354179
C       -2.46225194       8.53223131       3.70731932      -0.00074942       0.00967796      -0.00040748
C        4.93328887      -0.00368805       3.82901428       0.00432292      -0.00041050       0.00261557
C        3.68980093       2.12310925       3.92937070      -0.00775251      -0.00518427      -0.00540855
O        2.46419296       4.16206292       3.96915304       0.00251085      -0.00090420      -0.01159157
P        1.26674023       6.37431151       2.42943084      -0.00231907       0.01092527      -0.00631466
C       -0.00734975       8.57095097       3.49909042      -0.00457091      -0.00307386      -0.00028994
C        7.39494049       0.02419717       3.79577163      -0.00065693      -0.00404682       0.00409669
C        6.15513800       2.14389636       3.93942200      -0.00659278      -0.00170332      -0.00786718
C        4.88844706       4.25672681       3.77335216       0.01009182       0.00216657      -0.00857993
P        3.66640269       6.37393145       2.44249816       0.00300648       0.00390789      -0.00483749
C        2.46452556       8.63662701       3.36113282       0.00518788      -0.00246913      -0.00149841
C        9.87064395       0.02348258       3.79823466       0.00313666       0.00045176       0.01176536
C        8.63293532       2.14804279       3.94199840       0.00647629       0.00528362       0.00946417
C        7.38775754       4.27429675       3.88149503      -0.00007921      -0.00357544       0.00441921
C        6.14797715       6.39192059       3.59424861      -0.00548465       0.00626906       0.00224583
C        4.93713306       8.56892811       3.51374992      -0.00249215       0.00421809      -0.01328649
C       -0.00363416       1.42050664       3.91073947       0.00454090       0.00012761       0.00241072
C       -1.20749504       3.56428422       3.89600281      -0.00312418      -0.00522664       0.00352482
C       -2.46134914       5.69226130       3.76626502       0.00390543      -0.00514500       0.00796129
C       -3.70258524       7.82368555       3.72771001      -0.00212244       0.00153412       0.00048539
C       -4.94040476       9.95608109       3.80014495      -0.00145209       0.00336426       0.00804352
C        2.46492201       1.40127561       3.92219264      -0.00328292      -0.00994617       0.00686973
C        1.25229333       3.51127388       3.86594157      -0.00460765       0.00112481      -0.00043146
C       -0.00618224       5.64795715       3.42625369       0.00543336       0.00083352      -0.00609667
C       -1.22759021       7.82762769       3.56794550      -0.00372645       0.00191020       0.00710772
C       -2.46632821       9.95624072       3.79603978       0.00654204       0.00749030       0.01446261
C        4.93328686       1.42068435       3.91313044      -0.00641533      -0.00123529       0.00400653
C        3.67669102       3.51149380       3.87474023       0.00671763      -0.00182251      -0.00793118
C        1.22904758       7.94152860       3.19683131       0.00106715       0.00197279       0.00568591
C       -0.00345476       9.98548574       3.72237960      -0.00143726      -0.00812723       0.00722351
C        7.39613916       1.43800913       3.91799992       0.00067834       0.00202635       0.00683794
C        6.13740941       3.56442583       3.90441596       0.00291769      -0.00213142       0.00542329
C        4.93380096       5.64870471       3.44537777       0.00553794       0.00273585      -0.00954951
C        3.70054104       7.93924334       3.21209666       0.00309721      -0.00361036      -0.00721298
C        2.46439801      10.01666072       3.68832142       0.00370418       0.00129899      -0.01599296
C        9.86960544       1.43772576       3.91727796       0.00686407       0.00295892       0.00330402
C        8.63337257       3.56921637       3.92841809       0.00106601       0.00318993      -0.00107150
C        7.39235952       5.69219215       3.77315577      -0.01000386      -0.00639407      -0.00065615
C        6.15844574       7.82671185       3.57850097      -0.00912459       0.00724495       0.01268208
C        4.93287443       9.98418645       3.73084177      -0.00163550       0.00094331       0.00416225
Zn       2.22407125       5.75212825       7.30546370      -0.00895673       0.01062676      -0.01296453
O        3.17885411       5.54147070       8.92546598       0.00183169      -0.00863161       0.01609464
O        2.33313328       5.66006657      10.11513634      -0.00457678      -0.01098380      -0.01337385
H        3.02295458       5.73207304      10.80328618       0.00869801       0.00475017      -0.00324632
