49
Lattice="12.336457 0.0 0.0 -6.168228499999997 10.683685154694365 0.0 0.0 0.0 15.0" Properties=species:S:1:pos:R:3:forces:R:3 energy=-419.568097374291 free_energy=-419.568097374291 stress="-0.0033609007183233257 0.000119911778608393 -5.182203971547303e-06 0.000119911778608393 -0.010555623823649322 -1.2770577857843196e-06 -5.182203971547303e-06 -1.2770577857843196e-06 -3.3649092605284224e-07" pbc="T T T"
C       -0.00533786      -0.00794613       3.97057694       0.00238971       0.00324409       0.00455669
C       -1.23798368       2.14793143       4.01613138       0.00432816       0.00318379       0.00007073
C       -2.47818097       4.27914211       3.76202749      -0.00149340       0.00194289       0.00034550
C       -3.70596086       6.40816009       3.65778303       0.00338990      -0.00042102       0.00318242
C       -4.94847850       8.52842281       3.82606836      -0.00004956      -0.00665028       0.00724265
C        2.46398094      -0.04401988       3.76560034       0.00102841      -0.00107987      -0.00316515
C        1.26551698       2.06876382       4.08505091      -0.00527433      -0.00513109      -0.00747460
C       -0.05728329       4.31824611       4.00340305      -0.00293890      -0.00520988      -0.00103664
C       -1.24194981       6.41187410       3.55387806       0.00236679       0.00298283       0.00459939
C       -2.47009879       8.53074155       3.60924399       0.00277142      -0.00674504       0.00258552
C        4.92732944      -0.00797411       3.55870390      -0.00156847      -0.00878766      -0.00133483
C        3.66616252       2.04222937       3.36349337      -0.00407557       0.00933194      -0.01026186
P        1.50402606       6.27221913       2.93116139       0.00881322       0.00695618      -0.00004003
C       -0.00152775       8.56199416       3.50328292      -0.00562073      -0.00301782      -0.00490077
C        7.38666098       0.03615477       3.65353447       0.00345097      -0.00860893      -0.01095820
C        6.15785173       2.14361841       3.41234941      -0.00060594      -0.00685053      -0.00747775
C        5.00140028       4.30763259       3.18893660      -0.00268765      -0.00038864       0.00124394
P        3.44640547       6.20940274       4.33795947       0.00007936      -0.00911643      -0.00687435
C        2.45531257       8.63134855       3.77711255      -0.00786397       0.00181287       0.00070223
C        9.86575580       0.03372607       3.90465231       0.00268736       0.01221954       0.00081569
C        8.62955442       2.15340152       3.72072016       0.00246754      -0.00188373       0.00335099
C        7.40581556       4.27740017       3.53755676      -0.00091224      -0.00110299       0.01202730
C        6.16552571       6.40708959       3.72407994      -0.00251787      -0.00473377      -0.00322008
C        4.92366643       8.55638513       3.98513357      -0.00069508       0.01314434      -0.00912121
C       -0.00034656       1.41902416       4.05380434      -0.00131310      -0.00144377      -0.00421114
C       -1.26168424       3.56497052       3.95729776      -0.00113154       0.00008468       0.00041251
C       -2.47464515       5.69911035       3.65118161       0.00316115       0.00245302       0.00567132
C       -3.70917232       7.82665925       3.69479209       0.00319992      -0.00347717       0.00099209
C       -4.94516752       9.94780877       3.87677554      -0.00010692      -0.00341397       0.00633783
C        2.47062978       1.37052050       3.76354126      -0.00112549       0.00464548      -0.00378213
P        1.38091778       3.66636853       4.74486589       0.00832755      -0.00225532       0.00285955
C       -0.03670136       5.66312548       3.58180339      -0.00423073       0.00215716       0.01432257
C       -1.23742025       7.83296360       3.50745830       0.00061927      -0.00128969       0.00527672
C       -2.47049917       9.94995969       3.63395807      -0.00009547      -0.00778577       0.00836497
C        4.92490679       1.41744836       3.43828152      -0.00573319      -0.00373753       0.00003532
S        3.53946225       3.57362357       2.58843549      -0.00218601       0.01044584      -0.00239854
C        1.25592241       7.92532246       3.47799383      -0.00773275       0.00042446      -0.00711093
C       -0.00501500       9.98877678       3.57256800      -0.00000256      -0.00781393       0.00333856
C        7.38591010       1.45279609       3.59634288       0.00274297      -0.00828420      -0.00222049
C        6.18247486       3.55740593       3.34551828       0.00007939      -0.00192681      -0.00650148
C        4.96453950       5.65135658       3.60405542      -0.00109547       0.00110680      -0.00527687
C        3.66399631       7.92315292       4.01769034       0.00029886       0.00959849      -0.00203330
C        2.45661333      10.03953249       3.79172360       0.00401210       0.00281575       0.00184492
C        9.86533673       1.45004490       3.89165424       0.00699243       0.00858636      -0.00056484
C        8.63230938       3.56894781       3.67248867      -0.00051029      -0.00200156       0.00712295
C        7.39884373       5.69760848       3.63333079       0.00107635      -0.00021864      -0.00191714
C        6.15521274       7.82489050       3.88770548      -0.00306523      -0.00363932       0.00483129
C        4.92643215       9.98652821       3.96753883       0.00039306       0.01546250       0.00020376
Zn       2.69637365       4.91465910       6.15547359      -0.00004345       0.00441631      -0.00045508
