51
Lattice="12.336457 0.0 0.0 -6.168228499999997 10.683685154694365 0.0 0.0 0.0 15.0" Properties=species:S:1:pos:R:3:forces:R:3 energy=-452.1228639763986 free_energy=-452.1228639763986 stress="-0.002948829731661388 -0.0018780486074985124 -5.352340937287776e-06 -0.0018780486074985124 -0.004462743581928528 1.0683585580298885e-05 -5.352340937287776e-06 1.0683585580298885e-05 1.503579245689783e-05" pbc="T T T"
C       -0.02136128       0.04601935       3.89517353      -0.00248908       0.00043418      -0.00601915
C       -1.27599161       2.16899647       3.79315967      -0.00268263       0.00644238      -0.00063346
C       -2.51684923       4.32298228       3.68698614      -0.00445708      -0.00363944      -0.00128561
C       -3.71610847       6.46274422       3.74507115       0.00592099      -0.00440187       0.00110123
C       -4.94646418       8.59630756       3.90127929       0.00203638      -0.00260006       0.00277116
C        2.44915534       0.03676042       3.66106464      -0.00035129       0.01053379       0.00316074
C        1.20026174       2.16013602       3.65770158      -0.00452076      -0.00941201      -0.00476529
C       -0.10191179       4.28092412       3.49039163       0.00256710       0.00084843       0.00242757
C       -1.25995654       6.45003983       3.43964763      -0.00284597       0.00424563      -0.00310560
C       -2.47360577       8.58990276       3.60256392      -0.00350608       0.00236519      -0.00397150
C        4.91597877       0.05457532       3.55616900      -0.00340942      -0.01542617       0.00887267
C        3.66442862       2.20203326       3.52153324       0.00468953       0.00628611       0.01081028
B        2.36799877       4.43011507       3.12890816       0.00841106       0.01337683       0.00536106
P        1.54197710       6.25143394       2.83680712       0.00089381       0.00233046       0.00074847
C        0.00978036       8.58812056       3.48924855      -0.00068273      -0.00166321       0.00989689
C        7.37346475       0.06174973       3.70666615      -0.00172513       0.00148321       0.00411376
C        6.14012425       2.19102027       3.62284715      -0.00194597       0.00047927      -0.00519568
C        4.93640382       4.33374766       3.76952747       0.00251354      -0.00310969      -0.01287331
P        3.50496264       6.32241712       4.88235551       0.01168400       0.00060356      -0.00735789
C        2.44666377       8.63755651       3.91347752       0.00345551       0.00546940      -0.00899981
C        9.84322191       0.06160952       3.94117415      -0.00126653      -0.00244474      -0.00192463
C        8.59878602       2.18935094       3.77376640       0.00722478      -0.00647463      -0.00501833
C        7.37624616       4.32986488       3.76307920       0.00324581       0.00384132       0.00331459
C        6.17214113       6.46499996       4.05283886      -0.01311473      -0.00464770      -0.00416813
C        4.92037370       8.61373122       4.17271214      -0.00626616       0.00460539      -0.00035206
C       -0.03857450       1.45791515       3.78623514      -0.00705441      -0.00106059      -0.00368040
C       -1.30618290       3.58468370       3.66634050      -0.00325574       0.00529660       0.00358323
C       -2.49551865       5.74647821       3.61786791       0.00363554      -0.00361671      -0.00270119
C       -3.71134463       7.88740377       3.74916140       0.00415722      -0.00476368      -0.00416583
C       -4.94776017      10.01866233       3.82818656       0.00252751       0.00466763       0.00676568
C        2.44651755       1.46846152       3.58754410       0.00352236       0.00706025       0.01220082
C        1.15251559       3.57879979       3.49515613       0.00810009      -0.00516051       0.01268188
C       -0.07878437       5.67783828       3.27620738      -0.00346578      -0.00347060      -0.00426093
C       -1.23952169       7.87892763       3.47396190      -0.00392497       0.00493943       0.00429255
C       -2.48341158      10.01651800       3.59676666      -0.00814991      -0.00056594       0.00123691
C        4.90727225       1.48279924       3.54784496      -0.00156648      -0.01067333       0.01242283
C        3.66041004       3.66229857       3.54023374       0.00094883       0.00826176      -0.00406279
C        1.27855211       7.92335507       3.50274412       0.00179112       0.00974477       0.00346272
C       -0.01665359      10.02312253       3.58142344       0.00150875      -0.00727659       0.00343418
C        7.36830397       1.48167780       3.70278683       0.00183192       0.00251255      -0.00717833
C        6.15059957       3.61392157       3.69232490       0.00265731       0.00397500      -0.00650047
C        4.98052669       5.69340529       4.15522260      -0.00402577      -0.01304178       0.00451949
C        3.65787904       7.97432638       4.29708410      -0.00141385       0.00367799       0.00189700
C        2.43814233      10.05148781       3.87116398      -0.00124229       0.00226315      -0.00345284
C        9.83127686       1.47416567       3.85033371       0.00605382      -0.00392570       0.00296771
C        8.59717686       3.61295421       3.74593158      -0.00065733      -0.00674481      -0.00527747
C        7.39101548       5.75350406       3.85288511      -0.00145042       0.00328494       0.00514915
C        6.16246478       7.89238227       4.09191703      -0.00808004      -0.00196172      -0.00197538
C        4.91537384      10.03317270       4.01970135      -0.00385729       0.00119834      -0.01600163
Zr       2.30558911       4.10765928       5.51752686       0.00852314      -0.00272820      -0.00641072
O        3.41910221       3.13135598       6.48271365      -0.00049226      -0.00141790       0.00414587
