52
Lattice="12.336457 0.0 0.0 -6.168228499999997 10.683685154694365 0.0 0.0 0.0 15.0" Properties=species:S:1:pos:R:3:forces:R:3 energy=-451.64894090820104 free_energy=-451.64894090820104 stress="-0.003859239005594664 -0.005830565619772402 1.9691636454138217e-05 -0.005830565619772402 -0.0008703461560460972 3.5265028015272646e-05 1.9691636454138217e-05 3.5265028015272646e-05 7.899824231054441e-06" pbc="T T T"
C        0.00218065      -0.02364359       3.92996968      -0.00847101      -0.00346877      -0.00328092
C       -1.29341579       2.07335755       4.07228758       0.00086399      -0.00143077       0.00302987
C       -2.51930995       4.22797819       4.10500460       0.00076529       0.00074478       0.01061311
C       -3.67584500       6.38919187       3.94755913       0.00146736       0.00202180      -0.00233055
C       -4.89368558       8.54181420       3.88046693      -0.00310775       0.00471705      -0.00471961
C        2.47122425      -0.00546408       3.99364599      -0.00130895      -0.00620462       0.00174500
C        1.17106178       2.08609812       4.08750315       0.00003654       0.00728360       0.00134072
C       -0.14918667       4.16250537       4.46985007      -0.00115889       0.00079442      -0.00279465
C       -1.23607162       6.34896205       4.30417850       0.00659361       0.00345467      -0.00473807
C       -2.42712348       8.51469025       4.02521654      -0.00346214      -0.00584023      -0.00532231
C        4.92954295      -0.02187606       3.80950356       0.00610561      -0.00175304      -0.00584449
C        3.64467405       2.08530988       3.56901233       0.00185353       0.00429298       0.00162029
O        1.24447230       6.67526627       2.77603607       0.00788976       0.00517872      -0.00522862
C        0.01166675       8.49843883       3.78615497      -0.00472218      -0.00207119      -0.00143798
C        7.38703727      -0.03592923       3.67179170       0.00236499       0.00183712      -0.00244378
C        6.13453493       2.12853008       3.56717633       0.00229901      -0.00024979       0.00226613
C        5.02647970       4.34738577       3.24758268       0.00135150      -0.00093013       0.00124789
N        3.84668540       6.45256547       3.33919129      -0.00080416      -0.00165043       0.01011296
C        2.50335774       8.52611998       3.53247587      -0.00019285       0.00563981       0.00588658
C        9.85967270      -0.03448750       3.75112757       0.00439355       0.00190112      -0.00348257
C        8.59735066       2.10430276       3.80128619       0.00002569      -0.00173123      -0.00840434
C        7.40365389       4.26494633       3.68768088      -0.00367237      -0.00175430      -0.00258347
C        6.25132154       6.44304129       3.55037104       0.00175328       0.00408445      -0.00230744
C        4.98568872       8.54616695       3.60488801       0.00295608      -0.00489143       0.00191715
C       -0.03120038       1.39510722       4.05654709      -0.00021839      -0.00028431       0.00209880
C       -1.33523575       3.46465987       4.25398127       0.00086550      -0.00344676       0.00364345
C       -2.47375198       5.65592420       4.13894492       0.00655729       0.00474561      -0.00166221
C       -3.66574279       7.81550493       3.97272705      -0.00629282       0.00144414       0.00286801
C       -4.92098627       9.96509931       3.96270195      -0.00908806      -0.00093373      -0.00089908
C        2.43131675       1.43075233       3.93389837      -0.00033880       0.00001546       0.00255564
O        1.10066697       3.45650340       4.36366647       0.00654545       0.01396950       0.00373338
C       -0.11675585       5.54803851       4.61209068      -0.00951318      -0.00746971       0.00417444
C       -1.19823903       7.77988433       4.05731667      -0.00187242      -0.00082755      -0.00315861
C       -2.45469814       9.95335447       3.95287894       0.00423909      -0.00636528      -0.00240755
C        4.89841927       1.41736370       3.63800232       0.00422282       0.00224334      -0.00591657
S        3.50957251       3.65785571       2.83671987      -0.00034876       0.00827989       0.00487448
C        1.25044443       7.83513476       3.40598605      -0.00456008       0.00226065      -0.00437935
C       -0.00152150       9.92758236       3.74807770       0.00435429      -0.00182502      -0.00327255
C        7.36323584       1.40235666       3.67286264      -0.00002070      -0.00082183      -0.00589507
C        6.16995016       3.56228828       3.48566543      -0.00168131      -0.00313274       0.00108141
C        5.02826852       5.76909112       3.33435668       0.00217399       0.00014182       0.01158196
C        3.77756234       7.81819164       3.45654919       0.00032361       0.00152643      -0.00008562
C        2.46386347       9.93974256       3.64732132       0.00401504       0.00696179      -0.00650652
C        9.83335654       1.38118654       3.87781999       0.00086079      -0.00067795       0.00500261
C        8.60114277       3.52914764       3.86639822      -0.00259980      -0.00100864       0.00408106
C        7.43925991       5.69109559       3.72277880      -0.00146104       0.00085224       0.00266378
C        6.22747094       7.85016478       3.67266047       0.00248356       0.00312560       0.00326446
C        4.94249522       9.95416219       3.76551329      -0.00274636      -0.00705049       0.00309171
Zr       2.03936096       5.44858390       4.27146695       0.00132785      -0.00544586       0.00004545
O        3.01227987       6.15653000       5.85249356      -0.00636016       0.00588487       0.00148690
O        2.27396831       4.96045777       6.49472959      -0.00435964      -0.01494590      -0.01029661
H        1.86860182       5.41616797       7.25823434      -0.00032725      -0.00719017       0.00337131
