50
Lattice="12.336457 0.0 0.0 -6.168228499999997 10.683685154694365 0.0 0.0 0.0 15.0" Properties=species:S:1:pos:R:3:forces:R:3 energy=-442.90460831875464 free_energy=-442.90460831875464 stress="-0.004464433366491701 -0.005608050635921855 -1.2544412140583525e-05 -0.005608050635921855 -0.0013343837731644174 4.520174365733325e-06 -1.2544412140583525e-05 4.520174365733325e-06 1.8533385993753172e-05" pbc="T T T"
C        0.00010416      -0.03177076       3.90162228      -0.00074823      -0.01202264       0.00647433
C       -1.29516626       2.06373071       4.07559751      -0.00461110      -0.00351537      -0.00709218
C       -2.52050485       4.21881987       4.09549358      -0.00460690       0.00254508      -0.01535701
C       -3.67823235       6.38053449       3.90968447       0.00289007       0.00695636      -0.00141121
C       -4.89500141       8.53534601       3.83469788      -0.00123925      -0.00372612       0.00143537
C        2.46823870      -0.01135736       3.94709186       0.00995248      -0.00308679       0.00109295
C        1.17087588       2.07654893       4.05514864      -0.00547148       0.00416256      -0.00088397
C       -0.14058836       4.16206553       4.41151676      -0.00882225      -0.00011627       0.00354787
C       -1.23697081       6.34416435       4.22178338       0.00207131       0.00007846       0.00288031
C       -2.43164503       8.51053531       3.97533045      -0.00201699      -0.00408336      -0.00554507
C        4.92619705      -0.02560587       3.76303207       0.00426311      -0.00123992       0.01126454
C        3.64455038       2.07819068       3.52117338      -0.00794352       0.00492661       0.00327066
O        1.21231083       6.73236991       2.62961463      -0.00013149      -0.00620967      -0.00490579
C        0.00219487       8.50202842       3.73674328       0.00245613      -0.00065287      -0.00539771
C        7.38770836      -0.04334751       3.63673232       0.00200012       0.00154591       0.00232326
C        6.13632820       2.12039300       3.52996598       0.00255256      -0.00061378       0.00970184
C        5.03215903       4.33774422       3.19594327       0.00183845       0.00338364       0.00445206
N        3.85442693       6.44648227       3.23407085      -0.00472997       0.00593643       0.01060980
C        2.50390893       8.51706965       3.48946860       0.00161247      -0.00335067       0.01338099
C        9.85865761      -0.04417320       3.73377210      -0.01199642       0.00382130      -0.00039138
C        8.59691754       2.09450928       3.79198874       0.00107326       0.00492435       0.00179347
C        7.40396250       4.25510753       3.65942442       0.00375976       0.00492375       0.00049514
C        6.25410886       6.43501217       3.50137281       0.00133959      -0.00548657      -0.00515049
C        4.98475433       8.53846121       3.56417305       0.00149677      -0.00214746       0.00828078
C       -0.03276558       1.38458460       4.04209934       0.00033784      -0.00722604      -0.01137144
C       -1.33697105       3.45551912       4.25043532      -0.00309997       0.00176954      -0.00149207
C       -2.47773830       5.64679613       4.10055318       0.00146264       0.00602003      -0.01086469
C       -3.66863068       7.80826739       3.92766845      -0.00261869       0.00212523      -0.00588668
C       -4.92335666       9.95854719       3.91945858       0.00928013      -0.00624046       0.01194216
C        2.43108513       1.42300727       3.89041427      -0.00758990       0.00057875      -0.00450351
O        1.10163428       3.44890032       4.31435954       0.00920069       0.01072929      -0.00135186
C       -0.12080041       5.54169235       4.47335856      -0.00878279      -0.00238293       0.00372517
C       -1.20277330       7.78005023       3.99585409      -0.00057350       0.00061638      -0.00327227
C       -2.45796610       9.94898232       3.90397297       0.00625139      -0.00838979      -0.00426956
C        4.89878563       1.41175425       3.59435181      -0.00509936      -0.00064944      -0.00267315
S        3.51983598       3.64582840       2.78224221      -0.00246517       0.00477237       0.00808772
C        1.23830896       7.83970257       3.30921310       0.00295923      -0.00380379      -0.00827637
C       -0.00381360       9.92467688       3.70389953       0.00343483       0.00012912      -0.00367906
C        7.36400992       1.39365756       3.64710164       0.00688197       0.00072175      -0.01149645
C        6.17343380       3.55271475       3.44777221       0.00401462       0.00398503       0.00439499
C        5.03282715       5.76134144       3.26917689      -0.00681332       0.00223441       0.01294200
C        3.77571939       7.80743953       3.39937455       0.00393163       0.00397510       0.00702537
C        2.46342250       9.92997741       3.61711567      -0.00484642      -0.00324455      -0.00308767
C        9.83207287       1.37037489       3.87669107      -0.00595729       0.00177395      -0.00719403
C        8.59945953       3.51934609       3.85727873      -0.00280878       0.00380375      -0.00850351
C        7.43780604       5.68145669       3.68586209       0.00525860       0.00460626       0.00630300
C        6.22762973       7.84344371       3.62581061       0.00207064      -0.00638164      -0.00597893
C        4.94038492       9.94425624       3.73891433      -0.00967902      -0.00256071      -0.00178690
Zr       2.08167519       5.45673892       4.21322007       0.00665734       0.00048061       0.00985404
O        2.63431282       5.97231974       5.84803148       0.01360421      -0.00439516      -0.00345489
